  -1.4999999999999999E-002     0.0000000000000000     
  -1.4700000000000000E-002     0.0000000000000000     
  -1.4400000000000000E-002     0.0000000000000000     
  -1.4100000000000000E-002     0.0000000000000000     
  -1.3800000000000000E-002     0.0000000000000000     
  -1.3500000000000000E-002     0.0000000000000000     
  -1.3200000000000000E-002     0.0000000000000000     
  -1.2899999999999998E-002     0.0000000000000000     
  -1.2600000000000000E-002     0.0000000000000000     
  -1.2299999999999998E-002     0.0000000000000000     
  -1.2000000000000000E-002     0.0000000000000000     
  -1.1699999999999999E-002     0.0000000000000000     
  -1.1399999999999999E-002     0.0000000000000000     
  -1.1099999999999999E-002     0.0000000000000000     
  -1.0799999999999999E-002     0.0000000000000000     
  -1.0499999999999999E-002     0.0000000000000000     
  -1.0199999999999999E-002     0.0000000000000000     
  -9.8999999999999991E-003     0.0000000000000000     
  -9.5999999999999992E-003     0.0000000000000000     
  -9.2999999999999992E-003     0.0000000000000000     
  -8.9999999999999993E-003     0.0000000000000000     
  -8.6999999999999994E-003     0.0000000000000000     
  -8.3999999999999995E-003     0.0000000000000000     
  -8.0999999999999996E-003     0.0000000000000000     
  -7.7999999999999988E-003     0.0000000000000000     
  -7.4999999999999997E-003     0.0000000000000000     
  -7.1999999999999998E-003     0.0000000000000000     
  -6.8999999999999981E-003     0.0000000000000000     
  -6.5999999999999982E-003     0.0000000000000000     
  -6.3000000000000000E-003     0.0000000000000000     
  -6.0000000000000001E-003     0.0000000000000000     
  -5.6999999999999985E-003     0.0000000000000000     
  -5.3999999999999986E-003     0.0000000000000000     
  -5.1000000000000004E-003     0.0000000000000000     
  -4.7999999999999987E-003     0.0000000000000000     
  -4.5000000000000005E-003     0.0000000000000000     
  -4.1999999999999989E-003     0.0000000000000000     
  -3.8999999999999990E-003     0.0000000000000000     
  -3.5999999999999990E-003     0.0000000000000000     
  -3.2999999999999991E-003     0.0000000000000000     
  -2.9999999999999992E-003     0.0000000000000000     
  -2.6999999999999993E-003     0.0000000000000000     
  -2.3999999999999994E-003     0.0000000000000000     
  -2.0999999999999977E-003     0.0000000000000000     
  -1.7999999999999995E-003     0.0000000000000000     
  -1.4999999999999979E-003     0.0000000000000000     
  -1.1999999999999997E-003     0.0000000000000000     
  -8.9999999999999976E-004     0.0000000000000000     
  -5.9999999999999810E-004     0.0000000000000000     
  -2.9999999999999992E-004     0.0000000000000000     
   0.0000000000000000          0.0000000000000000     
   3.0000000000000165E-004     0.0000000000000000     
   5.9999999999999984E-004     0.0000000000000000     
   9.0000000000000149E-004     0.0000000000000000     
   1.2000000000000031E-003     0.0000000000000000     
   1.5000000000000013E-003     0.0000000000000000     
   1.8000000000000030E-003     0.0000000000000000     
   2.1000000000000012E-003     0.0000000000000000     
   2.3999999999999994E-003     0.0000000000000000     
   2.7000000000000010E-003     0.0000000000000000     
   2.9999999999999992E-003     0.0000000000000000     
   3.3000000000000008E-003     0.0000000000000000     
   3.6000000000000025E-003     0.0000000000000000     
   3.9000000000000007E-003     0.0000000000000000     
   4.2000000000000023E-003     0.0000000000000000     
   4.5000000000000005E-003     0.0000000000000000     
   4.7999999999999987E-003     0.0000000000000000     
   5.1000000000000004E-003     0.0000000000000000     
   5.4000000000000020E-003     0.0000000000000000     
   5.7000000000000037E-003     0.0000000000000000     
   5.9999999999999984E-003     0.0000000000000000     
   6.3000000000000000E-003     0.0000000000000000     
   6.6000000000000017E-003     0.0000000000000000     
   6.9000000000000034E-003     0.0000000000000000     
   7.2000000000000015E-003     0.0000000000000000     
   7.5000000000000032E-003     0.0000000000000000     
   7.8000000000000014E-003    -7.7578699034415780E-037
   8.0999999999999996E-003     4.2104063861590900E-038
   8.4000000000000012E-003     3.0011490021602426E-035
   8.7000000000000029E-003     6.9147838167381251E-036
   9.0000000000000011E-003    -1.8896879841834462E-034
   9.2999999999999992E-003     1.4658219404324589E-034
   9.6000000000000009E-003     2.5672921518233534E-033
   9.8999999999999991E-003    -1.2686822532308998E-032
   1.0200000000000001E-002    -1.3628358242487125E-033
   1.0500000000000002E-002     3.2371786113029369E-031
   1.0800000000000004E-002    -1.3650173301748555E-030
   1.1099999999999999E-002    -1.1992714982343362E-030
   1.1400000000000000E-002     3.2357100615084772E-029
   1.1700000000000002E-002    -1.2109199062193463E-028
   1.2000000000000004E-002     1.6364060995537179E-029
   1.2300000000000002E-002     1.6361188952507612E-027
   1.2600000000000000E-002    -7.0490091374182356E-027
   1.2900000000000002E-002     1.0406507461371792E-026
   1.3200000000000000E-002     2.7573955014660043E-026
   1.3500000000000002E-002    -1.7784776663570381E-025
   1.3800000000000003E-002     3.0849576664073854E-025
   1.4100000000000001E-002     6.9097549422711517E-025
   1.4400000000000000E-002    -5.7300319967444012E-024
   1.4700000000000001E-002     1.6985410645585960E-023
   1.4999999999999999E-002    -2.3300398386339394E-023
   1.5300000000000001E-002    -2.8072694474008047E-023
   1.5600000000000003E-002     3.2973514935798929E-022
   1.5899999999999997E-002    -2.0648960522155947E-021
   1.6199999999999999E-002     1.3828194788724905E-020
   1.6500000000000001E-002    -8.9154831815369508E-020
   1.6800000000000002E-002     5.1099309815131737E-019
   1.7100000000000004E-002    -2.6041066365871371E-018
   1.7400000000000006E-002     1.2069022568027416E-017
   1.7700000000000000E-002    -5.1973068140797013E-017
   1.8000000000000002E-002     2.1072308314269152E-016
   1.8300000000000004E-002    -8.0568683387909458E-016
   1.8600000000000005E-002     2.8670180616250426E-015
   1.8900000000000000E-002    -9.1756199264037691E-015
   1.9200000000000002E-002     2.4419056932219706E-014
   1.9500000000000003E-002    -4.1712960803562751E-014
   1.9799999999999998E-002    -4.3411475315110332E-014
   2.0100000000000000E-002     7.6504362740703602E-013
   2.0400000000000001E-002    -3.8694360215973944E-012
   2.0700000000000003E-002     1.2559564499525777E-011
   2.0999999999999998E-002    -2.4667651601917306E-011
   2.1299999999999999E-002     2.8850932060064949E-012
   2.1600000000000001E-002     1.7152779197004975E-010
   2.1900000000000003E-002    -5.9792432116623218E-010
   2.2200000000000004E-002     7.1654815414490258E-010
   2.2500000000000006E-002     1.5014031129467753E-009
   2.2800000000000001E-002    -6.8475776160425994E-009
   2.3100000000000002E-002     5.2195021638112848E-009
   2.3400000000000004E-002     2.1225604385222141E-008
   2.3699999999999999E-002    -4.1901497382923480E-008
   2.4000000000000000E-002    -4.8249233941533021E-008
   2.4300000000000002E-002     1.4641346979260561E-007
   2.4599999999999997E-002     1.5123116270387982E-007
   2.4900000000000005E-002    -3.7984574419169803E-007
   2.5200000000000000E-002    -6.8169941869200557E-007
   2.5499999999999995E-002     7.6373567026166711E-007
   2.5800000000000003E-002     4.5959350245539099E-006
   2.6099999999999998E-002     1.0012287020799704E-005
   2.6400000000000007E-002     1.6402786059188657E-005
   2.6700000000000002E-002     2.4848694010870531E-005
   2.6999999999999996E-002     3.7864778278162703E-005
   2.7300000000000005E-002     5.8779103710548952E-005
   2.7600000000000000E-002     9.1581088781822473E-005
   2.7900000000000008E-002     1.4119361003395170E-004
   2.8200000000000003E-002     2.1429188200272620E-004
   2.8499999999999998E-002     3.2044481486082077E-004
   2.8800000000000006E-002     4.7350049135275185E-004
   2.9100000000000001E-002     6.9235748378559947E-004
   2.9400000000000003E-002     1.0003594215959311E-003
   2.9700000000000004E-002     1.4247628860175610E-003
   3.0000000000000006E-002     1.9977746997028589E-003
   3.0300000000000001E-002     2.7581343892961740E-003
   3.0600000000000002E-002     3.7506995722651482E-003
   3.0900000000000004E-002     5.0232126377522945E-003
   3.1199999999999999E-002     6.6222595050930977E-003
   3.1500000000000007E-002     8.5894325748085976E-003
   3.1800000000000002E-002     1.0955397970974445E-002
   3.2099999999999997E-002     1.3731094077229500E-002
   3.2400000000000005E-002     1.6897091642022133E-002
   3.2700000000000000E-002     2.0393379032611847E-002
   3.3000000000000002E-002     2.4109721183776855E-002
   3.3300000000000003E-002     2.7874290943145752E-002
   3.3599999999999998E-002     3.1446091830730438E-002
   3.3900000000000000E-002     3.4514114260673523E-002
   3.4200000000000001E-002     3.6703296005725861E-002
   3.4500000000000003E-002     3.7585757672786713E-002
   3.4799999999999998E-002     3.6702681332826614E-002
   3.5099999999999999E-002     3.3598914742469788E-002
   3.5400000000000001E-002     2.7869684621691704E-002
   3.5699999999999996E-002     1.9210925325751305E-002
   3.6000000000000004E-002     7.4744876474142075E-003
   3.6299999999999999E-002    -7.2779445908963680E-003
   3.6600000000000008E-002    -2.4728214368224144E-002
   3.6900000000000002E-002    -4.4257864356040955E-002
   3.7199999999999997E-002    -6.4948365092277527E-002
   3.7500000000000006E-002    -8.5592783987522125E-002
   3.7800000000000000E-002   -0.10473867505788803     
   3.8100000000000009E-002   -0.12077093869447708     
   3.8400000000000004E-002   -0.13201794028282166     
   3.8699999999999998E-002   -0.13688674569129944     
   3.9000000000000007E-002   -0.13399806618690491     
   3.9300000000000002E-002   -0.12233261764049530     
   3.9600000000000003E-002   -0.10136860609054565     
   3.9900000000000005E-002    -7.1168445050716400E-002
   4.0200000000000000E-002    -3.2441899180412292E-002
   4.0500000000000001E-002     1.3452701270580292E-002
   4.0800000000000003E-002     6.4552135765552521E-002
   4.1100000000000005E-002    0.11837708204984665     
   4.1399999999999999E-002    0.17208838462829590     
   4.1700000000000008E-002    0.22266139090061188     
   4.2000000000000003E-002    0.26707157492637634     
   4.2299999999999997E-002    0.30249363183975220     
   4.2600000000000006E-002    0.32646232843399048     
   4.2900000000000001E-002    0.33702766895294189     
   4.3200000000000002E-002    0.33286407589912415     
   4.3500000000000004E-002    0.31331366300582886     
   4.3799999999999999E-002    0.27841782569885254     
   4.4100000000000000E-002    0.22887910902500153     
   4.4400000000000002E-002    0.16600210964679718     
   4.4700000000000004E-002     9.1638073325157166E-002
   4.4999999999999998E-002     8.0659743398427963E-003
   4.5300000000000000E-002    -8.2109406590461731E-002
   4.5600000000000002E-002   -0.17602753639221191     
   4.5899999999999996E-002   -0.27073666453361511     
   4.6200000000000005E-002   -0.36319944262504578     
   4.6500000000000000E-002   -0.45045188069343567     
   4.6799999999999994E-002   -0.52964723110198975     
   4.7100000000000003E-002   -0.59809315204620361     
   4.7399999999999998E-002   -0.65345317125320435     
   4.7700000000000006E-002   -0.69365364313125610     
   4.8000000000000001E-002   -0.71709471940994263     
   4.8300000000000010E-002   -0.72262215614318848     
   4.8600000000000004E-002   -0.70958846807479858     
   4.8899999999999999E-002   -0.67797094583511353     
   4.9200000000000008E-002   -0.62823098897933960     
   4.9500000000000002E-002   -0.56152945756912231     
   4.9800000000000011E-002   -0.47951892018318176     
   5.0100000000000006E-002   -0.38442006707191467     
   5.0400000000000000E-002   -0.27892974019050598     
   5.0700000000000009E-002   -0.16604828834533691     
   5.1000000000000004E-002    -4.9115397036075592E-002
   5.1299999999999998E-002     6.8580463528633118E-002
   5.1600000000000007E-002    0.18369734287261963     
   5.1900000000000002E-002    0.29321455955505371     
   5.2200000000000010E-002    0.39459437131881714     
   5.2500000000000005E-002    0.48580855131149292     
   5.2800000000000000E-002    0.56570315361022949     
   5.3099999999999994E-002    0.63379293680191040     
   5.3400000000000003E-002    0.69055718183517456     
   5.3699999999999998E-002    0.73714995384216309     
   5.4000000000000006E-002    0.77536708116531372     
   5.4300000000000001E-002    0.80744016170501709     
   5.4599999999999996E-002    0.83553838729858398     
   5.4900000000000004E-002    0.86173951625823975     
   5.5199999999999999E-002    0.88730990886688232     
   5.5499999999999994E-002    0.91267257928848267     
   5.5800000000000002E-002    0.93695056438446045     
   5.6099999999999997E-002    0.95778274536132812     
   5.6400000000000006E-002    0.97160160541534424     
   5.6700000000000000E-002    0.97335058450698853     
   5.6999999999999995E-002    0.95725011825561523     
   5.7300000000000004E-002    0.91700303554534912     
   5.7599999999999998E-002    0.84651267528533936     
   5.7900000000000007E-002    0.74065995216369629     
   5.8200000000000002E-002    0.59586298465728760     
   5.8499999999999996E-002    0.41092798113822937     
   5.8800000000000005E-002    0.18723192811012268     
   5.9100000000000000E-002    -7.0795059204101562E-002
   5.9400000000000008E-002   -0.35563898086547852     
   5.9700000000000003E-002   -0.65732169151306152     
   6.0000000000000012E-002   -0.96333330869674683     
   6.0300000000000006E-002    -1.2599903345108032     
   6.0600000000000001E-002    -1.5330626964569092     
   6.0900000000000010E-002    -1.7688140869140625     
   6.1200000000000004E-002    -1.9551681280136108     
   6.1500000000000013E-002    -2.0820798873901367     
   6.1800000000000008E-002    -2.1428656578063965     
   6.2100000000000002E-002    -2.1338682174682617     
   6.2399999999999997E-002    -2.0549657344818115     
   6.2700000000000006E-002    -1.9094460010528564     
   6.3000000000000000E-002    -1.7030082941055298     
   6.3300000000000009E-002    -1.4440121650695801     
   6.3600000000000004E-002    -1.1418167352676392     
   6.3899999999999998E-002   -0.80681836605072021     
   6.4199999999999993E-002   -0.44947174191474915     
   6.4500000000000002E-002    -7.9560838639736176E-002
   6.4800000000000010E-002    0.29351547360420227     
   6.5100000000000005E-002    0.66161680221557617     
   6.5400000000000000E-002     1.0174313783645630     
   6.5700000000000008E-002     1.3543834686279297     
   6.5999999999999989E-002     1.6667158603668213     
   6.6299999999999998E-002     1.9488677978515625     
   6.6600000000000006E-002     2.1956334114074707     
   6.6900000000000001E-002     2.4017949104309082     
   6.7199999999999996E-002     2.5622138977050781     
   6.7500000000000004E-002     2.6718370914459229     
   6.7800000000000013E-002     2.7259638309478760     
   6.8099999999999994E-002     2.7200531959533691     
   6.8400000000000002E-002     2.6507041454315186     
   6.8700000000000011E-002     2.5153393745422363     
   6.8999999999999992E-002     2.3125004768371582     
   6.9300000000000000E-002     2.0426158905029297     
   6.9600000000000009E-002     1.7072882652282715     
   6.9900000000000004E-002     1.3107075691223145     
   7.0199999999999999E-002    0.85856336355209351     
   7.0500000000000007E-002    0.35913193225860596     
   7.0800000000000016E-002   -0.17690899968147278     
   7.1099999999999997E-002   -0.73690259456634521     
   7.1400000000000005E-002    -1.3050651550292969     
   7.1700000000000000E-002    -1.8642170429229736     
   7.1999999999999995E-002    -2.3950009346008301     
   7.2300000000000003E-002    -2.8768784999847412     
   7.2600000000000012E-002    -3.2895181179046631     
   7.2900000000000006E-002    -3.6128823757171631     
   7.3200000000000001E-002    -3.8296039104461670     
   7.3499999999999996E-002    -3.9253454208374023     
   7.3800000000000004E-002    -3.8907263278961182     
   7.4099999999999999E-002    -3.7224085330963135     
   7.4400000000000008E-002    -3.4234318733215332     
   7.4700000000000003E-002    -3.0042505264282227     
   7.5000000000000011E-002    -2.4817748069763184     
   7.5299999999999992E-002    -1.8792037963867188     
   7.5600000000000001E-002    -1.2244081497192383     
   7.5900000000000009E-002   -0.54812973737716675     
   7.6200000000000004E-002    0.11794631183147430     
   7.6499999999999999E-002    0.74343603849411011     
   7.6800000000000007E-002     1.3015134334564209     
   7.7099999999999988E-002     1.7706693410873413     
   7.7399999999999997E-002     2.1359465122222900     
   7.7700000000000005E-002     2.3897240161895752     
   7.8000000000000014E-002     2.5320944786071777     
   7.8299999999999995E-002     2.5697064399719238     
   7.8600000000000003E-002     2.5150740146636963     
   7.8900000000000012E-002     2.3847875595092773     
   7.9199999999999993E-002     2.1975343227386475     
   7.9500000000000001E-002     1.9722404479980469     
   7.9800000000000010E-002     1.7263911962509155     
   8.0100000000000018E-002     1.4746879339218140     
   8.0399999999999999E-002     1.2275184392929077     
   8.0700000000000008E-002    0.99167525768280029     
   8.1000000000000003E-002    0.76923346519470215     
   8.1299999999999997E-002    0.55903345346450806     
   8.1600000000000006E-002    0.35775548219680786     
   8.1900000000000014E-002    0.16007450222969055     
   8.2199999999999995E-002    -3.8251399993896484E-002
   8.2500000000000004E-002   -0.24108304083347321     
   8.2799999999999999E-002   -0.44970414042472839     
   8.3100000000000007E-002   -0.66230034828186035     
   8.3400000000000002E-002   -0.87508797645568848     
   8.3700000000000011E-002    -1.0802007913589478     
   8.4000000000000005E-002    -1.2687494754791260     
   8.4300000000000000E-002    -1.4299670457839966     
   8.4599999999999995E-002    -1.5526725053787231     
   8.4900000000000003E-002    -1.6271232366561890     
   8.5199999999999998E-002    -1.6443675756454468     
   8.5500000000000007E-002    -1.5993100404739380     
   8.5800000000000001E-002    -1.4892835617065430     
   8.6100000000000010E-002    -1.3157752752304077     
   8.6399999999999991E-002    -1.0840642452239990     
   8.6699999999999999E-002   -0.80272823572158813     
   8.7000000000000008E-002   -0.48377859592437744     
   8.7300000000000003E-002   -0.14120104908943176     
   8.7599999999999997E-002    0.20907561480998993     
   8.7900000000000006E-002    0.55122280120849609     
   8.8200000000000014E-002    0.86897104978561401     
   8.8499999999999995E-002     1.1482727527618408     
   8.8800000000000004E-002     1.3767926692962646     
   8.9100000000000013E-002     1.5444698333740234     
   8.9399999999999993E-002     1.6455863714218140     
   8.9700000000000002E-002     1.6763947010040283     
   9.0000000000000011E-002     1.6378556489944458     
   9.0299999999999991E-002     1.5327341556549072     
   9.0600000000000000E-002     1.3670587539672852     
   9.0900000000000009E-002     1.1494131088256836     
   9.1200000000000017E-002    0.88872289657592773     
   9.1499999999999998E-002    0.59659928083419800     
   9.1800000000000007E-002    0.28400450944900513     
   9.2100000000000001E-002    -3.7465102970600128E-002
   9.2399999999999996E-002   -0.35566592216491699     
   9.2700000000000005E-002   -0.65987068414688110     
   9.3000000000000013E-002   -0.93830466270446777     
   9.3300000000000008E-002    -1.1807434558868408     
   9.3600000000000003E-002    -1.3770236968994141     
   9.3899999999999997E-002    -1.5180932283401489     
   9.4200000000000006E-002    -1.5964422225952148     
   9.4500000000000001E-002    -1.6057159900665283     
   9.4800000000000009E-002    -1.5425015687942505     
   9.5100000000000004E-002    -1.4056090116500854     
   9.5399999999999999E-002    -1.1973459720611572     
   9.5699999999999993E-002   -0.92331218719482422     
   9.6000000000000002E-002   -0.59248536825180054     
   9.6300000000000011E-002   -0.21736910939216614     
   9.6600000000000005E-002    0.18723693490028381     
   9.6900000000000000E-002    0.60364669561386108     
   9.7200000000000009E-002     1.0135136842727661     
   9.7499999999999989E-002     1.3976600170135498     
   9.7799999999999998E-002     1.7377146482467651     
   9.8100000000000007E-002     2.0169327259063721     
   9.8400000000000015E-002     2.2206943035125732     
   9.8699999999999996E-002     2.3379073143005371     
   9.9000000000000005E-002     2.3602161407470703     
   9.9300000000000013E-002     2.2836227416992188     
   9.9599999999999994E-002     2.1081211566925049     
   9.9900000000000003E-002     1.8373495340347290     
  0.10020000000000001          1.4794386625289917     
  0.10049999999999999          1.0458166599273682     
  0.10080000000000000         0.55170148611068726     
  0.10110000000000001          1.5205478295683861E-002
  0.10140000000000000        -0.54265272617340088     
  0.10170000000000000         -1.0990362167358398     
  0.10200000000000001         -1.6303341388702393     
  0.10230000000000002         -2.1124804019927979     
  0.10260000000000000         -2.5224649906158447     
  0.10290000000000001         -2.8400526046752930     
  0.10320000000000000         -3.0480997562408447     
  0.10350000000000001         -3.1345021724700928     
  0.10380000000000000         -3.0929920673370361     
  0.10410000000000001         -2.9232187271118164     
  0.10440000000000001         -2.6320481300354004     
  0.10470000000000000         -2.2318449020385742     
  0.10500000000000000         -1.7410748004913330     
  0.10530000000000000         -1.1830108165740967     
  0.10560000000000000        -0.58299320936203003     
  0.10590000000000001          3.0815351754426956E-002
  0.10620000000000000         0.63161391019821167     
  0.10650000000000001          1.1938737630844116     
  0.10679999999999999          1.6952989101409912     
  0.10710000000000000          2.1176190376281738     
  0.10740000000000001          2.4469399452209473     
  0.10770000000000000          2.6747703552246094     
  0.10800000000000000          2.7964665889739990     
  0.10830000000000001          2.8123512268066406     
  0.10859999999999999          2.7260475158691406     
  0.10890000000000000          2.5442042350769043     
  0.10920000000000001          2.2759025096893311     
  0.10950000000000001          1.9320234060287476     
  0.10979999999999999          1.5251790285110474     
  0.11009999999999999          1.0692360401153564     
  0.11040000000000001         0.57955574989318848     
  0.11070000000000001          7.3012806475162506E-002
  0.11100000000000000        -0.43257525563240051     
  0.11130000000000000        -0.91786146163940430     
  0.11160000000000002         -1.3631535768508911     
  0.11190000000000001         -1.7480036020278931     
  0.11220000000000001         -2.0532016754150391     
  0.11250000000000000         -2.2611832618713379     
  0.11280000000000000         -2.3568217754364014     
  0.11309999999999999         -2.3303756713867188     
  0.11340000000000001         -2.1764097213745117     
  0.11369999999999998         -1.8973537683486938     
  0.11400000000000000         -1.5026394128799438     
  0.11430000000000000         -1.0088877677917480     
  0.11460000000000002        -0.44143658876419067     
  0.11489999999999999         0.16917409002780914     
  0.11520000000000001         0.78588831424713135     
  0.11550000000000001          1.3696845769882202     
  0.11580000000000000          1.8809410333633423     
  0.11609999999999999          2.2819490432739258     
  0.11640000000000002          2.5419151782989502     
  0.11670000000000001          2.6373548507690430     
  0.11700000000000001          2.5556895732879639     
  0.11730000000000000          2.2972264289855957     
  0.11760000000000000          1.8745571374893188     
  0.11789999999999999          1.3134074211120605     
  0.11820000000000001         0.64991384744644165     
  0.11850000000000001         -7.1077920496463776E-002
  0.11880000000000000        -0.79984259605407715     
  0.11910000000000000         -1.4859752655029297     
  0.11940000000000002         -2.0817589759826660     
  0.11970000000000001         -2.5471453666687012     
  0.12000000000000001         -2.8521227836608887     
  0.12030000000000000         -2.9790368080139160     
  0.12060000000000000         -2.9249997138977051     
  0.12089999999999999         -2.7001507282257080     
  0.12119999999999999         -2.3275723457336426     
  0.12150000000000001         -1.8404359817504883     
  0.12180000000000001         -1.2786471843719482     
  0.12210000000000000        -0.68565976619720459     
  0.12239999999999999        -0.10492162406444550     
  0.12270000000000002         0.42498743534088135     
  0.12300000000000001         0.87133526802062988     
  0.12330000000000001          1.2100827693939209     
  0.12360000000000000          1.4280953407287598     
  0.12390000000000000          1.5211426019668579     
  0.12419999999999999          1.4954442977905273     
  0.12450000000000001          1.3652176856994629     
  0.12480000000000001          1.1507376432418823     
  0.12509999999999999         0.87746411561965942     
  0.12540000000000001         0.57177186012268066     
  0.12570000000000003         0.26150926947593689     
  0.12600000000000000         -2.8171308338642120E-002
  0.12630000000000002        -0.27456605434417725     
  0.12659999999999999        -0.45950785279273987     
  0.12690000000000001        -0.57021468877792358     
  0.12719999999999998        -0.59864002466201782     
  0.12750000000000000        -0.54360610246658325     
  0.12780000000000002        -0.40850302577018738     
  0.12809999999999999        -0.20259043574333191     
  0.12840000000000001          6.0603037476539612E-002
  0.12869999999999998         0.36412170529365540     
  0.12900000000000000         0.68800139427185059     
  0.12930000000000003          1.0119791030883789     
  0.12959999999999999          1.3150278329849243     
  0.12990000000000002          1.5795514583587646     
  0.13019999999999998          1.7891037464141846     
  0.13050000000000000          1.9332475662231445     
  0.13080000000000003          2.0059120655059814     
  0.13109999999999999          2.0050790309906006     
  0.13140000000000002          1.9354157447814941     
  0.13169999999999998          1.8035347461700439     
  0.13200000000000001          1.6206624507904053     
  0.13229999999999997          1.3980994224548340     
  0.13260000000000000          1.1472090482711792     
  0.13290000000000002         0.87872231006622314     
  0.13319999999999999         0.59907138347625732     
  0.13350000000000001         0.31404381990432739     
  0.13380000000000003          2.4284865707159042E-002
  0.13410000000000000        -0.27009850740432739     
  0.13440000000000002        -0.57089108228683472     
  0.13469999999999999        -0.87958645820617676     
  0.13500000000000001         -1.1956648826599121     
  0.13529999999999998         -1.5165832042694092     
  0.13560000000000000         -1.8354159593582153     
  0.13590000000000002         -2.1429615020751953     
  0.13619999999999999         -2.4257678985595703     
  0.13650000000000001         -2.6704075336456299     
  0.13680000000000003         -2.8621742725372314     
  0.13710000000000000         -2.9884693622589111     
  0.13740000000000002         -3.0420393943786621     
  0.13769999999999999         -3.0184597969055176     
  0.13800000000000001         -2.9220867156982422     
  0.13829999999999998         -2.7616856098175049     
  0.13860000000000000         -2.5521028041839600     
  0.13890000000000002         -2.3122644424438477     
  0.13919999999999999         -2.0607776641845703     
  0.13950000000000001         -1.8182021379470825     
  0.13979999999999998         -1.5979720354080200     
  0.14010000000000000         -1.4093443155288696     
  0.14040000000000002         -1.2538626194000244     
  0.14069999999999999         -1.1230175495147705     
  0.14100000000000001         -1.0031707286834717     
  0.14130000000000004        -0.87115627527236938     
  0.14160000000000000        -0.70208352804183960     
  0.14189999999999997        -0.46844938397407532     
  0.14219999999999999        -0.14524993300437927     
  0.14250000000000002         0.28514766693115234     
  0.14279999999999998         0.83482068777084351     
  0.14310000000000000          1.5023773908615112     
  0.14339999999999997          2.2766745090484619     
  0.14369999999999999          3.1337630748748779     
  0.14400000000000002          4.0389089584350586     
  0.14429999999999998          4.9503407478332520     
  0.14460000000000001          5.8188414573669434     
  0.14490000000000003          6.5951795578002930     
  0.14520000000000000          7.2306551933288574     
  0.14550000000000002          7.6815147399902344     
  0.14579999999999999          7.9125247001647949     
  0.14610000000000001          7.8978381156921387     
  0.14640000000000003          7.6245803833007812     
  0.14670000000000000          7.0896129608154297     
  0.14699999999999996          6.3040184974670410     
  0.14729999999999999          5.2876048088073730     
  0.14760000000000001          4.0702366828918457     
  0.14789999999999998          2.6904001235961914     
  0.14820000000000000          1.1895831823348999     