  -1.4999999999999999E-002     0.0000000000000000     
  -1.4700000000000000E-002     0.0000000000000000     
  -1.4400000000000000E-002     0.0000000000000000     
  -1.4100000000000000E-002     0.0000000000000000     
  -1.3800000000000000E-002     0.0000000000000000     
  -1.3500000000000000E-002     0.0000000000000000     
  -1.3200000000000000E-002     0.0000000000000000     
  -1.2899999999999998E-002     0.0000000000000000     
  -1.2600000000000000E-002     0.0000000000000000     
  -1.2299999999999998E-002     0.0000000000000000     
  -1.2000000000000000E-002     0.0000000000000000     
  -1.1699999999999999E-002     0.0000000000000000     
  -1.1399999999999999E-002     0.0000000000000000     
  -1.1099999999999999E-002     0.0000000000000000     
  -1.0799999999999999E-002     0.0000000000000000     
  -1.0499999999999999E-002     0.0000000000000000     
  -1.0199999999999999E-002     0.0000000000000000     
  -9.8999999999999991E-003     0.0000000000000000     
  -9.5999999999999992E-003     0.0000000000000000     
  -9.2999999999999992E-003     0.0000000000000000     
  -8.9999999999999993E-003     0.0000000000000000     
  -8.6999999999999994E-003     0.0000000000000000     
  -8.3999999999999995E-003     0.0000000000000000     
  -8.0999999999999996E-003     0.0000000000000000     
  -7.7999999999999988E-003     0.0000000000000000     
  -7.4999999999999997E-003     0.0000000000000000     
  -7.1999999999999998E-003     0.0000000000000000     
  -6.8999999999999981E-003     0.0000000000000000     
  -6.5999999999999982E-003     0.0000000000000000     
  -6.3000000000000000E-003     0.0000000000000000     
  -6.0000000000000001E-003     0.0000000000000000     
  -5.6999999999999985E-003     0.0000000000000000     
  -5.3999999999999986E-003     0.0000000000000000     
  -5.1000000000000004E-003     0.0000000000000000     
  -4.7999999999999987E-003     0.0000000000000000     
  -4.5000000000000005E-003     0.0000000000000000     
  -4.1999999999999989E-003     0.0000000000000000     
  -3.8999999999999990E-003     0.0000000000000000     
  -3.5999999999999990E-003     0.0000000000000000     
  -3.2999999999999991E-003     0.0000000000000000     
  -2.9999999999999992E-003     0.0000000000000000     
  -2.6999999999999993E-003     0.0000000000000000     
  -2.3999999999999994E-003     0.0000000000000000     
  -2.0999999999999977E-003     0.0000000000000000     
  -1.7999999999999995E-003     0.0000000000000000     
  -1.4999999999999979E-003     0.0000000000000000     
  -1.1999999999999997E-003     0.0000000000000000     
  -8.9999999999999976E-004     0.0000000000000000     
  -5.9999999999999810E-004     0.0000000000000000     
  -2.9999999999999992E-004     0.0000000000000000     
   0.0000000000000000          0.0000000000000000     
   3.0000000000000165E-004     0.0000000000000000     
   5.9999999999999984E-004     0.0000000000000000     
   9.0000000000000149E-004     0.0000000000000000     
   1.2000000000000031E-003     0.0000000000000000     
   1.5000000000000013E-003     0.0000000000000000     
   1.8000000000000030E-003     0.0000000000000000     
   2.1000000000000012E-003     1.6210719847887400E-038
   2.3999999999999994E-003    -3.8400649447275172E-038
   2.7000000000000010E-003    -8.9617670342314827E-037
   2.9999999999999992E-003     1.3820827601583340E-036
   3.3000000000000008E-003     7.6013535864346093E-036
   3.6000000000000025E-003    -4.8419474608337613E-037
   3.9000000000000007E-003     4.4923006548916097E-035
   4.2000000000000023E-003     1.5433347044504925E-036
   4.5000000000000005E-003    -4.3978399411817025E-034
   4.7999999999999987E-003     1.8445727587695624E-033
   5.1000000000000004E-003    -2.3614237828036576E-034
   5.4000000000000020E-003    -1.4456873411000165E-032
   5.7000000000000037E-003     3.1323699453465450E-032
   5.9999999999999984E-003     1.4957969861187397E-032
   6.3000000000000000E-003    -1.9385183121527576E-031
   6.6000000000000017E-003     4.1043623351121908E-031
   6.9000000000000034E-003    -1.7155264831112350E-031
   7.2000000000000015E-003    -1.4852279727292077E-030
   7.5000000000000032E-003     4.7835964412424839E-030
   7.8000000000000014E-003    -6.0092903189791125E-030
   8.0999999999999996E-003    -2.3894759416573685E-030
   8.4000000000000012E-003     1.8653101669212939E-029
   8.7000000000000029E-003    -1.7066848962968181E-029
   9.0000000000000011E-003     4.5744885513412192E-030
   9.2999999999999992E-003    -3.2065197876333095E-028
   9.6000000000000009E-003     2.4665186398848622E-027
   9.8999999999999991E-003    -1.0088352306093433E-026
   1.0200000000000001E-002     2.4043249347638901E-026
   1.0500000000000002E-002    -4.5968844915278456E-027
   1.0800000000000004E-002    -2.6857327610612407E-025
   1.1099999999999999E-002     1.5466072681562872E-024
   1.1400000000000000E-002    -5.8227286998597664E-024
   1.1700000000000002E-002     1.8192953910722112E-023
   1.2000000000000004E-002    -5.3985287590469264E-023
   1.2300000000000002E-002     1.5898168254185149E-022
   1.2600000000000000E-002    -3.9064166241945210E-022
   1.2900000000000002E-002     1.5196399869286912E-022
   1.3200000000000000E-002     6.9312912301043129E-021
   1.3500000000000002E-002    -6.1546254038740549E-020
   1.3800000000000003E-002     3.7444554546847756E-019
   1.4100000000000001E-002    -1.9162399440257531E-018
   1.4400000000000000E-002     8.8378044625123216E-018
   1.4700000000000001E-002    -3.7973117584779606E-017
   1.4999999999999999E-002     1.5430441822212855E-016
   1.5300000000000001E-002    -5.9323425199211084E-016
   1.5600000000000003E-002     2.1252507521978748E-015
   1.5899999999999997E-002    -6.8378456773941799E-015
   1.6199999999999999E-002     1.8176894097753064E-014
   1.6500000000000001E-002    -3.0035573228263301E-014
   1.6800000000000002E-002    -4.2366887493307199E-014
   1.7100000000000004E-002     6.2896665668298117E-013
   1.7400000000000006E-002    -3.1286295460427408E-012
   1.7700000000000000E-002     1.0059307909063205E-011
   1.8000000000000002E-002    -1.9324332727823953E-011
   1.8300000000000004E-002    -4.3001568691842110E-013
   1.8600000000000005E-002     1.4720132154965231E-010
   1.8900000000000000E-002    -4.9729121266678176E-010
   1.9200000000000002E-002     5.6617100166058972E-010
   1.9500000000000003E-002     1.3458857243481102E-009
   1.9799999999999998E-002    -5.7878524541000716E-009
   2.0100000000000000E-002     4.0494258091003090E-009
   2.0400000000000001E-002     1.8494361648627860E-008
   2.0700000000000003E-002    -3.4449819660996692E-008
   2.0999999999999998E-002    -4.4033966165904206E-008
   2.1299999999999999E-002     1.1957026465867422E-007
   2.1600000000000001E-002     1.4167815854981377E-007
   2.1900000000000003E-002    -2.9985593530363358E-007
   2.2200000000000004E-002    -6.2174460866529181E-007
   2.2500000000000006E-002     5.6404906740867839E-007
   2.2800000000000001E-002     4.1938715844498414E-006
   2.3100000000000002E-002     9.9740043757509515E-006
   2.3400000000000004E-002     1.7318033783519709E-005
   2.3699999999999999E-002     2.6667560599059220E-005
   2.4000000000000000E-002     3.9931850786998572E-005
   2.4300000000000002E-002     6.0542589565109640E-005
   2.4599999999999997E-002     9.3191981835419237E-005
   2.4900000000000005E-002     1.4354424451486908E-004
   2.5200000000000000E-002     2.1865849649434829E-004
   2.5499999999999995E-002     3.2804852592432758E-004
   2.5800000000000003E-002     4.8528828710209075E-004
   2.6099999999999998E-002     7.0932132615670121E-004
   2.6400000000000007E-002     1.0244745407947051E-003
   2.6700000000000002E-002     1.4597584731004323E-003
   2.6999999999999996E-002     2.0487658872503228E-003
   2.7300000000000005E-002     2.8306022567309436E-003
   2.7600000000000000E-002     3.8502319197231127E-003
   2.7900000000000008E-002     5.1566787917899926E-003
   2.8200000000000003E-002     6.7991617116341663E-003
   2.8499999999999998E-002     8.8220085980160734E-003
   2.8800000000000006E-002     1.1258474761118797E-002
   2.9100000000000001E-002     1.4122815444619574E-002
   2.9400000000000003E-002     1.7401129734375687E-002
   2.9700000000000004E-002     2.1042422372437031E-002
   3.0000000000000006E-002     2.4949641112305354E-002
   3.0300000000000001E-002     2.8971794571692966E-002
   3.0600000000000002E-002     3.2897818225362307E-002
   3.0900000000000004E-002     3.6459835716273536E-002
   3.1199999999999999E-002     3.9343658679299454E-002
   3.1500000000000007E-002     4.1203137851405280E-002
   3.1800000000000002E-002     4.1689697409379223E-002
   3.2099999999999997E-002     4.0486933801320513E-002
   3.2400000000000005E-002     3.7356348659322469E-002
   3.2700000000000000E-002     3.2191493233318269E-002
   3.3000000000000002E-002     2.5059799535258387E-002
   3.3300000000000003E-002     1.6249714095816936E-002
   3.3599999999999998E-002     6.3006511026201806E-003
   3.3900000000000000E-002    -3.9933193415218754E-003
   3.4200000000000001E-002    -1.3601490136859296E-002
   3.4500000000000003E-002    -2.1317551428431170E-002
   3.4799999999999998E-002    -2.5851566934268377E-002
   3.5099999999999999E-002    -2.5941555869590238E-002
   3.5400000000000001E-002    -2.0517047677393957E-002
   3.5699999999999996E-002    -8.8578887304118781E-003
   3.6000000000000004E-002     9.2637483967279721E-003
   3.6299999999999999E-002     3.3428488256079580E-002
   3.6600000000000008E-002     6.2490926909428257E-002
   3.6900000000000002E-002     9.4553171743323450E-002
   3.7199999999999997E-002    0.12699202222488282     
   3.7500000000000006E-002    0.15660709543208462     
   3.7800000000000000E-002    0.17980294641220507     
   3.8100000000000009E-002    0.19286238470770467     
   3.8400000000000004E-002    0.19227626155050537     
   3.8699999999999998E-002    0.17504717461050268     
   3.9000000000000007E-002    0.13904043989112114     
   3.9300000000000002E-002     8.3224308300313687E-002
   3.9600000000000003E-002     7.8977401822186710E-003
   3.9900000000000005E-002    -8.5219675298374042E-002
   4.0200000000000000E-002   -0.19302330146737745     
   4.0500000000000001E-002   -0.31114011926963769     
   4.0800000000000003E-002   -0.43417414222919426     
   4.1100000000000005E-002   -0.55603688026710785     
   4.1399999999999999E-002   -0.67031397980676033     
   4.1700000000000008E-002   -0.77068027802447148     
   4.2000000000000003E-002   -0.85130411773277359     
   4.2299999999999997E-002   -0.90722224427515030     
   4.2600000000000006E-002   -0.93464211049793278     
   4.2900000000000001E-002   -0.93115083139862165     
   4.3200000000000002E-002   -0.89582903485002419     
   4.3500000000000004E-002   -0.82927784778544478     
   4.3799999999999999E-002   -0.73352068463332643     
   4.4100000000000000E-002   -0.61186146050168233     
   4.4400000000000002E-002   -0.46866334171779123     
   4.4700000000000004E-002   -0.30907138410303903     
   4.4999999999999998E-002   -0.13867613865799377     
   4.5300000000000000E-002     3.6724901185868741E-002
   4.5600000000000002E-002    0.21150203390209654     
   4.5899999999999996E-002    0.38043919129485282     
   4.6200000000000005E-002    0.53892403363794372     
   4.6500000000000000E-002    0.68324697489093111     
   4.6799999999999994E-002    0.81062364046325541     
   4.7100000000000003E-002    0.91931939724462453     
   4.7399999999999998E-002     1.0086906700849241     
   4.7700000000000006E-002     1.0790099177856263     
   4.8000000000000001E-002     1.1314774502491005     
   4.8300000000000010E-002     1.1679256343753508     
   4.8600000000000004E-002     1.1906184641019095     
   4.8899999999999999E-002     1.2019740776851933     
   4.9200000000000008E-002     1.2040965419164777     
   4.9500000000000002E-002     1.1987004791018521     
   4.9800000000000011E-002     1.1865481816360770     
   5.0100000000000006E-002     1.1673086040104650     
   5.0400000000000000E-002     1.1394910751596186     
   5.0700000000000009E-002     1.1001684039508106     
   5.1000000000000004E-002     1.0453700844278799     
   5.1299999999999998E-002    0.97023836592677881     
   5.1600000000000007E-002    0.86938705723356691     
   5.1900000000000002E-002    0.73772941401596270     
   5.2200000000000010E-002    0.57084360253591981     
   5.2500000000000005E-002    0.36602886819791858     
   5.2800000000000000E-002    0.12282142640005578     
   5.3099999999999994E-002   -0.15660675565987070     
   5.3400000000000003E-002   -0.46667213854327727     
   5.3699999999999998E-002   -0.79872104640726604     
   5.4000000000000006E-002    -1.1410233701607524     
   5.4300000000000001E-002    -1.4791991217259337     
   5.4599999999999996E-002    -1.7972649574613442     
   5.4900000000000004E-002    -2.0784791899485668     
   5.5199999999999999E-002    -2.3066707632836199     
   5.5499999999999994E-002    -2.4673469472249252     
   5.5800000000000002E-002    -2.5488954179152898     
   5.6099999999999997E-002    -2.5434601066160951     
   5.6400000000000006E-002    -2.4474827288806011     
   5.6700000000000000E-002    -2.2621667664935217     
   5.6999999999999995E-002    -1.9932129869362569     
   5.7300000000000004E-002    -1.6504009145098451     
   5.7599999999999998E-002    -1.2469024372064155     
   5.7900000000000007E-002   -0.79817146067607947     
   5.8200000000000002E-002   -0.32089929252040150     
   5.8499999999999996E-002    0.16801557640451170     
   5.8800000000000005E-002    0.65247344649180405     
   5.9100000000000000E-002     1.1178481943335115     
   5.9400000000000008E-002     1.5518350198725628     
   5.9700000000000003E-002     1.9441935257596299     
   6.0000000000000012E-002     2.2870615728621715     
   6.0300000000000006E-002     2.5747884963799095     
   6.0600000000000001E-002     2.8030000657387717     
   6.0900000000000010E-002     2.9688468238453254     
   6.1200000000000004E-002     3.0699773943393183     
   6.1500000000000013E-002     3.1043205703772969     
   6.1800000000000008E-002     3.0700261649051299     
   6.2100000000000002E-002     2.9649323585195759     
   6.2399999999999997E-002     2.7873285538065176     
   6.2700000000000006E-002     2.5357326877606496     
   6.3000000000000000E-002     2.2094751153326939     
   6.3300000000000009E-002     1.8094858905902171     
   6.3600000000000004E-002     1.3385802912780580     
   6.3899999999999998E-002    0.80222637629444460     
   6.4199999999999993E-002    0.20893854293492353     
   6.4500000000000002E-002   -0.42934951451920611     
   6.4800000000000010E-002    -1.0971842041385607     
   6.5100000000000005E-002    -1.7756554117151424     
   6.5400000000000000E-002    -2.4429640043566963     
   6.5700000000000008E-002    -3.0746790552204430     
   6.5999999999999989E-002    -3.6450467205338128     
   6.6299999999999998E-002    -4.1282326851321614     
   6.6600000000000006E-002    -4.4992858204154231     
   6.6900000000000001E-002    -4.7362506661819452     
   6.7199999999999996E-002    -4.8211755764498889     
   6.7500000000000004E-002    -4.7419037925981229     
   6.7800000000000013E-002    -4.4935566737750037     
   6.8099999999999994E-002    -4.0788034931463812     
   6.8400000000000002E-002    -3.5093619316762670     
   6.8700000000000011E-002    -2.8051951086357789     
   6.8999999999999992E-002    -1.9940261441410918     
   6.9300000000000000E-002    -1.1107131297346822     
   6.9600000000000009E-002   -0.19473072241604861     
   6.9900000000000004E-002    0.71133884162308192     
   7.0199999999999999E-002     1.5647501111251643     
   7.0500000000000007E-002     2.3252603630678976     
   7.0800000000000016E-002     2.9569832158921656     
   7.1099999999999997E-002     3.4318093566951120     
   7.1400000000000005E-002     3.7302818689832975     
   7.1700000000000000E-002     3.8431990363827708     
   7.1999999999999995E-002     3.7720311664534165     
   7.2300000000000003E-002     3.5283134450455407     
   7.2600000000000012E-002     3.1331627392022057     
   7.2900000000000006E-002     2.6149410670995366     
   7.3200000000000001E-002     2.0075835849283195     
   7.3499999999999996E-002     1.3480418396520406     
   7.3800000000000004E-002    0.67342795799441824     
   7.4099999999999999E-002     1.9231163519749295E-002
   7.4400000000000008E-002   -0.58313758281460437     
   7.4700000000000003E-002    -1.1080601982148295     
   7.5000000000000011E-002    -1.5359137678846508     
   7.5299999999999992E-002    -1.8543755347314388     
   7.5600000000000001E-002    -2.0575326640367706     
   7.5900000000000009E-002    -2.1454892707933197     
   7.6200000000000004E-002    -2.1237542289573526     
   7.6499999999999999E-002    -2.0012843736128119     
   7.6800000000000007E-002    -1.7904876744054761     
   7.7099999999999988E-002    -1.5055340267579709     
   7.7399999999999997E-002    -1.1614765289930524     
   7.7700000000000005E-002   -0.77421962100506025     
   7.8000000000000014E-002   -0.35945326743370920     
   7.8299999999999995E-002     6.6831483044981654E-002
   7.8600000000000003E-002    0.48905720246328421     
   7.8900000000000012E-002    0.89221497933424132     
   7.9199999999999993E-002     1.2615974262595628     
   7.9500000000000001E-002     1.5840660215669473     
   7.9800000000000010E-002     1.8480527634684663     
   8.0100000000000018E-002     2.0443773497895066     
   8.0399999999999999E-002     2.1670415413464355     
   8.0700000000000008E-002     2.2132341757500171     
   8.1000000000000003E-002     2.1843148021877141     
   8.1299999999999997E-002     2.0854699253810054     
   8.1600000000000006E-002     1.9254097515931150     
   8.1900000000000014E-002     1.7159352250162954     
   8.2199999999999995E-002     1.4705450683261247     
   8.2500000000000004E-002     1.2035714558081168     
   8.2799999999999999E-002    0.92886018602579412     
   8.3100000000000007E-002    0.65839701241367887     
   8.3400000000000002E-002    0.40198111393859604     
   8.3700000000000011E-002    0.16600997311028820     
   8.4000000000000005E-002    -4.6104110290547395E-002
   8.4300000000000000E-002   -0.23385944717696994     
   8.4599999999999995E-002   -0.39881434305620722     
   8.4900000000000003E-002   -0.54339228043322940     
   8.5199999999999998E-002   -0.67036632269286045     
   8.5500000000000007E-002   -0.78134740036313488     
   8.5800000000000001E-002   -0.87622779093825898     
   8.6100000000000010E-002   -0.95267315695067367     
   8.6399999999999991E-002    -1.0063990360666288     
   8.6699999999999999E-002    -1.0317868630036457     
   8.7000000000000008E-002    -1.0220430976242803     
   8.7300000000000003E-002   -0.97152518386055675     
   8.7599999999999997E-002   -0.87626179583848440     
   8.7900000000000006E-002   -0.73463223300758429     
   8.8200000000000014E-002   -0.54928159405993826     
   8.8499999999999995E-002   -0.32634310062471261     
   8.8800000000000004E-002    -7.5909465437445256E-002
   8.9100000000000013E-002    0.18846859308349728     
   8.9399999999999993E-002    0.45171127556226587     
   8.9700000000000002E-002    0.69729734209052197     
   9.0000000000000011E-002    0.90994809884517025     
   9.0299999999999991E-002     1.0760339067030777     
   9.0600000000000000E-002     1.1846203979536725     
   9.0900000000000009E-002     1.2294409621965805     
   9.1200000000000017E-002     1.2069058537604462     
   9.1499999999999998E-002     1.1176642425302141     
   9.1800000000000007E-002    0.96584582231519711     
   9.2100000000000001E-002    0.75686426018905451     
   9.2399999999999996E-002    0.49886667757312964     
   9.2700000000000005E-002    0.19955691990198687     
   9.3000000000000013E-002   -0.13287685729233933     
   9.3300000000000008E-002   -0.49005153602368523     
   9.3600000000000003E-002   -0.86513420930861784     
   9.3899999999999997E-002    -1.2496547546625791     
   9.4200000000000006E-002    -1.6353749673292128     
   9.4500000000000001E-002    -2.0126743223990857     
   9.4800000000000009E-002    -2.3693577952832499     
   9.5100000000000004E-002    -2.6926483279023046     
   9.5399999999999999E-002    -2.9660228186415054     
   9.5699999999999993E-002    -3.1724550640699363     
   9.6000000000000002E-002    -3.2944546127483534     
   9.6300000000000011E-002    -3.3138460413198203     
   9.6600000000000005E-002    -3.2168475999079504     
   9.6900000000000000E-002    -2.9924853258581621     
   9.7200000000000009E-002    -2.6365647956919602     
   9.7499999999999989E-002    -2.1527848130676155     
   9.7799999999999998E-002    -1.5525119439854365     
   9.8100000000000007E-002   -0.85791001024246327     
   9.8400000000000015E-002    -9.8294303258123605E-002
   9.8699999999999996E-002    0.68839111299205769     
   9.9000000000000005E-002     1.4586961223077282     
   9.9300000000000013E-002     2.1676033367095542     
   9.9599999999999994E-002     2.7690790682918163     
   9.9900000000000003E-002     3.2232065762454454     
  0.10020000000000001          3.4971656526004722     
  0.10049999999999999          3.5694588117747514     
  0.10080000000000000          3.4328904167267211     
  0.10110000000000001          3.0945635962870810     
  0.10140000000000000          2.5782739331830982     
  0.10170000000000000          1.9212425456987567     
  0.10200000000000001          1.1730101692997934     
  0.10230000000000002         0.39184279740237926     
  0.10260000000000000        -0.36073198573079512     
  0.10290000000000001         -1.0234019566583719     
  0.10320000000000000         -1.5413868733028480     
  0.10350000000000001         -1.8701261987425539     
  0.10380000000000000         -1.9796864377052685     
  0.10410000000000001         -1.8574598819355259     
  0.10440000000000001         -1.5090641637177189     
  0.10470000000000000        -0.95850642619663162     
  0.10500000000000000        -0.24614644194071467     
  0.10530000000000000         0.57360653678609275     
  0.10560000000000000          1.4372657616312310     
  0.10590000000000001          2.2767573981940359     
  0.10620000000000000          3.0242594949297228     
  0.10650000000000001          3.6181764156679890     
  0.10679999999999999          4.0067369661155539     
  0.10710000000000000          4.1528983437431464     
  0.10740000000000001          4.0362968235846495     
  0.10770000000000000          3.6549102187254903     
  0.10800000000000000          3.0259125371895195     
  0.10830000000000001          2.1833700124102586     
  0.10859999999999999          1.1765549953250982     
  0.10890000000000000          6.6439137568146123E-002
  0.10920000000000001         -1.0791673556507746     
  0.10950000000000001         -2.1893728753923867     
  0.10979999999999999         -3.1956727923610231     
  0.11009999999999999         -4.0366287125831235     
  0.11040000000000001         -4.6611558515314186     
  0.11070000000000001         -5.0332021010557924     
  0.11100000000000000         -5.1329232906481650     
  0.11130000000000000         -4.9579098551997873     
  0.11160000000000002         -4.5240909049397118     
  0.11190000000000001         -3.8623123099977548     
  0.11220000000000001         -3.0182217059217251     
  0.11250000000000000         -2.0472413214152940     
  0.11280000000000000         -1.0102890253516819     
  0.11309999999999999          2.9047781254051941E-002
  0.11340000000000001          1.0113374626766607     
  0.11369999999999998          1.8834892072645388     
  0.11400000000000000          2.6027794905192536     
  0.11430000000000000          3.1402339791104481     
  0.11460000000000002          3.4803180939276785     
  0.11489999999999999          3.6223409959468285     
  0.11520000000000001          3.5784597587012854     
  0.11550000000000001          3.3721002100023867     
  0.11580000000000000          3.0347312262378807     
  0.11609999999999999          2.6025285955660635     
  0.11640000000000002          2.1129193890267501     
  0.11670000000000001          1.6018334982262594     
  0.11700000000000001          1.1002994089714151     
  0.11730000000000000         0.63327512771147809     
  0.11760000000000000         0.21861165065434918     
  0.11789999999999999        -0.13400460116813195     
  0.11820000000000001        -0.42074291153031673     
  0.11850000000000001        -0.64467268102858455     
  0.11880000000000000        -0.81303350455267065     
  0.11910000000000000        -0.93572892222977444     
  0.11940000000000002         -1.0262717830246757     
  0.11970000000000001         -1.0974476305943170     
  0.12000000000000001         -1.1635015368077291     
  0.12030000000000000         -1.2383857031535328     
  0.12060000000000000         -1.3349140038993852     
  0.12089999999999999         -1.4656711757812317     
  0.12119999999999999         -1.6408818538119121     
  0.12150000000000001         -1.8689861605301559     
  0.12180000000000001         -2.1548581344961590     
  0.12210000000000000         -2.4980169095978795     
  0.12239999999999999         -2.8931751688842695     
  0.12270000000000002         -3.3275472803594681     
  0.12300000000000001         -3.7813194294652419     
  0.12330000000000001         -4.2280771116818130     
  0.12360000000000000         -4.6345454216311452     
  0.12390000000000000         -4.9640311440865901     
  0.12419999999999999         -5.1777377126576312     
  0.12450000000000001         -5.2374590277689634     
  0.12480000000000001         -5.1103332989945045     
  0.12509999999999999         -4.7701706661482959     
  0.12540000000000001         -4.2013509947977035     
  0.12570000000000003         -3.4000293021193926     
  0.12600000000000000         -2.3750321811361346     
  0.12630000000000002         -1.1484128222753114     
  0.12659999999999999         0.24566727038695646     
  0.12690000000000001          1.7638827400815984     
  0.12719999999999998          3.3548877382509517     
  0.12750000000000000          4.9625644445899013     
  0.12780000000000002          6.5299919286834722     
  0.12809999999999999          8.0004873469094946     
  0.12840000000000001          9.3217051885133060     
  0.12869999999999998          10.445865800741331     
  0.12900000000000000          11.331846658927020     
  0.12930000000000003          11.946735905755759     
  0.12959999999999999          12.263717619969214     
  0.12990000000000002          12.265548640661734     
  0.13019999999999998          11.942450294095579     
  0.13050000000000000          11.292962804029230     
  0.13080000000000003          10.324845890316169     
  0.13109999999999999          9.0537705832497437     
  0.13140000000000002          7.5062485240983676     
  0.13169999999999998          5.7174166719803878     
  0.13200000000000001          3.7314516386168179     
  0.13229999999999997          1.6019120205584017     
  0.13260000000000000        -0.61042281548787081     
  0.13290000000000002         -2.8388806917151754     
  0.13319999999999999         -5.0138092465207933     
  0.13350000000000001         -7.0651188865280119     
  0.13380000000000003         -8.9258870428430157     
  0.13410000000000000         -10.534908873026666     
  0.13440000000000002         -11.840647022839619     
  0.13469999999999999         -12.802593389734284     
  0.13500000000000001         -13.393541209758325     
  0.13529999999999998         -13.601307598171957     
  0.13560000000000000         -13.426487684147048     
  0.13590000000000002         -12.884631599630183     
  0.13619999999999999         -12.002947200744217     
  0.13650000000000001         -10.818512829408405     
  0.13680000000000003         -9.3779964936107802     
  0.13710000000000000         -7.7326124789149677     
  0.13740000000000002         -5.9394485569086299     
  0.13769999999999999         -4.0576501978277975     
  0.13800000000000001         -2.1467512686851933     
  0.13829999999999998        -0.26797201489375766     
  0.13860000000000000          1.5207355755210550     
  0.13890000000000002          3.1630277618165934     
  0.13919999999999999          4.6056407764521339     
  0.13950000000000001          5.8023552465603530     
  0.13979999999999998          6.7128353375956920     
  0.14010000000000000          7.3067257718831513     
  0.14040000000000002          7.5647981461376332     
  0.14069999999999999          7.4801023928749117     
  0.14100000000000001          7.0617773711220551     
  0.14130000000000004          6.3331771949747333     
  0.14160000000000000          5.3340252557296033     
  0.14189999999999997          4.1191388173920416     
  0.14219999999999999          2.7549405493472108     
  0.14250000000000002          1.3190432566842247     
  0.14279999999999998        -0.10517942091937371     
  0.14310000000000000         -1.4335524774549135     
  0.14339999999999997         -2.5836192732630110     
  0.14369999999999999         -3.4827524929919917     
  0.14400000000000002         -4.0702189312151447     
  0.14429999999999998         -4.3022215796662202     
  0.14460000000000001         -4.1566914633155569     
  0.14490000000000003         -3.6315018174186093     
  0.14520000000000000         -2.7490459037519628     
  0.14550000000000002         -1.5540182497226880     
  0.14579999999999999        -0.11009796363640589     
  0.14610000000000001          1.5000187111607701     
  0.14640000000000003          3.1831350667675906     
  0.14670000000000000          4.8387286189676928     
  0.14699999999999996          6.3648235807677622     
  0.14729999999999999          7.6665850960017394     
  0.14760000000000001          8.6587956686427958     
  0.14789999999999998          9.2753540889140140     
  0.14820000000000000          9.4720588829687813     