  -1.4999999999999999E-002     0.0000000000000000     
  -1.4700000000000000E-002     0.0000000000000000     
  -1.4400000000000000E-002     0.0000000000000000     
  -1.4100000000000000E-002     0.0000000000000000     
  -1.3800000000000000E-002     0.0000000000000000     
  -1.3500000000000000E-002     0.0000000000000000     
  -1.3200000000000000E-002     0.0000000000000000     
  -1.2899999999999998E-002     0.0000000000000000     
  -1.2600000000000000E-002     0.0000000000000000     
  -1.2299999999999998E-002     0.0000000000000000     
  -1.2000000000000000E-002     0.0000000000000000     
  -1.1699999999999999E-002     0.0000000000000000     
  -1.1399999999999999E-002     0.0000000000000000     
  -1.1099999999999999E-002     0.0000000000000000     
  -1.0799999999999999E-002     0.0000000000000000     
  -1.0499999999999999E-002     0.0000000000000000     
  -1.0199999999999999E-002     0.0000000000000000     
  -9.8999999999999991E-003     0.0000000000000000     
  -9.5999999999999992E-003     0.0000000000000000     
  -9.2999999999999992E-003     0.0000000000000000     
  -8.9999999999999993E-003     0.0000000000000000     
  -8.6999999999999994E-003     0.0000000000000000     
  -8.3999999999999995E-003     0.0000000000000000     
  -8.0999999999999996E-003     0.0000000000000000     
  -7.7999999999999988E-003     0.0000000000000000     
  -7.4999999999999997E-003     0.0000000000000000     
  -7.1999999999999998E-003     0.0000000000000000     
  -6.8999999999999981E-003     0.0000000000000000     
  -6.5999999999999982E-003     0.0000000000000000     
  -6.3000000000000000E-003     0.0000000000000000     
  -6.0000000000000001E-003     0.0000000000000000     
  -5.6999999999999985E-003     0.0000000000000000     
  -5.3999999999999986E-003     0.0000000000000000     
  -5.1000000000000004E-003     0.0000000000000000     
  -4.7999999999999987E-003     0.0000000000000000     
  -4.5000000000000005E-003     0.0000000000000000     
  -4.1999999999999989E-003     0.0000000000000000     
  -3.8999999999999990E-003     0.0000000000000000     
  -3.5999999999999990E-003     0.0000000000000000     
  -3.2999999999999991E-003     0.0000000000000000     
  -2.9999999999999992E-003     0.0000000000000000     
  -2.6999999999999993E-003     0.0000000000000000     
  -2.3999999999999994E-003     0.0000000000000000     
  -2.0999999999999977E-003     0.0000000000000000     
  -1.7999999999999995E-003     0.0000000000000000     
  -1.4999999999999979E-003     0.0000000000000000     
  -1.1999999999999997E-003     0.0000000000000000     
  -8.9999999999999976E-004     0.0000000000000000     
  -5.9999999999999810E-004     0.0000000000000000     
  -2.9999999999999992E-004     0.0000000000000000     
   0.0000000000000000          0.0000000000000000     
   3.0000000000000165E-004     0.0000000000000000     
   5.9999999999999984E-004     0.0000000000000000     
   9.0000000000000149E-004     0.0000000000000000     
   1.2000000000000031E-003     0.0000000000000000     
   1.5000000000000013E-003     0.0000000000000000     
   1.8000000000000030E-003     0.0000000000000000     
   2.1000000000000012E-003     0.0000000000000000     
   2.3999999999999994E-003     0.0000000000000000     
   2.7000000000000010E-003     0.0000000000000000     
   2.9999999999999992E-003     0.0000000000000000     
   3.3000000000000008E-003     0.0000000000000000     
   3.6000000000000025E-003     0.0000000000000000     
   3.9000000000000007E-003     0.0000000000000000     
   4.2000000000000023E-003     0.0000000000000000     
   4.5000000000000005E-003     0.0000000000000000     
   4.7999999999999987E-003     0.0000000000000000     
   5.1000000000000004E-003     0.0000000000000000     
   5.4000000000000020E-003     0.0000000000000000     
   5.7000000000000037E-003     0.0000000000000000     
   5.9999999999999984E-003     0.0000000000000000     
   6.3000000000000000E-003     0.0000000000000000     
   6.6000000000000017E-003     0.0000000000000000     
   6.9000000000000034E-003     0.0000000000000000     
   7.2000000000000015E-003     0.0000000000000000     
   7.5000000000000032E-003     0.0000000000000000     
   7.8000000000000014E-003     0.0000000000000000     
   8.0999999999999996E-003     0.0000000000000000     
   8.4000000000000012E-003     0.0000000000000000     
   8.7000000000000029E-003     2.8621588571322984E-038
   9.0000000000000011E-003    -1.8060998193752665E-037
   9.2999999999999992E-003    -1.7250817551440262E-036
   9.6000000000000009E-003     1.4061024996381893E-037
   9.8999999999999991E-003     5.9411117922654823E-036
   1.0200000000000001E-002     1.6182057812798697E-034
   1.0500000000000002E-002     3.2291614867296936E-034
   1.0800000000000004E-002    -8.8468503337495635E-033
   1.1099999999999999E-002     1.9605135267569666E-032
   1.1400000000000000E-002     1.5328860605688084E-031
   1.1700000000000002E-002    -1.0721206128832261E-030
   1.2000000000000004E-002     1.2568778360413777E-030
   1.2300000000000002E-002     1.4135631600919308E-029
   1.2600000000000000E-002    -7.8387340141339696E-029
   1.2900000000000002E-002     1.2811918999072387E-028
   1.3200000000000000E-002     3.9411684334213989E-028
   1.3500000000000002E-002    -2.6584061076296629E-027
   1.3800000000000003E-002     5.9876694894433730E-027
   1.4100000000000001E-002    -4.7027476121187124E-027
   1.4400000000000000E-002     2.1036774281091421E-026
   1.4700000000000001E-002    -3.0220731759449344E-025
   1.4999999999999999E-002     1.8551888236931979E-024
   1.5300000000000001E-002    -6.8347100582299308E-024
   1.5600000000000003E-002     1.4098746737858922E-023
   1.5899999999999997E-002     1.5678420540048236E-023
   1.6199999999999999E-002    -3.5153012929732752E-022
   1.6500000000000001E-002     2.4240965340900664E-021
   1.6800000000000002E-002    -1.2999846025631904E-020
   1.7100000000000004E-002     6.1571253356429047E-020
   1.7400000000000006E-002    -2.6884719889994415E-019
   1.7700000000000000E-002     1.1086152452929181E-018
   1.8000000000000002E-002    -4.4116251762869720E-018
   1.8300000000000004E-002     1.7330867674730559E-017
   1.8600000000000005E-002    -6.8603550334059147E-017
   1.8900000000000000E-002     2.7655489362563591E-016
   1.9200000000000002E-002    -1.1285660402337581E-015
   1.9500000000000003E-002     4.5580505426229379E-015
   1.9799999999999998E-002    -1.7610366981750918E-014
   2.0100000000000000E-002     6.2361616052036962E-014
   2.0400000000000001E-002    -1.9065484715385586E-013
   2.0700000000000003E-002     4.4666425425801001E-013
   2.0999999999999998E-002    -4.7822536999679345E-013
   2.1299999999999999E-002    -2.0632450697190081E-012
   2.1600000000000001E-002     1.5025618687343884E-011
   2.1900000000000003E-002    -5.1016382448992875E-011
   2.2200000000000004E-002     9.1834728012164696E-011
   2.2500000000000006E-002     2.8985306462511564E-011
   2.2800000000000001E-002    -6.9642235992783648E-010
   2.3100000000000002E-002     1.8092931678011450E-009
   2.3400000000000004E-002    -6.5268141656384209E-010
   2.3699999999999999E-002    -7.5246318769901147E-009
   2.4000000000000000E-002     1.5425229864230473E-008
   2.4300000000000002E-002     1.0389414040053032E-008
   2.4599999999999997E-002    -6.7136013679667331E-008
   2.4900000000000005E-002     6.6223710802081046E-011
   2.5200000000000000E-002     2.0789416799045751E-007
   2.5499999999999995E-002     2.4873652589233384E-008
   2.5800000000000003E-002    -5.9623741935670231E-007
   2.6099999999999998E-002    -4.6774490813003951E-007
   2.6400000000000007E-002     1.8004165237636909E-006
   2.6700000000000002E-002     6.2201186241846716E-006
   2.6999999999999996E-002     1.1747603003461502E-005
   2.7300000000000005E-002     1.8310791393703018E-005
   2.7600000000000000E-002     2.7645161914408608E-005
   2.7900000000000008E-002     4.2591517410796743E-005
   2.8200000000000003E-002     6.6617752440942170E-005
   2.8499999999999998E-002     1.0379646175162670E-004
   2.8800000000000006E-002     1.5930819296657538E-004
   2.9100000000000001E-002     2.4044763759484798E-004
   2.9400000000000003E-002     3.5787042566025849E-004
   2.9700000000000004E-002     5.2692769533274446E-004
   3.0000000000000006E-002     7.6786368225010421E-004
   3.0300000000000001E-002     1.1049008878100709E-003
   3.0600000000000002E-002     1.5662138754359220E-003
   3.0900000000000004E-002     2.1855488593784111E-003
   3.1199999999999999E-002     3.0036127627870168E-003
   3.1500000000000007E-002     4.0664803435401103E-003
   3.1800000000000002E-002     5.4217088231292843E-003
   3.2099999999999997E-002     7.1145401457242685E-003
   3.2400000000000005E-002     9.1840636626931427E-003
   3.2700000000000000E-002     1.1656575092178934E-002
   3.3000000000000002E-002     1.4536207894306041E-002
   3.3300000000000003E-002     1.7794053449897429E-002
   3.3599999999999998E-002     2.1358608987356198E-002
   3.3900000000000000E-002     2.5105079564857080E-002
   3.4200000000000001E-002     2.8844658568547565E-002
   3.4500000000000003E-002     3.2318465931064022E-002
   3.4799999999999998E-002     3.5199003178193911E-002
   3.5099999999999999E-002     3.7096422652427075E-002
   3.5400000000000001E-002     3.7571082798652844E-002
   3.5699999999999996E-002     3.6157963049175290E-002
   3.6000000000000004E-002     3.2403380057201447E-002
   3.6299999999999999E-002     2.5914126942771287E-002
   3.6600000000000008E-002     1.6405700851698790E-002
   3.6900000000000002E-002     3.7551926918344136E-003
   3.7199999999999997E-002    -1.1945395339442281E-002
   3.7500000000000006E-002    -3.0341618683800808E-002
   3.7800000000000000E-002    -5.0783230990807393E-002
   3.8100000000000009E-002    -7.2332461598716646E-002
   3.8400000000000004E-002    -9.3770065518522294E-002
   3.8699999999999998E-002   -0.11365278191216843     
   3.9000000000000007E-002   -0.13039608065346275     
   3.9300000000000002E-002   -0.14237339230793999     
   3.9600000000000003E-002   -0.14805739295847165     
   3.9900000000000005E-002   -0.14613705381764852     
   4.0200000000000000E-002   -0.13566779721902655     
   4.0500000000000001E-002   -0.11617908818168710     
   4.0800000000000003E-002    -8.7746742810987044E-002
   4.1100000000000005E-002    -5.1053854670225718E-002
   4.1399999999999999E-002    -7.3647368258138723E-003
   4.1700000000000008E-002     4.1522697916117249E-002
   4.2000000000000003E-002     9.3372182109944024E-002
   4.2299999999999997E-002    0.14565677703899116     
   4.2600000000000006E-002    0.19572589255718675     
   4.2900000000000001E-002    0.24096171259063137     
   4.3200000000000002E-002    0.27894972677713348     
   4.3500000000000004E-002    0.30761842284929841     
   4.3799999999999999E-002    0.32533211067710432     
   4.4100000000000000E-002    0.33097531324088791     
   4.4400000000000002E-002    0.32396184078752555     
   4.4700000000000004E-002    0.30422387361662473     
   4.4999999999999998E-002    0.27217234025951242     
   4.5300000000000000E-002    0.22862461686933599     
   4.5600000000000002E-002    0.17474553784536884     
   4.5899999999999996E-002    0.11195467262534864     
   4.6200000000000005E-002     4.1891354805045355E-002
   4.6500000000000000E-002    -3.3672677909018178E-002
   4.6799999999999994E-002   -0.11285120733169729     
   4.7100000000000003E-002   -0.19368300439615416     
   4.7399999999999998E-002   -0.27415124495352838     
   4.7700000000000006E-002   -0.35220281279378973     
   4.8000000000000001E-002   -0.42576882480029177     
   4.8300000000000010E-002   -0.49278782508464403     
   4.8600000000000004E-002   -0.55125115451344442     
   4.8899999999999999E-002   -0.59926489873634381     
   4.9200000000000008E-002   -0.63509555027987119     
   4.9500000000000002E-002   -0.65723388347123901     
   4.9800000000000011E-002   -0.66449331634244757     
   5.0100000000000006E-002   -0.65605222865735158     
   5.0400000000000000E-002   -0.63155385399702269     
   5.0700000000000009E-002   -0.59112651038109476     
   5.1000000000000004E-002   -0.53545147873560239     
   5.1299999999999998E-002   -0.46576227035541251     
   5.1600000000000007E-002   -0.38380200879521631     
   5.1900000000000002E-002   -0.29183427218899993     
   5.2200000000000010E-002   -0.19246521769438818     
   5.2500000000000005E-002    -8.8603018674911382E-002
   5.2800000000000000E-002     1.6744494649541863E-002
   5.3099999999999994E-002    0.12066201181499514     
   5.3400000000000003E-002    0.22044117469586189     
   5.3699999999999998E-002    0.31386119580115235     
   5.4000000000000006E-002    0.39928274875263980     
   5.4300000000000001E-002    0.47574641092589864     
   5.4599999999999996E-002    0.54311155443770431     
   5.4900000000000004E-002    0.60195205607239188     
   5.5199999999999999E-002    0.65348587027519756     
   5.5499999999999994E-002    0.69942086019489835     
   5.5800000000000002E-002    0.74163457267856003     
   5.6099999999999997E-002    0.78193212148338986     
   5.6400000000000006E-002    0.82167003946877415     
   5.6700000000000000E-002    0.86142143776410052     
   5.6999999999999995E-002    0.90075214714816809     
   5.7300000000000004E-002    0.93794830280939934     
   5.7599999999999998E-002    0.97001700174793015     
   5.7900000000000007E-002    0.99273424959770651     
   5.8200000000000002E-002     1.0008388975379567     
   5.8499999999999996E-002    0.98853121991099258     
   5.8800000000000005E-002    0.94982611318633658     
   5.9100000000000000E-002    0.87927193330603259     
   5.9400000000000008E-002    0.77267064373651095     
   5.9700000000000003E-002    0.62744258085791671     
   6.0000000000000012E-002    0.44328460479220055     
   6.0300000000000006E-002    0.22261471268419175     
   6.0600000000000001E-002    -2.9690757370962384E-002
   6.0900000000000010E-002   -0.30586198026270739     
   6.1200000000000004E-002   -0.59604442499880950     
   6.1500000000000013E-002   -0.88861306372858806     
   6.1800000000000008E-002    -1.1708471871237300     
   6.2100000000000002E-002    -1.4301390277058275     
   6.2399999999999997E-002    -1.6543151687966287     
   6.2700000000000006E-002    -1.8328491482670728     
   6.3000000000000000E-002    -1.9573577135704312     
   6.3300000000000009E-002    -2.0219752841975449     
   6.3600000000000004E-002    -2.0237974805243581     
   6.3899999999999998E-002    -1.9627229285743653     
   6.4199999999999993E-002    -1.8412911962180019     
   6.4500000000000002E-002    -1.6643688135105776     
   6.4800000000000010E-002    -1.4386034404621455     
   6.5100000000000005E-002    -1.1717806069879728     
   6.5400000000000000E-002   -0.87256179312490190     
   6.5700000000000008E-002   -0.54968037291918037     
   6.5999999999999989E-002   -0.21177285600273432     
   6.6299999999999998E-002    0.13281781670497317     
   6.6600000000000006E-002    0.47650222050180735     
   6.6900000000000001E-002    0.81198710454130918     
   6.7199999999999996E-002     1.1327157555464851     
   6.7500000000000004E-002     1.4325112477558086     
   6.7800000000000013E-002     1.7055754951918161     
   6.8099999999999994E-002     1.9467570734679285     
   6.8400000000000002E-002     2.1508850401627200     
   6.8700000000000011E-002     2.3135111426401949     
   6.8999999999999992E-002     2.4305003189062546     
   6.9300000000000000E-002     2.4982689997780767     
   6.9600000000000009E-002     2.5141324395582956     
   6.9900000000000004E-002     2.4757329794637144     
   7.0199999999999999E-002     2.3818382406062426     
   7.0500000000000007E-002     2.2319113662107668     
   7.0800000000000016E-002     2.0261187285481768     
   7.1099999999999997E-002     1.7657525249451140     
   7.1400000000000005E-002     1.4527918784991911     
   7.1700000000000000E-002     1.0907165089753335     
   7.1999999999999995E-002    0.68406821013026686     
   7.2300000000000003E-002    0.23914283581646423     
   7.2600000000000012E-002   -0.23581811899178717     
   7.2900000000000006E-002   -0.73066351497824178     
   7.3200000000000001E-002    -1.2325918767988711     
   7.3499999999999996E-002    -1.7269745069431046     
   7.3800000000000004E-002    -2.1971264136567825     
   7.4099999999999999E-002    -2.6250329397975491     
   7.4400000000000008E-002    -2.9923437562259636     
   7.4700000000000003E-002    -3.2812735078472315     
   7.5000000000000011E-002    -3.4760976354454840     
   7.5299999999999992E-002    -3.5642327231572040     
   7.5600000000000001E-002    -3.5376553176375438     
   7.5900000000000009E-002    -3.3937402943837327     
   7.6200000000000004E-002    -3.1361493179915669     
   7.6499999999999999E-002    -2.7746474670418024     
   7.6800000000000007E-002    -2.3248948416410400     
   7.7099999999999988E-002    -1.8076240780979660     
   7.7399999999999997E-002    -1.2468601559704098     
   7.7700000000000005E-002   -0.66901899206060733     
   7.8000000000000014E-002    -9.9930177309301538E-002
   7.8299999999999995E-002    0.43617322311256501     
   7.8600000000000003E-002    0.91857681652982759     
   7.8900000000000012E-002     1.3320192997631501     
   7.9199999999999993E-002     1.6661181569933703     
   7.9500000000000001E-002     1.9173799460737158     
   7.9800000000000010E-002     2.0872975606375164     
   8.0100000000000018E-002     2.1821678388577084     
   8.0399999999999999E-002     2.2121896949534374     
   8.0700000000000008E-002     2.1885910470544019     
   8.1000000000000003E-002     2.1238198393261030     
   8.1299999999999997E-002     2.0284076031368983     
   8.1600000000000006E-002     1.9107467439713517     
   8.1900000000000014E-002     1.7765278805467588     
   8.2199999999999995E-002     1.6274025580886118     
   8.2500000000000004E-002     1.4627913297353743     
   8.2799999999999999E-002     1.2794075402989336     
   8.3100000000000007E-002     1.0728905532598034     
   8.3400000000000002E-002    0.83931578028882470     
   8.3700000000000011E-002    0.57568988435939517     
   8.4000000000000005E-002    0.28219849270765351     
   8.4300000000000000E-002    -3.7894066965828976E-002
   8.4599999999999995E-002   -0.37745105317922878     
   8.4900000000000003E-002   -0.72532039550406591     
   8.5199999999999998E-002    -1.0675315522814124     
   8.5500000000000007E-002    -1.3875593969428301     
   8.5800000000000001E-002    -1.6680686406070180     
   8.6100000000000010E-002    -1.8921988738951256     
   8.6399999999999991E-002    -2.0450195759371326     
   8.6699999999999999E-002    -2.1150113722931536     
   8.7000000000000008E-002    -2.0951597981037366     
   8.7300000000000003E-002    -1.9832307489192473     
   8.7599999999999997E-002    -1.7826035029959755     
   8.7900000000000006E-002    -1.5017018157280333     
   8.8200000000000014E-002    -1.1533101802004637     
   8.8499999999999995E-002   -0.75419021853756973     
   8.8800000000000004E-002   -0.32314991192296372     
   8.9100000000000013E-002    0.11973378958300884     
   8.9399999999999993E-002    0.55458809920543672     
   8.9700000000000002E-002    0.96292566712339145     
   9.0000000000000011E-002     1.3284432872818392     
   9.0299999999999991E-002     1.6381580882158886     
   9.0600000000000000E-002     1.8819844246252373     
   9.0900000000000009E-002     2.0535581856229612     
   9.1200000000000017E-002     2.1498500177610396     
   9.1499999999999998E-002     2.1701546099682929     
   9.1800000000000007E-002     2.1166157623251962     
   9.2100000000000001E-002     1.9928731164977478     
   9.2399999999999996E-002     1.8038918964368875     
   9.2700000000000005E-002     1.5558083639982101     
   9.3000000000000013E-002     1.2553572887295203     
   9.3300000000000008E-002    0.91037968742298858     
   9.3600000000000003E-002    0.52974419066538303     
   9.3899999999999997E-002    0.12356446073420990     
   9.4200000000000006E-002   -0.29620828738934790     
   9.4500000000000001E-002   -0.71566082565428535     
   9.4800000000000009E-002    -1.1193372638859138     
   9.5100000000000004E-002    -1.4898613065558024     
   9.5399999999999999E-002    -1.8094059015955466     
   9.5699999999999993E-002    -2.0602955352457926     
   9.6000000000000002E-002    -2.2262722217748774     
   9.6300000000000011E-002    -2.2943797516695099     
   9.6600000000000005E-002    -2.2555138181081986     
   9.6900000000000000E-002    -2.1071321361586683     
   9.7200000000000009E-002    -1.8527812603052354     
   9.7499999999999989E-002    -1.5031425237023299     
   9.7799999999999998E-002    -1.0762407725490135     
   9.8100000000000007E-002   -0.59516879058170957     
   9.8400000000000015E-002    -8.8170255186557078E-002
   9.8699999999999996E-002    0.41483973146400288     
   9.9000000000000005E-002    0.88372636601223198     
   9.9300000000000013E-002     1.2905331165959204     
   9.9599999999999994E-002     1.6123870213527027     
   9.9900000000000003E-002     1.8323077069146692     
  0.10020000000000001          1.9413908092901337     
  0.10049999999999999          1.9384990613737543     
  0.10080000000000000          1.8301489213643833     
  0.10110000000000001          1.6296013394085591     
  0.10140000000000000          1.3548146050061902     
  0.10170000000000000          1.0267506988036779     
  0.10200000000000001         0.66703590594055484     
  0.10230000000000002         0.29633007475225792     
  0.10260000000000000         -6.7795568764033032E-002
  0.10290000000000001        -0.41156068296346238     
  0.10320000000000000        -0.72562637406057284     
  0.10350000000000001         -1.0048567061704574     
  0.10380000000000000         -1.2471233965574946     
  0.10410000000000001         -1.4530808594235225     
  0.10440000000000001         -1.6235745230776288     
  0.10470000000000000         -1.7592270695245560     
  0.10500000000000000         -1.8591632261579392     
  0.10530000000000000         -1.9196172004788608     
  0.10560000000000000         -1.9355902679530672     
  0.10590000000000001         -1.8992792673285450     
  0.10620000000000000         -1.8026211724257166     
  0.10650000000000001         -1.6382804816344105     
  0.10679999999999999         -1.4005887358087463     
  0.10710000000000000         -1.0884319610151181     
  0.10740000000000001        -0.70454057687156180     
  0.10770000000000000        -0.25812378421979787     
  0.10800000000000000         0.23630007709745904     
  0.10830000000000001         0.75912054488687009     
  0.10859999999999999          1.2858115350858679     
  0.10890000000000000          1.7907575517066761     
  0.10920000000000001          2.2467645108899816     
  0.10950000000000001          2.6287086094543284     
  0.10979999999999999          2.9151035585734206     
  0.11009999999999999          3.0892074937687397     
  0.11040000000000001          3.1410602284551885     
  0.11070000000000001          3.0671321895594446     
  0.11100000000000000          2.8708607307698486     
  0.11130000000000000          2.5622100737532634     
  0.11160000000000002          2.1562525583018299     
  0.11190000000000001          1.6718065114977350     
  0.11220000000000001          1.1307749706731762     
  0.11250000000000000         0.55595568890629998     
  0.11280000000000000         -2.9534582437019452E-002
  0.11309999999999999        -0.60360225874121554     
  0.11340000000000001         -1.1457825258707590     
  0.11369999999999998         -1.6367462322101716     
  0.11400000000000000         -2.0601747127491450     
  0.11430000000000000         -2.4008086853398041     
  0.11460000000000002         -2.6456516931910699     
  0.11489999999999999         -2.7843241192721280     
  0.11520000000000001         -2.8076291214470217     
  0.11550000000000001         -2.7107612390403801     
  0.11580000000000000         -2.4916192474080674     
  0.11609999999999999         -2.1525286203828955     
  0.11640000000000002         -1.7019540321443429     
  0.11670000000000001         -1.1532541676350334     
  0.11700000000000001        -0.52757625048905155     
  0.11730000000000000         0.14841296082983391     
  0.11760000000000000         0.84214319046143871     
  0.11789999999999999          1.5157289392150428     
  0.11820000000000001          2.1302965757244330     
  0.11850000000000001          2.6456488766108848     
  0.11880000000000000          3.0254315483610412     
  0.11910000000000000          3.2396575023475123     
  0.11940000000000002          3.2662099153911868     
  0.11970000000000001          3.0957664377718572     
  0.12000000000000001          2.7313180708070490     
  0.12030000000000000          2.1895149545336423     
  0.12060000000000000          1.5008745571010422     
  0.12089999999999999         0.70666656951728513     
  0.12119999999999999        -0.14287413566096774     
  0.12150000000000001        -0.99240295979614501     
  0.12180000000000001         -1.7864029042858494     
  0.12210000000000000         -2.4721445567846381     
  0.12239999999999999         -3.0055095042798072     
  0.12270000000000002         -3.3533988353354687     
  0.12300000000000001         -3.4963265783590174     
  0.12330000000000001         -3.4311166557943551     
  0.12360000000000000         -3.1688149805235071     
  0.12390000000000000         -2.7355167955766717     
  0.12419999999999999         -2.1692459823082260     
  0.12450000000000001         -1.5153262058203509     
  0.12480000000000001        -0.82508714223301638     
  0.12509999999999999        -0.14912719284537723     
  0.12540000000000001         0.46484805830449716     
  0.12570000000000003         0.97652703072366442     
  0.12600000000000000          1.3560255075355965     
  0.12630000000000002          1.5841910478691332     
  0.12659999999999999          1.6556049449967531     
  0.12690000000000001          1.5761304883805423     
  0.12719999999999998          1.3631843958005447     
  0.12750000000000000          1.0429782320009551     
  0.12780000000000002         0.64809497780142777     
  0.12809999999999999         0.21477468303296732     
  0.12840000000000001        -0.22020320319425757     
  0.12869999999999998        -0.62199015494818966     
  0.12900000000000000        -0.96097617840074001     
  0.12930000000000003         -1.2127613739003067     
  0.12959999999999999         -1.3618200732177570     
  0.12990000000000002         -1.3999390382073784     
  0.13019999999999998         -1.3269965605265313     
  0.13050000000000000         -1.1511080304440355     
  0.13080000000000003        -0.88514686914644258     
  0.13109999999999999        -0.54855180520027780     
  0.13140000000000002        -0.16252573920250490     
  0.13169999999999998         0.25027795861236690     
  0.13200000000000001         0.66693344197507898     
  0.13229999999999997          1.0678316785757151     
  0.13260000000000000          1.4352201448655837     
  0.13290000000000002          1.7566784722000399     
  0.13319999999999999          2.0239126919214385     
  0.13350000000000001          2.2324560756014051     
  0.13380000000000003          2.3831401714172316     
  0.13410000000000000          2.4786768851268590     
  0.13440000000000002          2.5245095841737282     
  0.13469999999999999          2.5268861592683578     
  0.13500000000000001          2.4909495619132258     
  0.13529999999999998          2.4210032620521531     
  0.13560000000000000          2.3187509625666962     
  0.13590000000000002          2.1827950602636292     
  0.13619999999999999          2.0102116782129968     
  0.13650000000000001          1.7953902209264641     
  0.13680000000000003          1.5324282848910542     
  0.13710000000000000          1.2164424803588858     
  0.13740000000000002         0.84451078308107697     
  0.13769999999999999         0.41822251837542446     
  0.13800000000000001         -5.6340849915406999E-002
  0.13829999999999998        -0.56748159868624271     
  0.13860000000000000         -1.0972257818478752     
  0.13890000000000002         -1.6239307284295545     
  0.13919999999999999         -2.1223236856316703     
  0.13950000000000001         -2.5665928286141764     
  0.13979999999999998         -2.9335804734916664     
  0.14010000000000000         -3.2035448304924756     
  0.14040000000000002         -3.3652298571605144     
  0.14069999999999999         -3.4157342072217887     
  0.14100000000000001         -3.3607927795537904     
  0.14130000000000004         -3.2170039604109917     
  0.14160000000000000         -3.0072995676005121     
  0.14189999999999997         -2.7606191440321197     
  0.14219999999999999         -2.5076497854156514     
  0.14250000000000002         -2.2769663230675405     
  0.14279999999999998         -2.0922648362916476     
  0.14310000000000000         -1.9677915508281245     
  0.14339999999999997         -1.9077713609531273     
  0.14369999999999999         -1.9046212973929997     
  0.14400000000000002         -1.9389789734541480     
  0.14429999999999998         -1.9823968887497756     
  0.14460000000000001         -1.9996608263394577     
  0.14490000000000003         -1.9530027752200638     
  0.14520000000000000         -1.8070563442332386     
  0.14550000000000002         -1.5320716001821637     
  0.14579999999999999         -1.1083053945415386     
  0.14610000000000001        -0.52944152169356418     
  0.14640000000000003         0.19751735248514990     
  0.14670000000000000          1.0495242414988226     
  0.14699999999999996          1.9918148315709026     
  0.14729999999999999          2.9786269302316044     
  0.14760000000000001          3.9567105509787908     
  0.14789999999999998          4.8724692956706832     
  0.14820000000000000          5.6725419278624116     