  -1.4999999999999999E-002     0.0000000000000000     
  -1.4700000000000000E-002     0.0000000000000000     
  -1.4400000000000000E-002     0.0000000000000000     
  -1.4100000000000000E-002     0.0000000000000000     
  -1.3800000000000000E-002     0.0000000000000000     
  -1.3500000000000000E-002     0.0000000000000000     
  -1.3200000000000000E-002     0.0000000000000000     
  -1.2899999999999998E-002     0.0000000000000000     
  -1.2600000000000000E-002     0.0000000000000000     
  -1.2299999999999998E-002     0.0000000000000000     
  -1.2000000000000000E-002     0.0000000000000000     
  -1.1699999999999999E-002     0.0000000000000000     
  -1.1399999999999999E-002     0.0000000000000000     
  -1.1099999999999999E-002     0.0000000000000000     
  -1.0799999999999999E-002     0.0000000000000000     
  -1.0499999999999999E-002     0.0000000000000000     
  -1.0199999999999999E-002     0.0000000000000000     
  -9.8999999999999991E-003     0.0000000000000000     
  -9.5999999999999992E-003     0.0000000000000000     
  -9.2999999999999992E-003     0.0000000000000000     
  -8.9999999999999993E-003     0.0000000000000000     
  -8.6999999999999994E-003     0.0000000000000000     
  -8.3999999999999995E-003     0.0000000000000000     
  -8.0999999999999996E-003     0.0000000000000000     
  -7.7999999999999988E-003     0.0000000000000000     
  -7.4999999999999997E-003     0.0000000000000000     
  -7.1999999999999998E-003     0.0000000000000000     
  -6.8999999999999981E-003     0.0000000000000000     
  -6.5999999999999982E-003     0.0000000000000000     
  -6.3000000000000000E-003     0.0000000000000000     
  -6.0000000000000001E-003     0.0000000000000000     
  -5.6999999999999985E-003     0.0000000000000000     
  -5.3999999999999986E-003     0.0000000000000000     
  -5.1000000000000004E-003     0.0000000000000000     
  -4.7999999999999987E-003     0.0000000000000000     
  -4.5000000000000005E-003     0.0000000000000000     
  -4.1999999999999989E-003     0.0000000000000000     
  -3.8999999999999990E-003     0.0000000000000000     
  -3.5999999999999990E-003     0.0000000000000000     
  -3.2999999999999991E-003     0.0000000000000000     
  -2.9999999999999992E-003     0.0000000000000000     
  -2.6999999999999993E-003     0.0000000000000000     
  -2.3999999999999994E-003     0.0000000000000000     
  -2.0999999999999977E-003     0.0000000000000000     
  -1.7999999999999995E-003    -2.6901509595160455E-038
  -1.4999999999999979E-003    -6.5525119992191928E-037
  -1.1999999999999997E-003     1.0512808967787323E-035
  -8.9999999999999976E-004    -2.7502226462629166E-035
  -5.9999999999999810E-004    -1.2278373730761138E-034
  -2.9999999999999992E-004     5.0530710299943896E-034
   0.0000000000000000          8.4063174357564165E-034
   3.0000000000000165E-004    -5.2362973106722822E-033
   5.9999999999999984E-004     8.0453491675715519E-033
   9.0000000000000149E-004     1.9114779614965114E-032
   1.2000000000000031E-003    -1.3796021395581253E-031
   1.5000000000000013E-003     2.4120278012341183E-031
   1.8000000000000030E-003     4.7955983530109082E-031
   2.1000000000000012E-003    -2.9705507140910860E-030
   2.3999999999999994E-003     4.4457983945029218E-030
   2.7000000000000010E-003     4.7026014157091887E-030
   2.9999999999999992E-003    -3.2336001837726291E-029
   3.3000000000000008E-003     6.2325960998387436E-029
   3.6000000000000025E-003    -2.7370529872656346E-029
   3.9000000000000007E-003    -1.8263292125641024E-028
   4.2000000000000023E-003     5.3411063504915530E-028
   4.5000000000000005E-003    -4.8585900369368060E-028
   4.7999999999999987E-003    -7.6528150872150366E-028
   5.1000000000000004E-003     2.4102974392377914E-027
   5.4000000000000020E-003    -1.7400684146236484E-028
   5.7000000000000037E-003    -9.9644893932981428E-027
   5.9999999999999984E-003     1.8875506083523969E-026
   6.3000000000000000E-003     9.8586329301749087E-027
   6.6000000000000017E-003    -1.2904959507329206E-025
   6.9000000000000034E-003     3.3374672818434206E-025
   7.2000000000000015E-003    -4.3014918812602184E-025
   7.5000000000000032E-003    -2.1021608258705338E-026
   7.8000000000000014E-003     1.5466419618759966E-024
   8.0999999999999996E-003    -4.6493282095670124E-024
   8.4000000000000012E-003     1.0404606370710111E-023
   8.7000000000000029E-003    -2.0924471374304531E-023
   9.0000000000000011E-003     3.1514631971571102E-023
   9.2999999999999992E-003     1.6474745976035998E-023
   9.6000000000000009E-003    -4.2468842353831937E-022
   9.8999999999999991E-003     2.4168042067433330E-021
   1.0200000000000001E-002    -1.0573560646255703E-020
   1.0500000000000002E-002     4.1942671187553762E-020
   1.0800000000000004E-002    -1.6177788252086158E-019
   1.1099999999999999E-002     6.2863296909745096E-019
   1.1400000000000000E-002    -2.4945266984347762E-018
   1.1700000000000002E-002     1.0103411790240651E-017
   1.2000000000000004E-002    -4.1445182859804185E-017
   1.2300000000000002E-002     1.7025594088604686E-016
   1.2600000000000000E-002    -6.9008459471702250E-016
   1.2900000000000002E-002     2.7036645268748536E-015
   1.3200000000000000E-002    -9.9420411006986230E-015
   1.3500000000000002E-002     3.2807418408746106E-014
   1.3800000000000003E-002    -8.9414969956009704E-014
   1.4100000000000001E-002     1.5749427067562619E-013
   1.4400000000000000E-002     1.1914799103957047E-013
   1.4700000000000001E-002    -2.4373565010624966E-012
   1.4999999999999999E-002     1.1527898664713111E-011
   1.5300000000000001E-002    -3.2299673044537155E-011
   1.5600000000000003E-002     4.2072237791403457E-011
   1.5899999999999997E-002     8.2651934077540956E-011
   1.6199999999999999E-002    -5.6254089882037994E-010
   1.6500000000000001E-002     1.1357225877382074E-009
   1.6800000000000002E-002     2.7766354865830182E-010
   1.7100000000000004E-002    -6.2578877704030437E-009
   1.7400000000000006E-002     9.3718824739710052E-009
   1.7700000000000000E-002     1.3188680335035998E-008
   1.8000000000000002E-002    -4.7561895559691978E-008
   1.8300000000000004E-002    -2.1244559180371872E-008
   1.8600000000000005E-002     1.5069459002292956E-007
   1.8900000000000000E-002     9.0449713364042304E-008
   1.9200000000000002E-002    -4.0689253148409488E-007
   1.9500000000000003E-002    -5.6832727394881186E-007
   1.9799999999999998E-002     1.1054815970087633E-006
   2.0100000000000000E-002     5.5557824375087965E-006
   2.0400000000000001E-002     1.2427075227200413E-005
   2.0700000000000003E-002     2.0922700988120348E-005
   2.0999999999999998E-002     3.1134503431868069E-005
   2.1299999999999999E-002     4.5205096031755449E-005
   2.1600000000000001E-002     6.8071821944413850E-005
   2.1900000000000003E-002     1.0665134503508051E-004
   2.2200000000000004E-002     1.6864998594854795E-004
   2.2500000000000006E-002     2.6281192321839231E-004
   2.2800000000000001E-002     4.0040598311509058E-004
   2.3100000000000002E-002     5.9797333673195820E-004
   2.3400000000000004E-002     8.7992332031084156E-004
   2.3699999999999999E-002     1.2788230930570223E-003
   2.4000000000000000E-002     1.8345276970452712E-003
   2.4300000000000002E-002     2.5950989567885829E-003
   2.4599999999999997E-002     3.6201940301476276E-003
   2.4900000000000005E-002     4.9832694598090643E-003
   2.5200000000000000E-002     6.7704220589541453E-003
   2.5499999999999995E-002     9.0788746361814832E-003
   2.5800000000000003E-002     1.2015398847993630E-002
   2.6099999999999998E-002     1.5693069229989032E-002
   2.6400000000000007E-002     2.0226574128850650E-002
   2.6700000000000002E-002     2.5726141219346799E-002
   2.6999999999999996E-002     3.2289309541947642E-002
   2.7300000000000005E-002     3.9993827813435301E-002
   2.7600000000000000E-002     4.8885834220946389E-002
   2.7900000000000008E-002     5.8968814997376384E-002
   2.8200000000000003E-002     7.0197518578856144E-002
   2.8499999999999998E-002     8.2468111217925522E-002
   2.8800000000000006E-002     9.5613251270503241E-002
   2.9100000000000001E-002    0.10939204984944029     
   2.9400000000000003E-002    0.12348719233470540     
   2.9700000000000004E-002    0.13750800749125913     
   3.0000000000000006E-002    0.15097778074133927     
   3.0300000000000001E-002    0.16333619570397850     
   3.0600000000000002E-002    0.17392589076079457     
   3.0900000000000004E-002    0.18199263621143480     
   3.1199999999999999E-002    0.18667001945388240     
   3.1500000000000007E-002    0.18697195910874953     
   3.1800000000000002E-002    0.18178819416680803     
   3.2099999999999997E-002    0.16989774038376293     
   3.2400000000000005E-002    0.14999021092594855     
   3.2700000000000000E-002    0.12069239350360750     
   3.3000000000000002E-002     8.0683372386548768E-002
   3.3300000000000003E-002     2.8752758194837913E-002
   3.3599999999999998E-002    -3.6034829836220306E-002
   3.3900000000000000E-002   -0.11417416574688022     
   3.4200000000000001E-002   -0.20559850767985433     
   3.4500000000000003E-002   -0.30943433052651681     
   3.4799999999999998E-002   -0.42393072060861492     
   3.5099999999999999E-002   -0.54629378450749222     
   3.5400000000000001E-002   -0.67269139617117624     
   3.5699999999999996E-002   -0.79833394577527272     
   3.6000000000000004E-002   -0.91757976377575545     
   3.6299999999999999E-002    -1.0242564259025926     
   3.6600000000000008E-002    -1.1119179642639487     
   3.6900000000000002E-002    -1.1742853200395871     
   3.7199999999999997E-002    -1.2056753839563257     
   3.7500000000000006E-002    -1.2014301053156018     
   3.7800000000000000E-002    -1.1583552608213736     
   3.8100000000000009E-002    -1.0750180030069245     
   3.8400000000000004E-002   -0.95187892858105627     
   3.8699999999999998E-002   -0.79142880543976091     
   3.9000000000000007E-002   -0.59804676104867127     
   3.9300000000000002E-002   -0.37777927594716232     
   3.9600000000000003E-002   -0.13804272658361016     
   3.9900000000000005E-002    0.11293632785715069     
   4.0200000000000000E-002    0.36647914592803915     
   4.0500000000000001E-002    0.61405072827103169     
   4.0800000000000003E-002    0.84779246805186936     
   4.1100000000000005E-002     1.0607927676112716     
   4.1399999999999999E-002     1.2476289138288159     
   4.1700000000000008E-002     1.4044541434470972     
   4.2000000000000003E-002     1.5291557250522700     
   4.2299999999999997E-002     1.6213666241107632     
   4.2600000000000006E-002     1.6821753759338662     
   4.2900000000000001E-002     1.7141274503312189     
   4.3200000000000002E-002     1.7206655332651977     
   4.3500000000000004E-002     1.7058086859503518     
   4.3799999999999999E-002     1.6736544996943721     
   4.4100000000000000E-002     1.6278043551545025     
   4.4400000000000002E-002     1.5709675469052584     
   4.4700000000000004E-002     1.5044206694272333     
   4.4999999999999998E-002     1.4278357161958937     
   4.5300000000000000E-002     1.3389458499382414     
   4.5600000000000002E-002     1.2337174468620375     
   4.5899999999999996E-002     1.1066254554708621     
   4.6200000000000005E-002    0.95094003608189581     
   4.6500000000000000E-002    0.75990086530871892     
   4.6799999999999994E-002    0.52714867444707636     
   4.7100000000000003E-002    0.24826786031239578     
   4.7399999999999998E-002    -7.8374514339426327E-002
   4.7700000000000006E-002   -0.45082756362085386     
   4.8000000000000001E-002   -0.86218497622617463     
   4.8300000000000010E-002    -1.3011075248697210     
   4.8600000000000004E-002    -1.7510114707722408     
   4.8899999999999999E-002    -2.1911705603083291     
   4.9200000000000008E-002    -2.5979107947513640     
   4.9500000000000002E-002    -2.9456212682190852     
   4.9800000000000011E-002    -3.2096121515842810     
   5.0100000000000006E-002    -3.3672732383469111     
   5.0400000000000000E-002    -3.4008664697976059     
   5.0700000000000009E-002    -3.2990571355060752     
   5.1000000000000004E-002    -3.0580117574786954     
   5.1299999999999998E-002    -2.6829868250678572     
   5.1600000000000007E-002    -2.1872112877215812     
   5.1900000000000002E-002    -1.5920720134099398     
   5.2200000000000010E-002   -0.92515590854860719     
   5.2500000000000005E-002   -0.21814872361537452     
   5.2800000000000000E-002    0.49493800626023798     
   5.3099999999999994E-002     1.1810749443199366     
   5.3400000000000003E-002     1.8099305932367855     
   5.3699999999999998E-002     2.3562260706629772     
   5.4000000000000006E-002     2.8008670446447042     
   5.4300000000000001E-002     3.1317892972727464     
   5.4599999999999996E-002     3.3441095548459145     
   5.4900000000000004E-002     3.4393375931907997     
   5.5199999999999999E-002     3.4242152697983101     
   5.5499999999999994E-002     3.3092897169838551     
   5.5800000000000002E-002     3.1072641060712982     
   5.6099999999999997E-002     2.8311003937675139     
   5.6400000000000006E-002     2.4930926408836172     
   5.6700000000000000E-002     2.1035641848654478     
   5.6999999999999995E-002     1.6707959166997242     
   5.7300000000000004E-002     1.2009819437750906     
   5.7599999999999998E-002    0.69838769067981588     
   5.7900000000000007E-002    0.16719994170981534     
   5.8200000000000002E-002   -0.38852402765067495     
   5.8499999999999996E-002   -0.96269617477501257     
   5.8800000000000005E-002    -1.5467887771335498     
   5.9100000000000000E-002    -2.1292295154936483     
   5.9400000000000008E-002    -2.6945229319541113     
   5.9700000000000003E-002    -3.2246278657922574     
   6.0000000000000012E-002    -3.6981953768346898     
   6.0300000000000006E-002    -4.0930572096948765     
   6.0600000000000001E-002    -4.3872535612463537     
   6.0900000000000010E-002    -4.5603046058783434     
   6.1200000000000004E-002    -4.5962757759494934     
   6.1500000000000013E-002    -4.4837143397066654     
   6.1800000000000008E-002    -4.2181974140355010     
   6.2100000000000002E-002    -3.8026816164309878     
   6.2399999999999997E-002    -3.2475073404095838     
   6.2700000000000006E-002    -2.5708989672336315     
   6.3000000000000000E-002    -1.7972800288213975     
   6.3300000000000009E-002   -0.95663852887643230     
   6.3600000000000004E-002    -8.2118355597708526E-002
   6.3899999999999998E-002    0.79138543805454020     
   6.4199999999999993E-002     1.6292802094111680     
   6.4500000000000002E-002     2.3996005902789221     
   6.4800000000000010E-002     3.0738751767492047     
   6.5100000000000005E-002     3.6291004758763989     
   6.5400000000000000E-002     4.0479543253217258     
   6.5700000000000008E-002     4.3194599502902093     
   6.5999999999999989E-002     4.4388444150256987     
   6.6299999999999998E-002     4.4069351868149909     
   6.6600000000000006E-002     4.2301687464522217     
   6.6900000000000001E-002     3.9188236628682063     
   6.7199999999999996E-002     3.4872439597131404     
   6.7500000000000004E-002     2.9529620283688729     
   6.7800000000000013E-002     2.3359840123332987     
   6.8099999999999994E-002     1.6591865945081352     
   6.8400000000000002E-002    0.94707876427379034     
   6.8700000000000011E-002    0.22699741435378318     
   6.8999999999999992E-002   -0.47227085314209560     
   6.9300000000000000E-002    -1.1208463021814659     
   6.9600000000000009E-002    -1.6879312124427734     
   6.9900000000000004E-002    -2.1442396664360146     
   7.0199999999999999E-002    -2.4625952926214865     
   7.0500000000000007E-002    -2.6210913698581493     
   7.0800000000000016E-002    -2.6042088625287931     
   7.1099999999999997E-002    -2.4052898121812518     
   7.1400000000000005E-002    -2.0285622856919758     
   7.1700000000000000E-002    -1.4892566770219560     
   7.1999999999999995E-002   -0.81463322672130190     
   7.2300000000000003E-002    -4.2518939351785079E-002
   7.2600000000000012E-002    0.78064562075530120     
   7.2900000000000006E-002     1.6026905985072393     
   7.3200000000000001E-002     2.3694585304769546     
   7.3499999999999996E-002     3.0288954622409889     
   7.3800000000000004E-002     3.5355022903235493     
   7.4099999999999999E-002     3.8535059745652802     
   7.4400000000000008E-002     3.9602936496648766     
   7.4700000000000003E-002     3.8479774356950429     
   7.5000000000000011E-002     3.5240322501892933     
   7.5299999999999992E-002     3.0099679391656906     
   7.5600000000000001E-002     2.3394066741916077     
   7.5900000000000009E-002     1.5549658749231767     
   7.6200000000000004E-002    0.70365387931769696     
   7.6499999999999999E-002   -0.16597468298027174     
   7.6800000000000007E-002    -1.0091100559066319     
   7.7099999999999988E-002    -1.7870557496539519     
   7.7399999999999997E-002    -2.4697008905803486     
   7.7700000000000005E-002    -3.0373669453981407     
   7.8000000000000014E-002    -3.4801130009594203     
   7.8299999999999995E-002    -3.7975680549382673     
   7.8600000000000003E-002    -3.9964978042075074     
   7.8900000000000012E-002    -4.0881894381830648     
   7.9199999999999993E-002    -4.0871275519836274     
   7.9500000000000001E-002    -4.0068767254139601     
   7.9800000000000010E-002    -3.8590466447524818     
   8.0100000000000018E-002    -3.6526047531226737     
   8.0399999999999999E-002    -3.3914450330613164     
   8.0700000000000008E-002    -3.0767285002806517     
   8.1000000000000003E-002    -2.7069831623430645     
   8.1299999999999997E-002    -2.2795551556525453     
   8.1600000000000006E-002    -1.7939504766402408     
   8.1900000000000014E-002    -1.2518496173072862     
   8.2199999999999995E-002   -0.66060493941899523     
   8.2500000000000004E-002    -3.3895835904506733E-002
   8.2799999999999999E-002    0.60912307041142455     
   8.3100000000000007E-002     1.2412409448435815     
   8.3400000000000002E-002     1.8319856818134621     
   8.3700000000000011E-002     2.3473722794310063     
   8.4000000000000005E-002     2.7527296620161650     
   8.4300000000000000E-002     3.0182873963748875     
   8.4599999999999995E-002     3.1184314443138419     
   8.4900000000000003E-002     3.0386774320928538     
   8.5199999999999998E-002     2.7754333335716694     
   8.5500000000000007E-002     2.3381336979347083     
   8.5800000000000001E-002     1.7514844767065867     
   8.6100000000000010E-002     1.0511041925124296     
   8.6399999999999991E-002    0.28533121176495557     
   8.6699999999999999E-002   -0.48986730248606847     
   8.7000000000000008E-002    -1.2150749102849421     
   8.7300000000000003E-002    -1.8302057191530743     
   8.7599999999999997E-002    -2.2814535748241127     
   8.7900000000000006E-002    -2.5236816356465042     
   8.8200000000000014E-002    -2.5262754613456764     
   8.8499999999999995E-002    -2.2753814240294616     
   8.8800000000000004E-002    -1.7753646941675783     
   8.9100000000000013E-002    -1.0506801602264453     
   8.9399999999999993E-002   -0.14323996902468172     
   8.9700000000000002E-002    0.88832590280536294     
   9.0000000000000011E-002     1.9737897310485071     
   9.0299999999999991E-002     3.0352035609145211     
   9.0600000000000000E-002     3.9928723196385789     
   9.0900000000000009E-002     4.7714190261907703     
   9.1200000000000017E-002     5.3046875550749206     
   9.1499999999999998E-002     5.5423845796408671     
   9.1800000000000007E-002     5.4528928009066249     
   9.2100000000000001E-002     5.0271173600186501     
   9.2399999999999996E-002     4.2796321649803986     
   9.2700000000000005E-002     3.2477232044256397     
   9.3000000000000013E-002     1.9896949918288627     
   9.3300000000000008E-002    0.58030383044821754     
   9.3600000000000003E-002   -0.89430152401960328     
   9.3899999999999997E-002    -2.3427419157489595     
   9.4200000000000006E-002    -3.6757171015552554     
   9.4500000000000001E-002    -4.8124111818215312     
   9.4800000000000009E-002    -5.6863329114595444     
   9.5100000000000004E-002    -6.2505450169456651     
   9.5399999999999999E-002    -6.4803452807286703     
   9.5699999999999993E-002    -6.3748648398481293     
   9.6000000000000002E-002    -5.9566583497538375     
   9.6300000000000011E-002    -5.2684753164369340     
   9.6600000000000005E-002    -4.3695345493175068     
   9.6900000000000000E-002    -3.3298341540191103     
   9.7200000000000009E-002    -2.2236853546858626     
   9.7499999999999989E-002    -1.1241118478845422     
   9.7799999999999998E-002    -9.5826651450657607E-002
   9.8100000000000007E-002    0.80871662144307521     
   9.8400000000000015E-002     1.5535075034627273     
   9.8699999999999996E-002     2.1210590885376455     
   9.9000000000000005E-002     2.5112588803823499     
   9.9300000000000013E-002     2.7414269524056891     
   9.9599999999999994E-002     2.8417089873215247     
   9.9900000000000003E-002     2.8511666753961151     
  0.10020000000000001          2.8137260108807283     
  0.10049999999999999          2.7711787179498089     
  0.10080000000000000          2.7606512287631233     
  0.10110000000000001          2.8092392520416354     
  0.10140000000000000          2.9320791620751123     
  0.10170000000000000          3.1314809461638049     
  0.10200000000000001          3.3960494317321377     
  0.10230000000000002          3.7036524064672136     
  0.10260000000000000          4.0224793949370508     
  0.10290000000000001          4.3152937705237946     
  0.10320000000000000          4.5432186502385719     
  0.10350000000000001          4.6675843875840286     
  0.10380000000000000          4.6543022067263990     
  0.10410000000000001          4.4754166910194328     
  0.10440000000000001          4.1111570479420294     
  0.10470000000000000          3.5508419148604560     
  0.10500000000000000          2.7925782615456569     
  0.10530000000000000          1.8441857247241131     
  0.10560000000000000         0.72179712036041721     
  0.10590000000000001        -0.55053443326767137     
  0.10620000000000000         -1.9406660575699206     
  0.10650000000000001         -3.4107020725414223     
  0.10679999999999999         -4.9160834389624384     
  0.10710000000000000         -6.4078486706325677     
  0.10740000000000001         -7.8337679113404874     
  0.10770000000000000         -9.1395117535850261     
  0.10800000000000000         -10.271705800586631     
  0.10830000000000001         -11.178659084875846     
  0.10859999999999999         -11.815127617865244     
  0.10890000000000000         -12.143134031721786     
  0.10920000000000001         -12.134079164147749     
  0.10950000000000001         -11.772838903988657     
  0.10979999999999999         -11.056125681407366     
  0.11009999999999999         -9.9949029303821249     
  0.11040000000000001         -8.6131513835429132     
  0.11070000000000001         -6.9467364070135034     
  0.11100000000000000         -5.0425349517842051     
  0.11130000000000000         -2.9548811017792005     
  0.11160000000000002        -0.74488743745132702     
  0.11190000000000001          1.5238551548934112     
  0.11220000000000001          3.7859609668401930     
  0.11250000000000000          5.9767203921865502     
  0.11280000000000000          8.0343348018934417     
  0.11309999999999999          9.9001259722250978     
  0.11340000000000001          11.521404164894392     
  0.11369999999999998          12.850756719704293     
  0.11400000000000000          13.847930028520864     
  0.11430000000000000          14.481898611911561     
  0.11460000000000002          14.729920862236838     
  0.11489999999999999          14.580686999443060     
  0.11520000000000001          14.034384116068168     
  0.11550000000000001          13.104389271948151     
  0.11580000000000000          11.817896204815725     
  0.11609999999999999          10.214500395911443     
  0.11640000000000002          8.3477847690305964     
  0.11670000000000001          6.2818755199492671     
  0.11700000000000001          4.0896482846436726     
  0.11730000000000000          1.8511672638163148     
  0.11760000000000000        -0.35183397716507159     
  0.11789999999999999         -2.4387725831021640     
  0.11820000000000001         -4.3335737747972587     
  0.11850000000000001         -5.9695020260590042     
  0.11880000000000000         -7.2915349531682043     
  0.11910000000000000         -8.2585566252413116     
  0.11940000000000002         -8.8468610619571848     
  0.11970000000000001         -9.0491890067977465     
  0.12000000000000001         -8.8759562802705148     
  0.12030000000000000         -8.3552885346610708     
  0.12060000000000000         -7.5299245608811418     
  0.12089999999999999         -6.4576415473243571     
  0.12119999999999999         -5.2059160532639339     
  0.12150000000000001         -3.8513091227879812     
  0.12180000000000001         -2.4749899613039545     
  0.12210000000000000         -1.1578310281956963     
  0.12239999999999999          2.1146830102996006E-002
  0.12270000000000002         0.99220700241331627     
  0.12300000000000001          1.6961978314773916     
  0.12330000000000001          2.0895373066646385     
  0.12360000000000000          2.1479377210468265     
  0.12390000000000000          1.8660878627358368     
  0.12419999999999999          1.2623384956035153     
  0.12450000000000001         0.37506396530894826     
  0.12480000000000001        -0.73729337765507807     
  0.12509999999999999         -1.9987115009043208     
  0.12540000000000001         -3.3225725415266965     
  0.12570000000000003         -4.6134521127731674     
  0.12600000000000000         -5.7762595829648458     
  0.12630000000000002         -6.7211961447699800     
  0.12659999999999999         -7.3698084278283886     
  0.12690000000000001         -7.6622269891934849     
  0.12719999999999998         -7.5585381438055208     
  0.12750000000000000         -7.0457979963697994     
  0.12780000000000002         -6.1369751181001959     
  0.12809999999999999         -4.8706220019199975     
  0.12840000000000001         -3.3106625967948418     
  0.12869999999999998         -1.5396007744383233     
  0.12900000000000000         0.34409299917843583     
  0.12930000000000003          2.2349181364091635     
  0.12959999999999999          4.0261347877720226     
  0.12990000000000002          5.6173422730773126     
  0.13019999999999998          6.9231518311946303     
  0.13050000000000000          7.8758836766465521     
  0.13080000000000003          8.4343819787109027     
  0.13109999999999999          8.5838051241833853     
  0.13140000000000002          8.3374822238924367     
  0.13169999999999998          7.7366343126548429     
  0.13200000000000001          6.8451359965905283     
  0.13229999999999997          5.7463255351427733     
  0.13260000000000000          4.5345015936960635     
  0.13290000000000002          3.3091063967773238     
  0.13319999999999999          2.1655667695663396     
  0.13350000000000001          1.1879004615434070     
  0.13380000000000003         0.44260885379919301     
  0.13410000000000000         -2.7254058860427310E-002
  0.13440000000000002        -0.20468509040505811     
  0.13469999999999999         -9.9725721621503283E-002
  0.13500000000000001         0.25146348774363769     
  0.13529999999999998         0.79041273265695722     
  0.13560000000000000          1.4422693961571191     
  0.13590000000000002          2.1224734246419850     
  0.13619999999999999          2.7449144463857458     
  0.13650000000000001          3.2292214820494189     
  0.13680000000000003          3.5093242029380214     
  0.13710000000000000          3.5384269692710362     
  0.13740000000000002          3.2934690592555569     
  0.13769999999999999          2.7771303349381640     
  0.13800000000000001          2.0171935851006424     
  0.13829999999999998          1.0631555777271959     
  0.13860000000000000         -1.8668080675617205E-002
  0.13890000000000002         -1.1514716672440670     
  0.13919999999999999         -2.2565682154666575     
  0.13950000000000001         -3.2603065971846092     
  0.13979999999999998         -4.1017567901737557     
  0.14010000000000000         -4.7373439987256418     
  0.14040000000000002         -5.1450587220352446     
  0.14069999999999999         -5.3258184012366456     
  0.14100000000000001         -5.3014596712048387     
  0.14130000000000004         -5.1113418976449054     
  0.14160000000000000         -4.8069406073322796     
  0.14189999999999997         -4.4451777850078145     
  0.14219999999999999         -4.0809861317687961     
  0.14250000000000002         -3.7610132697375320     
  0.14279999999999998         -3.5179953237376083     
  0.14310000000000000         -3.3678438308437251     
  0.14339999999999997         -3.3073032116837737     
  0.14369999999999999         -3.3160462866313196     
  0.14400000000000002         -3.3609251946773355     
  0.14429999999999998         -3.3987549360649183     
  0.14460000000000001         -3.3852865038108320     
  0.14490000000000003         -3.2792833114187943     
  0.14520000000000000         -3.0493044038519059     
  0.14550000000000002         -2.6788089221094111     
  0.14579999999999999         -2.1667205691253812     
  0.14610000000000001         -1.5295764835307324     
  0.14640000000000003        -0.79754690055637667     
  0.14670000000000000         -1.3143411911626046E-002
  0.14699999999999996         0.77589539363528814     
  0.14729999999999999          1.5227017906405109     
  0.14760000000000001          2.1837731743370128     
  0.14789999999999998          2.7273352221433442     
  0.14820000000000000          3.1335329254365156     