  -1.4999999999999999E-002     0.0000000000000000     
  -1.4700000000000000E-002     0.0000000000000000     
  -1.4400000000000000E-002     0.0000000000000000     
  -1.4100000000000000E-002     0.0000000000000000     
  -1.3800000000000000E-002     0.0000000000000000     
  -1.3500000000000000E-002     0.0000000000000000     
  -1.3200000000000000E-002     0.0000000000000000     
  -1.2899999999999998E-002     0.0000000000000000     
  -1.2600000000000000E-002     0.0000000000000000     
  -1.2299999999999998E-002     0.0000000000000000     
  -1.2000000000000000E-002     0.0000000000000000     
  -1.1699999999999999E-002     0.0000000000000000     
  -1.1399999999999999E-002     0.0000000000000000     
  -1.1099999999999999E-002     0.0000000000000000     
  -1.0799999999999999E-002     0.0000000000000000     
  -1.0499999999999999E-002     0.0000000000000000     
  -1.0199999999999999E-002     0.0000000000000000     
  -9.8999999999999991E-003     0.0000000000000000     
  -9.5999999999999992E-003     0.0000000000000000     
  -9.2999999999999992E-003     0.0000000000000000     
  -8.9999999999999993E-003     0.0000000000000000     
  -8.6999999999999994E-003     0.0000000000000000     
  -8.3999999999999995E-003     0.0000000000000000     
  -8.0999999999999996E-003    -1.1988126579178846E-037
  -7.7999999999999988E-003     4.4659763211214216E-037
  -7.4999999999999997E-003     4.1475184749356641E-036
  -7.1999999999999998E-003    -5.1550434531004062E-036
  -6.8999999999999981E-003    -3.0302798075547886E-035
  -6.5999999999999982E-003    -5.4070641788025426E-034
  -6.3000000000000000E-003     6.0762673940881295E-033
  -6.0000000000000001E-003    -9.9230996506511620E-033
  -5.6999999999999985E-003    -9.5236150091795769E-032
  -5.3999999999999986E-003     1.0070494299429447E-030
  -5.1000000000000004E-003    -8.6526136839331248E-030
  -4.7999999999999987E-003     5.9243321797109711E-029
  -4.5000000000000005E-003    -2.7293332518431115E-028
  -4.1999999999999989E-003     7.8991980792293479E-028
  -3.8999999999999990E-003    -1.1704843455471920E-027
  -3.5999999999999990E-003    -6.1121801414259599E-028
  -3.2999999999999991E-003     6.3823414378397429E-027
  -2.9999999999999992E-003    -5.3251000703440789E-027
  -2.6999999999999993E-003    -5.3028786225814615E-026
  -2.3999999999999994E-003     2.6904207023160968E-025
  -2.0999999999999977E-003    -6.8218147822054501E-025
  -1.7999999999999995E-003     9.1419722859548240E-025
  -1.4999999999999979E-003     3.1575154531933123E-025
  -1.1999999999999997E-003    -5.0484777299226451E-024
  -8.9999999999999976E-004     1.3658051875909875E-023
  -5.9999999999999810E-004    -1.7381392667533265E-023
  -2.9999999999999992E-004    -1.8060557508369346E-023
   0.0000000000000000          1.7922399899713159E-022
   3.0000000000000165E-004    -6.2662780043203265E-022
   5.9999999999999984E-004     1.5501024240446531E-021
   9.0000000000000149E-004    -2.9277607468356112E-021
   1.2000000000000031E-003     3.9344300246481909E-021
   1.5000000000000013E-003    -2.0183973070743789E-021
   1.8000000000000030E-003    -7.8089714422901109E-021
   2.1000000000000012E-003     3.2136652702387219E-020
   2.3999999999999994E-003    -7.4993383585674594E-020
   2.7000000000000010E-003     1.2961914545315363E-019
   2.9999999999999992E-003    -1.6925189086486191E-019
   3.3000000000000008E-003     1.4792264185723737E-019
   3.6000000000000025E-003    -3.4906634634342967E-020
   3.9000000000000007E-003    -8.3013047486424615E-020
   4.2000000000000023E-003    -1.6471717587445858E-019
   4.5000000000000005E-003     1.4063923093315152E-018
   4.7999999999999987E-003    -3.2362426313274340E-018
   5.1000000000000004E-003    -9.4200243434612018E-019
   5.4000000000000020E-003     3.5726528410533745E-017
   5.7000000000000037E-003    -1.5524519613006453E-016
   5.9999999999999984E-003     4.1137913516588103E-016
   6.3000000000000000E-003    -6.7495083473546565E-016
   6.6000000000000017E-003     2.3775982469478121E-016
   6.9000000000000034E-003     2.3729568426087247E-015
   7.2000000000000015E-003    -7.4738954203963500E-015
   7.5000000000000032E-003     6.6983424570643120E-015
   7.8000000000000014E-003     3.0130539240867587E-014
   8.0999999999999996E-003    -1.5522473537341005E-013
   8.4000000000000012E-003     3.8187837662961271E-013
   8.7000000000000029E-003    -5.3228241320686219E-013
   9.0000000000000011E-003     1.1281298695390965E-013
   9.2999999999999992E-003     1.6543975280256394E-012
   9.6000000000000009E-003    -6.7838134871145705E-012
   9.8999999999999991E-003     2.3916735893862112E-011
   1.0200000000000001E-002    -7.2644792245034777E-011
   1.0500000000000002E-002     1.2926934027607305E-010
   1.0800000000000004E-002     9.4449823668384555E-011
   1.1099999999999999E-002    -1.2711062171070159E-009
   1.1400000000000000E-002     2.9397349814563214E-009
   1.1700000000000002E-002     6.9762218857640350E-010
   1.2000000000000004E-002    -1.7080101112533860E-008
   1.2300000000000002E-002     2.1724051176091998E-008
   1.2600000000000000E-002     5.2526141633841781E-008
   1.2900000000000002E-002    -1.3279502300763460E-007
   1.3200000000000000E-002    -1.7623098683054552E-007
   1.3500000000000002E-002     4.1405781347550667E-007
   1.3800000000000003E-002     6.1213114272626482E-007
   1.4100000000000001E-002    -9.0366206381769728E-007
   1.4400000000000000E-002    -1.9713027553316642E-006
   1.4700000000000001E-002     2.5556832642359667E-006
   1.4999999999999999E-002     1.4948050237397402E-005
   1.5300000000000001E-002     3.2408065247723286E-005
   1.5600000000000003E-002     5.3674611591231192E-005
   1.5899999999999997E-002     8.5691991645198400E-005
   1.6199999999999999E-002     1.4083294864838036E-004
   1.6500000000000001E-002     2.2994651282699395E-004
   1.6800000000000002E-002     3.6374939909107444E-004
   1.7100000000000004E-002     5.6345511480335696E-004
   1.7400000000000006E-002     8.6629316635141243E-004
   1.7700000000000000E-002     1.3195440450667582E-003
   1.8000000000000002E-002     1.9800725848758693E-003
   1.8300000000000004E-002     2.9298419475474249E-003
   1.8600000000000005E-002     4.2875359768163590E-003
   1.8900000000000000E-002     6.2011442852399068E-003
   1.9200000000000002E-002     8.8437437434559785E-003
   1.9500000000000003E-002     1.2434021641246629E-002
   1.9799999999999998E-002     1.7254420472457566E-002
   2.0100000000000000E-002     2.3637027371290087E-002
   2.0400000000000001E-002     3.1940626218235346E-002
   2.0700000000000003E-002     4.2552160711470055E-002
   2.0999999999999998E-002     5.5893066865254859E-002
   2.1299999999999999E-002     7.2387838861941223E-002
   2.1600000000000001E-002     9.2407124835088172E-002
   2.1900000000000003E-002    0.11622061266429640     
   2.2200000000000004E-002    0.14396181431858235     
   2.2500000000000006E-002    0.17556673971394687     
   2.2800000000000001E-002    0.21069771799185766     
   2.3100000000000002E-002    0.24867418316285406     
   2.3400000000000004E-002    0.28843947801906378     
   2.3699999999999999E-002    0.32853323142827762     
   2.4000000000000000E-002    0.36706307062777732     
   2.4300000000000002E-002    0.40173714083530676     
   2.4599999999999997E-002    0.42995955591917578     
   2.4900000000000005E-002    0.44895210492109427     
   2.5200000000000000E-002    0.45589575103073265     
   2.5499999999999995E-002    0.44812974039938069     
   2.5800000000000003E-002    0.42341717219938424     
   2.6099999999999998E-002    0.38017277407789329     
   2.6400000000000007E-002    0.31765203979889023     
   2.6700000000000002E-002    0.23615343856429849     
   2.6999999999999996E-002    0.13713874632014633     
   2.7300000000000005E-002     2.3298511293766921E-002
   2.7600000000000000E-002   -0.10155347046050966     
   2.7900000000000008E-002   -0.23271225554229646     
   2.8200000000000003E-002   -0.36485661749641718     
   2.8499999999999998E-002   -0.49231356133496007     
   2.8800000000000006E-002   -0.60953253002474561     
   2.9100000000000001E-002   -0.71159933199276537     
   2.9400000000000003E-002   -0.79470646249340149     
   2.9700000000000004E-002   -0.85644567750247091     
   3.0000000000000006E-002   -0.89598850539904262     
   3.0300000000000001E-002   -0.91427819864428983     
   3.0600000000000002E-002   -0.91404136591156870     
   3.0900000000000004E-002   -0.89948722117386737     
   3.1199999999999999E-002   -0.87593446716088508     
   3.1500000000000007E-002   -0.84924650350946251     
   3.1800000000000002E-002   -0.82531804070146464     
   3.2099999999999997E-002   -0.80945512681576304     
   3.2400000000000005E-002   -0.80558378552908394     
   3.2700000000000000E-002   -0.81582216945271568     
   3.3000000000000002E-002   -0.83997790256865557     
   3.3300000000000003E-002   -0.87532100969709958     
   3.3599999999999998E-002   -0.91655621092459683     
   3.3900000000000000E-002   -0.95588625037958153     
   3.4200000000000001E-002   -0.98344478131859958     
   3.4500000000000003E-002   -0.98806306004434674     
   3.4799999999999998E-002   -0.95808660012266245     
   3.5099999999999999E-002   -0.88218285033069321     
   3.5400000000000001E-002   -0.75041636125435573     
   3.5699999999999996E-002   -0.55563024130492522     
   3.6000000000000004E-002   -0.29445547978322573     
   3.6299999999999999E-002     3.2171902082858139E-002
   3.6600000000000008E-002    0.41839489814231934     
   3.6900000000000002E-002    0.85288857912128258     
   3.7199999999999997E-002     1.3190142945840435     
   3.7500000000000006E-002     1.7957751577872259     
   3.7800000000000000E-002     2.2588379864319847     
   3.8100000000000009E-002     2.6818374054034564     
   3.8400000000000004E-002     3.0380260330063464     
   3.8699999999999998E-002     3.3024403849663031     
   3.9000000000000007E-002     3.4540028666893079     
   3.9300000000000002E-002     3.4771592961375291     
   3.9600000000000003E-002     3.3633000004698630     
   3.9900000000000005E-002     3.1119862905673301     
   4.0200000000000000E-002     2.7315204825802368     
   4.0500000000000001E-002     2.2385411373831801     
   4.0800000000000003E-002     1.6568896761015068     
   4.1100000000000005E-002     1.0165022960749859     
   4.1399999999999999E-002    0.35148199137171510     
   4.1700000000000008E-002   -0.30248674161199496     
   4.2000000000000003E-002   -0.91072994697051657     
   4.2299999999999997E-002    -1.4417118156743243     
   4.2600000000000006E-002    -1.8690786005134470     
   4.2900000000000001E-002    -2.1737855606972687     
   4.3200000000000002E-002    -2.3449017785697635     
   4.3500000000000004E-002    -2.3803293721213947     
   4.3799999999999999E-002    -2.2865505829001478     
   4.4100000000000000E-002    -2.0780706566031597     
   4.4400000000000002E-002    -1.7761855843141561     
   4.4700000000000004E-002    -1.4074173866689250     
   4.4999999999999998E-002    -1.0017289917950656     
   4.5300000000000000E-002   -0.59042299005133003     
   4.5600000000000002E-002   -0.20394420169750838     
   4.5899999999999996E-002    0.12935005889812512     
   4.6200000000000005E-002    0.38528012793622057     
   4.6500000000000000E-002    0.54560270110246378     
   4.6799999999999994E-002    0.59861845870144137     
   4.7100000000000003E-002    0.54009495492703863     
   4.7399999999999998E-002    0.37349046550595943     
   4.7700000000000006E-002    0.11014263004442859     
   4.8000000000000001E-002   -0.23133543572348714     
   4.8300000000000010E-002   -0.62621131417593112     
   4.8600000000000004E-002    -1.0449737622242288     
   4.8899999999999999E-002    -1.4549830363556602     
   4.9200000000000008E-002    -1.8227665469220184     
   4.9500000000000002E-002    -2.1162085451145032     
   4.9800000000000011E-002    -2.3068711624760923     
   5.0100000000000006E-002    -2.3724594923487814     
   5.0400000000000000E-002    -2.2985067962867873     
   5.0700000000000009E-002    -2.0799053828342551     
   5.1000000000000004E-002    -1.7221956255183741     
   5.1299999999999998E-002    -1.2412566503226969     
   5.1600000000000007E-002   -0.66268946586411204     
   5.1900000000000002E-002    -2.0596032592493430E-002
   5.2200000000000010E-002    0.64477548519488082     
   5.2500000000000005E-002     1.2894957113778744     
   5.2800000000000000E-002     1.8694342212000077     
   5.3099999999999994E-002     2.3434643550075513     
   5.3400000000000003E-002     2.6766555063323025     
   5.3699999999999998E-002     2.8432560881060951     
   5.4000000000000006E-002     2.8284390955453205     
   5.4300000000000001E-002     2.6301974293084385     
   5.4599999999999996E-002     2.2602535752583606     
   5.4900000000000004E-002     1.7426543970791357     
   5.5199999999999999E-002     1.1123608560920459     
   5.5499999999999994E-002    0.41343108497210945     
   5.5800000000000002E-002   -0.30432555482998680     
   5.6099999999999997E-002   -0.98941209367131755     
   5.6400000000000006E-002    -1.5922421273008442     
   5.6700000000000000E-002    -2.0688363741710845     
   5.6999999999999995E-002    -2.3840601223471722     
   5.7300000000000004E-002    -2.5143873149289107     
   5.7599999999999998E-002    -2.4501140134620698     
   5.7900000000000007E-002    -2.1953049364443586     
   5.8200000000000002E-002    -1.7675572427696551     
   5.8499999999999996E-002    -1.1972028290719869     
   5.8800000000000005E-002   -0.52442278357347405     
   5.9100000000000000E-002    0.20374801380233976     
   5.9400000000000008E-002    0.93717302996968499     
   5.9700000000000003E-002     1.6259295127233724     
   6.0000000000000012E-002     2.2240005079446767     
   6.0300000000000006E-002     2.6925894474357079     
   6.0600000000000001E-002     3.0025863838765332     
   6.0900000000000010E-002     3.1363318881581819     
   6.1200000000000004E-002     3.0881905196681316     
   6.1500000000000013E-002     2.8643860356012283     
   6.1800000000000008E-002     2.4826395084161561     
   6.2100000000000002E-002     1.9698300941635267     
   6.2399999999999997E-002     1.3595632066589900     
   6.2700000000000006E-002    0.69012763111371100     
   6.3000000000000000E-002     1.2176773222378756E-003
   6.3300000000000009E-002   -0.66884457076588788     
   6.3600000000000004E-002    -1.2852520427716918     
   6.3899999999999998E-002    -1.8187353894703060     
   6.4199999999999993E-002    -2.2475830221633863     
   6.4500000000000002E-002    -2.5578664758256480     
   6.4800000000000010E-002    -2.7435515628164566     
   6.5100000000000005E-002    -2.8062524501456210     
   6.5400000000000000E-002    -2.7538230286465222     
   6.5700000000000008E-002    -2.5993465938028777     
   6.5999999999999989E-002    -2.3590924778247739     
   6.6299999999999998E-002    -2.0510908852882679     
   6.6600000000000006E-002    -1.6935005200886550     
   6.6900000000000001E-002    -1.3025173751240260     
   6.7199999999999996E-002   -0.89234943823944235     
   6.7500000000000004E-002   -0.47450754358450187     
   6.7800000000000013E-002    -5.6897398778452235E-002
   6.8099999999999994E-002    0.35539359192247488     
   6.8400000000000002E-002    0.75915097887024885     
   6.8700000000000011E-002     1.1523875073750318     
   6.8999999999999992E-002     1.5345340652273034     
   6.9300000000000000E-002     1.9049045670794149     
   6.9600000000000009E-002     2.2610459180359683     
   6.9900000000000004E-002     2.5994602059695460     
   7.0199999999999999E-002     2.9153375635903593     
   7.0500000000000007E-002     3.2018998741094435     
   7.0800000000000016E-002     3.4500605265864763     
   7.1099999999999997E-002     3.6493034100811315     
   7.1400000000000005E-002     3.7882737127160055     
   7.1700000000000000E-002     3.8546696153750872     
   7.1999999999999995E-002     3.8360658279053865     
   7.2300000000000003E-002     3.7201893662639094     
   7.2600000000000012E-002     3.4957190674434457     
   7.2900000000000006E-002     3.1533194108635882     
   7.3200000000000001E-002     2.6857981070935324     
   7.3499999999999996E-002     2.0885163473623720     
   7.3800000000000004E-002     1.3605046842418318     
   7.4099999999999999E-002    0.50549131715069962     
   7.4400000000000008E-002   -0.46805065559795622     
   7.4700000000000003E-002    -1.5470425328704067     
   7.5000000000000011E-002    -2.7111244332688500     
   7.5299999999999992E-002    -3.9331039116263327     
   7.5600000000000001E-002    -5.1799650361106853     
   7.5900000000000009E-002    -6.4114434710994885     
   7.6200000000000004E-002    -7.5794496460080722     
   7.6499999999999999E-002    -8.6305966959727130     
   7.6800000000000007E-002    -9.5077016338398437     
   7.7099999999999988E-002    -10.150329092242202     
   7.7399999999999997E-002    -10.498636229348335     
   7.7700000000000005E-002    -10.497917220411125     
   7.8000000000000014E-002    -10.102677981971794     
   7.8299999999999995E-002    -9.2801856806460137     
   7.8600000000000003E-002    -8.0162496276503248     
   7.8900000000000012E-002    -6.3195552607440959     
   7.9199999999999993E-002    -4.2239116870823921     
   7.9500000000000001E-002    -1.7890662213518382     
   7.9800000000000010E-002    0.89851195753561797     
   8.0100000000000018E-002     3.7293856163439898     
   8.0399999999999999E-002     6.5759585287794664     
   8.0700000000000008E-002     9.2999369663795264     
   8.1000000000000003E-002     11.760562775507829     
   8.1299999999999997E-002     13.823790655145274     
   8.1600000000000006E-002     15.371889214978523     
   8.1900000000000014E-002     16.311701919441361     
   8.2199999999999995E-002     16.581777399294936     
   8.2500000000000004E-002     16.156662811707918     
   8.2799999999999999E-002     15.048635863968343     
   8.3100000000000007E-002     13.307627171777256     
   8.3400000000000002E-002     11.018093270866586     
   8.3700000000000011E-002     8.2925670447917241     
   8.4000000000000005E-002     5.2642638856761863     
   8.4300000000000000E-002     2.0799546677811627     
   8.4599999999999995E-002    -1.1091287365230755     
   8.4900000000000003E-002    -4.1566611746250715     
   8.5199999999999998E-002    -6.9284560874388319     
   8.5500000000000007E-002    -9.3076080741454916     
   8.5800000000000001E-002    -11.201394454539106     
   8.6100000000000010E-002    -12.544926809267565     
   8.6399999999999991E-002    -13.301930274446761     
   8.6699999999999999E-002    -13.465424630762641     
   8.7000000000000008E-002    -13.057563036582962     
   8.7300000000000003E-002    -12.126793184063274     
   8.7599999999999997E-002    -10.744666512000833     
   8.7900000000000006E-002    -9.0017510301322545     
   8.8200000000000014E-002    -7.0018242401393422     
   8.8499999999999995E-002    -4.8564928668236718     
   8.8800000000000004E-002    -2.6798928950376819     
   8.9100000000000013E-002   -0.58252484026811224     
   8.9399999999999993E-002     1.3355131068037736     
   8.9700000000000002E-002     2.9887809284973912     
   9.0000000000000011E-002     4.3096699459048651     
   9.0299999999999991E-002     5.2527613487438742     
   9.0600000000000000E-002     5.7970603171256272     
   9.0900000000000009E-002     5.9447404327605113     
   9.1200000000000017E-002     5.7210436006772056     
   9.1499999999999998E-002     5.1717430012926684     
   9.1800000000000007E-002     4.3591499895529608     
   9.2100000000000001E-002     3.3579514879080108     
   9.2399999999999996E-002     2.2497814115526396     
   9.2700000000000005E-002     1.1176046624294642     
   9.3000000000000013E-002     3.9393700054343839E-002
   9.3300000000000008E-002   -0.91543507313054562     
   9.3600000000000003E-002    -1.6902949309682853     
   9.3899999999999997E-002    -2.2457881157821564     
   9.4200000000000006E-002    -2.5617804140666678     
   9.4500000000000001E-002    -2.6362232764785745     
   9.4800000000000009E-002    -2.4842853337031983     
   9.5100000000000004E-002    -2.1375693732093026     
   9.5399999999999999E-002    -1.6400445043655481     
   9.5699999999999993E-002    -1.0429923701619579     
   9.6000000000000002E-002   -0.40091148306125080     
   9.6300000000000011E-002    0.23330849856933966     
   9.6600000000000005E-002    0.81244398021242858     
   9.6900000000000000E-002     1.2990812386750719     
   9.7200000000000009E-002     1.6685569912963985     
   9.7499999999999989E-002     1.9089122429058381     
   9.7799999999999998E-002     2.0221390787136038     
   9.8100000000000007E-002     2.0227287374051173     
   9.8400000000000015E-002     1.9346232731771096     
   9.8699999999999996E-002     1.7886266258331034     
   9.9000000000000005E-002     1.6185755370111252     
   9.9300000000000013E-002     1.4578694324722790     
   9.9599999999999994E-002     1.3356568754693612     
   9.9900000000000003E-002     1.2735401304919804     
  0.10020000000000001          1.2844607929985941     
  0.10049999999999999          1.3718141755669464     
  0.10080000000000000          1.5284920309095114     
  0.10110000000000001          1.7388901001621591     
  0.10140000000000000          1.9806739429318512     
  0.10170000000000000          2.2275471214695344     
  0.10200000000000001          2.4515772749560583     
  0.10230000000000002          2.6249077230248332     
  0.10260000000000000          2.7241188358201072     
  0.10290000000000001          2.7318108000036005     
  0.10320000000000000          2.6365291636872286     
  0.10350000000000001          2.4339824604224845     
  0.10380000000000000          2.1271109807247157     
  0.10410000000000001          1.7252525426112229     
  0.10440000000000001          1.2428615288293301     
  0.10470000000000000         0.69751945851176345     
  0.10500000000000000         0.10896436109599161     
  0.10530000000000000        -0.50269476403533986     
  0.10560000000000000         -1.1184730306526518     
  0.10590000000000001         -1.7210530881409642     
  0.10620000000000000         -2.2952102585245129     
  0.10650000000000001         -2.8285548822276638     
  0.10679999999999999         -3.3112957253452180     
  0.10710000000000000         -3.7360844656633390     
  0.10740000000000001         -4.0973631126239098     
  0.10770000000000000         -4.3907373913785364     
  0.10800000000000000         -4.6137427462153369     
  0.10830000000000001         -4.7647815439025010     
  0.10859999999999999         -4.8426175002821878     
  0.10890000000000000         -4.8470455402841139     
  0.10920000000000001         -4.7793559235045961     
  0.10950000000000001         -4.6414366850228816     
  0.10979999999999999         -4.4354694536486932     
  0.11009999999999999         -4.1655432340509719     
  0.11040000000000001         -3.8377260246860629     
  0.11070000000000001         -3.4586681099614793     
  0.11100000000000000         -3.0361412255750935     
  0.11130000000000000         -2.5802161023394632     
  0.11160000000000002         -2.1023321158229322     
  0.11190000000000001         -1.6145240854420280     
  0.11220000000000001         -1.1300981852513878     
  0.11250000000000000        -0.66173075433893658     
  0.11280000000000000        -0.22122530120989392     
  0.11309999999999999         0.18086648280107376     
  0.11340000000000001         0.53729166475493528     
  0.11369999999999998         0.84515493582182799     
  0.11400000000000000          1.1059793117865784     
  0.11430000000000000          1.3260548595318493     
  0.11460000000000002          1.5160866094616829     
  0.11489999999999999          1.6910992031710865     
  0.11520000000000001          1.8677616275071376     
  0.11550000000000001          2.0626745227915997     
  0.11580000000000000          2.2912199074116906     
  0.11609999999999999          2.5647576558945886     
  0.11640000000000002          2.8888330692766147     
  0.11670000000000001          3.2628977536847685     
  0.11700000000000001          3.6809859291322127     
  0.11730000000000000          4.1316025754606898     
  0.11760000000000000          4.5996457524866656     
  0.11789999999999999          5.0684572930851743     
  0.11820000000000001          5.5222728301890101     
  0.11850000000000001          5.9473880946942472     
  0.11880000000000000          6.3326956243279824     
  0.11910000000000000          6.6702048612730209     
  0.11940000000000002          6.9535184274739947     
  0.11970000000000001          7.1761588905100098     
  0.12000000000000001          7.3292359449115452     
  0.12030000000000000          7.3990134244403691     
  0.12060000000000000          7.3664783472438273     
  0.12089999999999999          7.2069502479869811     
  0.12119999999999999          6.8914721591377770     
  0.12150000000000001          6.3898658167799454     
  0.12180000000000001          5.6752558479874722     
  0.12210000000000000          4.7288679608483903     
  0.12239999999999999          3.5447522012473911     
  0.12270000000000002          2.1343248426248067     
  0.12300000000000001         0.52763247049111328     
  0.12330000000000001         -1.2265425070370242     
  0.12360000000000000         -3.0634792082521045     
  0.12390000000000000         -4.9088954198824624     
  0.12419999999999999         -6.6857091068025341     
  0.12450000000000001         -8.3234856598245344     
  0.12480000000000001         -9.7666635111652482     
  0.12509999999999999         -10.981917092744169     
  0.12540000000000001         -11.963220951614687     
  0.12570000000000003         -12.731510283073646     
  0.12600000000000000         -13.332617100981622     
  0.12630000000000002         -13.829636465657927     
  0.12659999999999999         -14.290326453578530     
  0.12690000000000001         -14.775496641953850     
  0.12719999999999998         -15.325100884701328     
  0.12750000000000000         -15.944533470680369     
  0.12780000000000002         -16.594630727758670     
  0.12809999999999999         -17.188374348500361     
  0.12840000000000001         -17.594022768511593     
  0.12869999999999998         -17.641019617041195     
  0.12900000000000000         -17.135484883585889     
  0.12930000000000003         -15.884229571354240     
  0.12959999999999999         -13.717090252788637     
  0.12990000000000002         -10.509843713435913     
  0.13019999999999998         -6.2099180206084554     
  0.13050000000000000        -0.85448537547745218     
  0.13080000000000003          5.4204770958652375     
  0.13109999999999999          12.378341221567382     
  0.13140000000000002          19.690058709041182     
  0.13169999999999998          26.953906639284497     
  0.13200000000000001          33.724413181123680     
  0.13229999999999997          39.545128112811526     
  0.13260000000000000          43.985627647872903     
  0.13290000000000002          46.680119324349107     
  0.13319999999999999          47.359224211784692     
  0.13350000000000001          45.875078870285279     
  0.13380000000000003          42.218314724629863     
  0.13410000000000000          36.521663164734719     
  0.13440000000000002          29.051559584132065     
  0.13469999999999999          20.192342497075856     
  0.13500000000000001          10.415953186152635     
  0.13529999999999998         0.24777768972376180     
  0.13560000000000000         -9.7677206025268788     
  0.13590000000000002         -19.107882318219936     
  0.13619999999999999         -27.304993409015196     
  0.13650000000000001         -33.974898473241751     
  0.13680000000000003         -38.838697215416460     
  0.13710000000000000         -41.734571300592677     
  0.13740000000000002         -42.621420604948739     
  0.13769999999999999         -41.575335976249278     
  0.13800000000000001         -38.774173281113576     
  0.13829999999999998         -34.481587952091900     
  0.13860000000000000         -29.023867589701354     
  0.13890000000000002         -22.765536457466965     
  0.13919999999999999         -16.085958813670231     
  0.13950000000000001         -9.3548145640763778     
  0.13979999999999998         -2.9097653278910229     
  0.14010000000000000          2.9564756830924068     
  0.14040000000000002          8.0106280245498169     
  0.14069999999999999          12.088125705252310     
  0.14100000000000001          15.094308294082794     
  0.14130000000000004          17.004772855847648     
  0.14160000000000000          17.858063957353409     
  0.14189999999999997          17.747499787445264     
  0.14219999999999999          16.811305171182397     
  0.14250000000000002          15.216633436832183     
  0.14279999999999998          13.147716398018702     
  0.14310000000000000          10.792635448282056     
  0.14339999999999997          8.3285407334722663     
  0.14369999999999999          5.9149443289219192     
  0.14400000000000002          3.6833765237717984     
  0.14429999999999998          1.7329556346555659     
  0.14460000000000001         0.12995623348315632     
  0.14490000000000003         -1.0935322386975770     
  0.14520000000000000         -1.9352349924481587     
  0.14550000000000002         -2.4180531005590922     
  0.14579999999999999         -2.5851691779096058     
  0.14610000000000001         -2.4928223020559699     
  0.14640000000000003         -2.2037189127299399     
  0.14670000000000000         -1.7830089365888639     
  0.14699999999999996         -1.2922278404965879     
  0.14729999999999999        -0.78532326561972354     
  0.14760000000000001        -0.30729854872274753     
  0.14789999999999998         0.10750129361925431     
  0.14820000000000000         0.43610616256560775     