  -1.4999999999999999E-002     0.0000000000000000     
  -1.4700000000000000E-002     0.0000000000000000     
  -1.4400000000000000E-002     0.0000000000000000     
  -1.4100000000000000E-002     0.0000000000000000     
  -1.3800000000000000E-002     0.0000000000000000     
  -1.3500000000000000E-002     0.0000000000000000     
  -1.3200000000000000E-002     0.0000000000000000     
  -1.2899999999999998E-002     0.0000000000000000     
  -1.2600000000000000E-002     0.0000000000000000     
  -1.2299999999999998E-002     0.0000000000000000     
  -1.2000000000000000E-002     0.0000000000000000     
  -1.1699999999999999E-002     0.0000000000000000     
  -1.1399999999999999E-002     0.0000000000000000     
  -1.1099999999999999E-002     0.0000000000000000     
  -1.0799999999999999E-002     0.0000000000000000     
  -1.0499999999999999E-002     0.0000000000000000     
  -1.0199999999999999E-002     0.0000000000000000     
  -9.8999999999999991E-003     0.0000000000000000     
  -9.5999999999999992E-003     0.0000000000000000     
  -9.2999999999999992E-003     0.0000000000000000     
  -8.9999999999999993E-003     0.0000000000000000     
  -8.6999999999999994E-003     0.0000000000000000     
  -8.3999999999999995E-003     0.0000000000000000     
  -8.0999999999999996E-003     0.0000000000000000     
  -7.7999999999999988E-003     0.0000000000000000     
  -7.4999999999999997E-003     0.0000000000000000     
  -7.1999999999999998E-003     0.0000000000000000     
  -6.8999999999999981E-003     0.0000000000000000     
  -6.5999999999999982E-003     0.0000000000000000     
  -6.3000000000000000E-003     0.0000000000000000     
  -6.0000000000000001E-003     0.0000000000000000     
  -5.6999999999999985E-003     0.0000000000000000     
  -5.3999999999999986E-003     0.0000000000000000     
  -5.1000000000000004E-003    -1.4211758129763414E-037
  -4.7999999999999987E-003    -1.3952165494681547E-036
  -4.5000000000000005E-003     1.7943629633288725E-035
  -4.1999999999999989E-003    -2.0448384989240441E-035
  -3.8999999999999990E-003    -3.2354073116725009E-034
  -3.5999999999999990E-003     9.6594478638880054E-034
  -3.2999999999999991E-003     1.5353297539259745E-033
  -2.9999999999999992E-003    -1.5046047542733181E-032
  -2.6999999999999993E-003     2.3165872477889474E-032
  -2.3999999999999994E-003     1.2070061683988921E-031
  -2.0999999999999977E-003    -6.6766738203678042E-031
  -1.7999999999999995E-003     8.9889871548155327E-031
  -1.4999999999999979E-003     2.6633843715805746E-030
  -1.1999999999999997E-003    -1.3075513206333755E-029
  -8.9999999999999976E-004     2.5221382384017030E-029
  -5.9999999999999810E-004    -4.5542261287742718E-029
  -2.9999999999999992E-004     1.3639372865889203E-028
   0.0000000000000000         -2.5127118740141168E-028
   3.0000000000000165E-004    -5.1694746109616636E-028
   5.9999999999999984E-004     4.8347923695241913E-027
   9.0000000000000149E-004    -1.4933285566037588E-026
   1.2000000000000031E-003     1.9835610392338931E-026
   1.5000000000000013E-003     3.2470388359749063E-026
   1.8000000000000030E-003    -2.5081112620829289E-025
   2.1000000000000012E-003     7.1274031356901229E-025
   2.3999999999999994E-003    -1.1600093760466499E-024
   2.7000000000000010E-003     5.4347224823263249E-025
   2.9999999999999992E-003     3.0627140392694955E-024
   3.3000000000000008E-003    -1.1132360313307970E-023
   3.6000000000000025E-003     2.0982183463408304E-023
   3.9000000000000007E-003    -2.0702925146845041E-023
   4.2000000000000023E-003    -1.1553334432226094E-023
   4.5000000000000005E-003     9.3502450100583717E-023
   4.7999999999999987E-003    -2.0284676325840496E-022
   5.1000000000000004E-003     2.3161645540746271E-022
   5.4000000000000020E-003     2.8351243862386948E-023
   5.7000000000000037E-003    -8.1655387511490826E-022
   5.9999999999999984E-003     2.2435830488481531E-021
   6.3000000000000000E-003    -4.1200458482105552E-021
   6.6000000000000017E-003     5.7392358039803508E-021
   6.9000000000000034E-003    -4.3992723340316808E-021
   7.2000000000000015E-003    -1.2389234958447222E-020
   7.5000000000000032E-003     9.2472566889583669E-020
   7.8000000000000014E-003    -3.6948509595118553E-019
   8.0999999999999996E-003     1.0743177043511416E-018
   8.4000000000000012E-003    -2.1809078654289820E-018
   8.7000000000000029E-003     1.8239690834698317E-018
   9.0000000000000011E-003     7.5842845487733373E-018
   9.2999999999999992E-003    -4.3708433115715561E-017
   9.6000000000000009E-003     1.2534046453451290E-016
   9.8999999999999991E-003    -2.1368998907315719E-016
   1.0200000000000001E-002     7.0345287263574945E-017
   1.0500000000000002E-002     8.2298058570759927E-016
   1.0800000000000004E-002    -2.4371286500175013E-015
   1.1099999999999999E-002    -1.1411791554699768E-016
   1.1400000000000000E-002     3.0101892685907141E-014
   1.1700000000000002E-002    -1.6128138678482712E-013
   1.2000000000000004E-002     5.6854397630487034E-013
   1.2300000000000002E-002    -1.4904896347692585E-012
   1.2600000000000000E-002     2.5106595426301575E-012
   1.2900000000000002E-002     4.8857426241892039E-013
   1.3200000000000000E-002    -2.1276096290192354E-011
   1.3500000000000002E-002     7.7649814769281790E-011
   1.3800000000000003E-002    -1.2296472828461966E-010
   1.4100000000000001E-002    -9.9125043846697434E-011
   1.4400000000000000E-002     9.0730947234681827E-010
   1.4700000000000001E-002    -1.3774305000647943E-009
   1.4999999999999999E-002    -1.7428068080673626E-009
   1.5300000000000001E-002     7.6387970815925840E-009
   1.5600000000000003E-002    -3.8618179514993831E-010
   1.5899999999999997E-002    -2.5890866278705385E-008
   1.6199999999999999E-002    -5.3436752083246402E-010
   1.6500000000000001E-002     5.9041782103478134E-008
   1.6800000000000002E-002     2.4417976544364484E-008
   1.7100000000000004E-002    -1.1013122094539123E-007
   1.7400000000000006E-002    -1.2735576251190953E-007
   1.7700000000000000E-002     3.4877686617259005E-007
   1.8000000000000002E-002     1.8763636098489159E-006
   1.8300000000000004E-002     5.1729779173707087E-006
   1.8600000000000005E-002     1.1043490884487460E-005
   1.8900000000000000E-002     2.0611479055561790E-005
   1.9200000000000002E-002     3.5766108227350160E-005
   1.9500000000000003E-002     5.9551173097997226E-005
   1.9799999999999998E-002     9.6709760171297815E-005
   2.0100000000000000E-002     1.5426609088899828E-004
   2.0400000000000001E-002     2.4196213468842282E-004
   2.0700000000000003E-002     3.7379625331900902E-004
   2.0999999999999998E-002     5.7084770693275472E-004
   2.1299999999999999E-002     8.6250169991538075E-004
   2.1600000000000001E-002     1.2863058391040516E-003
   2.1900000000000003E-002     1.8915160253069607E-003
   2.2200000000000004E-002     2.7462045378410932E-003
   2.2500000000000006E-002     3.9409718364857849E-003
   2.2800000000000001E-002     5.5876002502710104E-003
   2.3100000000000002E-002     7.8196543220733772E-003
   2.3400000000000004E-002     1.0799212412729936E-002
   2.3699999999999999E-002     1.4722058956587847E-002
   2.4000000000000000E-002     1.9813819306456482E-002
   2.4300000000000002E-002     2.6320206566119109E-002
   2.4599999999999997E-002     3.4498807600784276E-002
   2.4900000000000005E-002     4.4611797970838918E-002
   2.5200000000000000E-002     5.6908419795981047E-002
   2.5499999999999995E-002     7.1593982683840096E-002
   2.5800000000000003E-002     8.8799677444192149E-002
   2.6099999999999998E-002    0.10855347142259930     
   2.6400000000000007E-002    0.13074307946325359     
   2.6700000000000002E-002    0.15507455630034928     
   2.6999999999999996E-002    0.18104524780704612     
   2.7300000000000005E-002    0.20791955732580636     
   2.7600000000000000E-002    0.23471573566725201     
   2.7900000000000008E-002    0.26020042493407392     
   2.8200000000000003E-002    0.28292127057566852     
   2.8499999999999998E-002    0.30126046560846831     
   2.8800000000000006E-002    0.31350379894195690     
   2.9100000000000001E-002    0.31794366765386961     
   2.9400000000000003E-002    0.31296617226055190     
   2.9700000000000004E-002    0.29721115346548643     
   3.0000000000000006E-002    0.26970126422047436     
   3.0300000000000001E-002    0.22994780387424996     
   3.0600000000000002E-002    0.17805386401483148     
   3.0900000000000004E-002    0.11475784202967709     
   3.1199999999999999E-002     4.1515193944468676E-002
   3.1500000000000007E-002    -3.9557220161497986E-002
   3.1800000000000002E-002   -0.12581111195335276     
   3.2099999999999997E-002   -0.21420391471598776     
   3.2400000000000005E-002   -0.30145931234918422     
   3.2700000000000000E-002   -0.38428858110394515     
   3.3000000000000002E-002   -0.45967463445302137     
   3.3300000000000003E-002   -0.52511575974866886     
   3.3599999999999998E-002   -0.57885392848366912     
   3.3900000000000000E-002   -0.62008860139664534     
   3.4200000000000001E-002   -0.64904490905158951     
   3.4500000000000003E-002   -0.66701212830000145     
   3.4799999999999998E-002   -0.67627721485994030     
   3.5099999999999999E-002   -0.67996884490467835     
   3.5400000000000001E-002   -0.68182231877837651     
   3.5699999999999996E-002   -0.68574054435318388     
   3.6000000000000004E-002   -0.69539437129598625     
   3.6299999999999999E-002   -0.71378661696578760     
   3.6600000000000008E-002   -0.74278934580829414     
   3.6900000000000002E-002   -0.78273446325639284     
   3.7199999999999997E-002   -0.83208467009323428     
   3.7500000000000006E-002   -0.88719822603670906     
   3.7800000000000000E-002   -0.94236848729642730     
   3.8100000000000009E-002   -0.99003510339572998     
   3.8400000000000004E-002    -1.0211007318893941     
   3.8699999999999998E-002    -1.0254279786717078     
   3.9000000000000007E-002   -0.99274143281480676     
   3.9300000000000002E-002   -0.91351980619035444     
   3.9600000000000003E-002   -0.77985401266500887     
   3.9900000000000005E-002   -0.58628817821876211     
   4.0200000000000000E-002   -0.33086500943209884     
   4.0500000000000001E-002    -1.5705523311791314E-002
   4.0800000000000003E-002    0.35258750902566849     
   4.1100000000000005E-002    0.76281394460546981     
   4.1399999999999999E-002     1.1995002863935511     
   4.1700000000000008E-002     1.6434430714795667     
   4.2000000000000003E-002     2.0725873272785407     
   4.2299999999999997E-002     2.4634296864891994     
   4.2600000000000006E-002     2.7924364777789208     
   4.2900000000000001E-002     3.0375983686853232     
   4.3200000000000002E-002     3.1799879124382784     
   4.3500000000000004E-002     3.2052812496091576     
   4.3799999999999999E-002     3.1051141056866669     
   4.4100000000000000E-002     2.8778172678686218     
   4.4400000000000002E-002     2.5289299562071506     
   4.4700000000000004E-002     2.0711902390953583     
   4.4999999999999998E-002     1.5240217988546192     
   4.5300000000000000E-002    0.91255290904196329     
   4.5600000000000002E-002    0.26623506527006668     
   4.5899999999999996E-002   -0.38295586547620708     
   4.6200000000000005E-002    -1.0023945192194788     
   4.6500000000000000E-002    -1.5609407940329802     
   4.6799999999999994E-002    -2.0307696558395847     
   4.7100000000000003E-002    -2.3890299111058795     
   4.7399999999999998E-002    -2.6192468489831953     
   4.7700000000000006E-002    -2.7123722497645701     
   4.8000000000000001E-002    -2.6671927112936942     
   4.8300000000000010E-002    -2.4902394995965551     
   4.8600000000000004E-002    -2.1952839854229182     
   4.8899999999999999E-002    -1.8023164278787007     
   4.9200000000000008E-002    -1.3364628566876391     
   4.9500000000000002E-002   -0.82626764816230747     
   4.9800000000000011E-002   -0.30173890913784351     
   5.0100000000000006E-002    0.20727328677215695     
   5.0400000000000000E-002    0.67270119214744017     
   5.0700000000000009E-002     1.0700177523225562     
   5.1000000000000004E-002     1.3795638409898672     
   5.1299999999999998E-002     1.5877271159266471     
   5.1600000000000007E-002     1.6876110724023192     
   5.1900000000000002E-002     1.6790583211791059     
   5.2200000000000010E-002     1.5687641413159739     
   5.2500000000000005E-002     1.3697178886795953     
   5.2800000000000000E-002     1.0999899187290438     
   5.3099999999999994E-002    0.78152084267028599     
   5.3400000000000003E-002    0.43849142498342175     
   5.3699999999999998E-002     9.5678331208324252E-002
   5.4000000000000006E-002   -0.22322826412800190     
   5.4300000000000001E-002   -0.49758879184564897     
   5.4599999999999996E-002   -0.71098958220373731     
   5.4900000000000004E-002   -0.85211735664076471     
   5.5199999999999999E-002   -0.91554525207705950     
   5.5499999999999994E-002   -0.90173124270768668     
   5.5800000000000002E-002   -0.81690511815992650     
   5.6099999999999997E-002   -0.67202641050132783     
   5.6400000000000006E-002   -0.48157402504976865     
   5.6700000000000000E-002   -0.26247717724876551     
   5.6999999999999995E-002    -3.2569374767890347E-002
   5.7300000000000004E-002    0.19093074946877131     
   5.7599999999999998E-002    0.39262932527948813     
   5.7900000000000007E-002    0.55986606632740532     
   5.8200000000000002E-002    0.68319631707877804     
   5.8499999999999996E-002    0.75670208369690073     
   5.8800000000000005E-002    0.77806207669004479     
   5.9100000000000000E-002    0.74762939269240292     
   5.9400000000000008E-002    0.66780161775566782     
   5.9700000000000003E-002    0.54255994137988850     
   6.0000000000000012E-002    0.37647647945184559     
   6.0300000000000006E-002    0.17384375293003629     
   6.0600000000000001E-002    -6.1466185172371013E-002
   6.0900000000000010E-002   -0.32597696013609667     
   6.1200000000000004E-002   -0.61638444217500266     
   6.1500000000000013E-002   -0.92892051194219150     
   6.1800000000000008E-002    -1.2586164035206480     
   6.2100000000000002E-002    -1.5980269373766731     
   6.2399999999999997E-002    -1.9367648677494671     
   6.2700000000000006E-002    -2.2609718107545120     
   6.3000000000000000E-002    -2.5531712746486050     
   6.3300000000000009E-002    -2.7927643022228779     
   6.3600000000000004E-002    -2.9574440106584206     
   6.3899999999999998E-002    -3.0248783776175969     
   6.4199999999999993E-002    -2.9749001741440395     
   6.4500000000000002E-002    -2.7921804637780809     
   6.4800000000000010E-002    -2.4687151186424359     
   6.5100000000000005E-002    -2.0055899939825892     
   6.5400000000000000E-002    -1.4145868788014369     
   6.5700000000000008E-002   -0.71868734085047592     
   6.5999999999999989E-002     4.8564875823906561E-002
   6.6299999999999998E-002    0.84476946220656046     
   6.6600000000000006E-002     1.6218820330193815     
   6.6900000000000001E-002     2.3296773593334770     
   6.7199999999999996E-002     2.9196043038063024     
   6.7500000000000004E-002     3.3493849270624239     
   6.7800000000000013E-002     3.5872527320587864     
   6.8099999999999994E-002     3.6146717209431216     
   6.8400000000000002E-002     3.4283010320695695     
   6.8700000000000011E-002     3.0408381533955406     
   6.8999999999999992E-002     2.4806615868287167     
   6.9300000000000000E-002     1.7896011710228805     
   6.9600000000000009E-002     1.0187061529062440     
   6.9900000000000004E-002    0.22474467603620951     
   7.0199999999999999E-002   -0.53413675687658468     
   7.0500000000000007E-002    -1.2037928300454688     
   7.0800000000000016E-002    -1.7384585895083973     
   7.1099999999999997E-002    -2.1039155915739585     
   7.1400000000000005E-002    -2.2799894471137208     
   7.1700000000000000E-002    -2.2618414408139103     
   7.1999999999999995E-002    -2.0599247981694191     
   7.2300000000000003E-002    -1.6982014998978556     
   7.2600000000000012E-002    -1.2118765608370197     
   7.2900000000000006E-002   -0.64424538579413237     
   7.3200000000000001E-002    -4.2101935362331311E-002
   7.3499999999999996E-002    0.54766715130139687     
   7.3800000000000004E-002     1.0814540744849701     
   7.4099999999999999E-002     1.5230928993778647     
   7.4400000000000008E-002     1.8463817468551653     
   7.4700000000000003E-002     2.0359674264920926     
   7.5000000000000011E-002     2.0886856198163954     
   7.5299999999999992E-002     2.0130036393666799     
   7.5600000000000001E-002     1.8277085536684154     
   7.5900000000000009E-002     1.5603151245226314     
   7.6200000000000004E-002     1.2442345226329294     
   7.6499999999999999E-002    0.91552705249531030     
   7.6800000000000007E-002    0.60973327554097878     
   7.7099999999999988E-002    0.35941225423183454     
   7.7399999999999997E-002    0.19177923104978678     
   7.7700000000000005E-002    0.12534261586663842     
   7.8000000000000014E-002    0.16874720164620438     
   7.8299999999999995E-002    0.32140528087021902     
   7.8600000000000003E-002    0.57299058657747848     
   7.8900000000000012E-002    0.90380005504548566     
   7.9199999999999993E-002     1.2865878601303855     
   7.9500000000000001E-002     1.6891870384548788     
   7.9800000000000010E-002     2.0770141913154845     
   8.0100000000000018E-002     2.4154437164140354     
   8.0399999999999999E-002     2.6721754259209263     
   8.0700000000000008E-002     2.8197012703454902     
   8.1000000000000003E-002     2.8373227327464789     
   8.1299999999999997E-002     2.7125769991601203     
   8.1600000000000006E-002     2.4420714776834274     
   8.1900000000000014E-002     2.0308352406964332     
   8.2199999999999995E-002     1.4929722221508399     
   8.2500000000000004E-002    0.85077668372979431     
   8.2799999999999999E-002    0.13207352414977125     
   8.3100000000000007E-002   -0.63074854583727102     
   8.3400000000000002E-002    -1.4024719954317981     
   8.3700000000000011E-002    -2.1486125539217014     
   8.4000000000000005E-002    -2.8373403420017596     
   8.4300000000000000E-002    -3.4414058536293908     
   8.4599999999999995E-002    -3.9403800920740224     
   8.4900000000000003E-002    -4.3232297249654152     
   8.5199999999999998E-002    -4.5882650946906836     
   8.5500000000000007E-002    -4.7427527324437193     
   8.5800000000000001E-002    -4.8032732157651594     
   8.6100000000000010E-002    -4.7942914099152176     
   8.6399999999999991E-002    -4.7442202687911106     
   8.6699999999999999E-002    -4.6822646432783017     
   8.7000000000000008E-002    -4.6357865648703154     
   8.7300000000000003E-002    -4.6262088346838794     
   8.7599999999999997E-002    -4.6657037744691650     
   8.7900000000000006E-002    -4.7544607290987955     
   8.8200000000000014E-002    -4.8795812944699577     
   8.8499999999999995E-002    -5.0154423464557283     
   8.8800000000000004E-002    -5.1255332506599132     
   8.9100000000000013E-002    -5.1649086507485151     
   8.9399999999999993E-002    -5.0835034159168799     
   8.9700000000000002E-002    -4.8321971280587945     
   9.0000000000000011E-002    -4.3684110389363582     
   9.0299999999999991E-002    -3.6598071686339750     
   9.0600000000000000E-002    -2.6879210557615210     
   9.0900000000000009E-002    -1.4523885593291439     
   9.1200000000000017E-002     2.7181570778349595E-002
   9.1499999999999998E-002     1.7124690277657066     
   9.1800000000000007E-002     3.5486510090206593     
   9.2100000000000001E-002     5.4658603568078163     
   9.2399999999999996E-002     7.3837121720762617     
   9.2700000000000005E-002     9.2175672862399693     
   9.3000000000000013E-002     10.882969585697253     
   9.3300000000000008E-002     12.300192703445560     
   9.3600000000000003E-002     13.399786503535694     
   9.3899999999999997E-002     14.126494517134176     
   9.4200000000000006E-002     14.441093578146308     
   9.4500000000000001E-002     14.322554396131807     
   9.4800000000000009E-002     13.768814222200604     
   9.5100000000000004E-002     12.795066154252879     
   9.5399999999999999E-002     11.432001619860500     
   9.5699999999999993E-002     9.7245829181322847     
   9.6000000000000002E-002     7.7284651992031002     
   9.6300000000000011E-002     5.5059048833367683     
   9.6600000000000005E-002     3.1244657388668458     
   9.6900000000000000E-002    0.65467422786434071     
   9.7200000000000009E-002    -1.8331507731348040     
   9.7499999999999989E-002    -4.2698246150251578     
   9.7799999999999998E-002    -6.5877624417913268     
   9.8100000000000007E-002    -8.7219124497735194     
   9.8400000000000015E-002    -10.611297143298302     
   9.8699999999999996E-002    -12.198645795373778     
   9.9000000000000005E-002    -13.430788942255333     
   9.9300000000000013E-002    -14.261945995247743     
   9.9599999999999994E-002    -14.656065708334552     
   9.9900000000000003E-002    -14.587572897781740     
  0.10020000000000001         -14.045225677274914     
  0.10049999999999999         -13.035269951787313     
  0.10080000000000000         -11.583708117975220     
  0.10110000000000001         -9.7374421662228201     
  0.10140000000000000         -7.5634670836600151     
  0.10170000000000000         -5.1487760034958399     
  0.10200000000000001         -2.5968245716994858     
  0.10230000000000002         -2.1254613378978604E-002
  0.10260000000000000          2.4587323699392982     
  0.10290000000000001          4.7262174340213789     
  0.10320000000000000          6.6747713884080113     
  0.10350000000000001          8.2143995698149439     
  0.10380000000000000          9.2787043596569703     
  0.10410000000000001          9.8295033635950801     
  0.10440000000000001          9.8588085388675495     
  0.10470000000000000          9.3894917383302641     
  0.10500000000000000          8.4736369765692530     
  0.10530000000000000          7.1881409738483342     
  0.10560000000000000          5.6290782888954141     
  0.10590000000000001          3.9042171095432536     
  0.10620000000000000          2.1269774790586666     
  0.10650000000000001         0.40731400567970866     
  0.10679999999999999         -1.1557583133699936     
  0.10710000000000000         -2.4780149507805902     
  0.10740000000000001         -3.4952319930943077     
  0.10770000000000000         -4.1681714902852178     
  0.10800000000000000         -4.4820470169513484     
  0.10830000000000001         -4.4453340893475684     
  0.10859999999999999         -4.0893949584375946     
  0.10890000000000000         -3.4650108180147043     
  0.10920000000000001         -2.6372917603759873     
  0.10950000000000001         -1.6802399166958040     
  0.10979999999999999        -0.67292014801150968     
  0.11009999999999999         0.30654479008543944     
  0.11040000000000001          1.1880479123233840     
  0.11070000000000001          1.9124372913378238     
  0.11100000000000000          2.4337969005506181     
  0.11130000000000000          2.7252698888983531     
  0.11160000000000002          2.7787664761388404     
  0.11190000000000001          2.6042052091644905     
  0.11220000000000001          2.2292794838648149     
  0.11250000000000000          1.6960515343921685     
  0.11280000000000000          1.0574494430055026     
  0.11309999999999999         0.37326268718822142     
  0.11340000000000001        -0.29571759547296494     
  0.11369999999999998        -0.89245621754444926     
  0.11400000000000000         -1.3679560164261844     
  0.11430000000000000         -1.6850130896029540     
  0.11460000000000002         -1.8213168858978719     
  0.11489999999999999         -1.7722979587611416     
  0.11520000000000001         -1.5487479555547878     
  0.11550000000000001         -1.1757166282062386     
  0.11580000000000000        -0.69252324100128249     
  0.11609999999999999        -0.14681747363489706     
  0.11640000000000002         0.41132430168054412     
  0.11670000000000001         0.93103357412962140     
  0.11700000000000001          1.3663315276837764     
  0.11730000000000000          1.6813593168988916     
  0.11760000000000000          1.8523071207018162     
  0.11789999999999999          1.8691590292574851     
  0.11820000000000001          1.7359051406304218     
  0.11850000000000001          1.4707246992534238     
  0.11880000000000000          1.1031299456488242     
  0.11910000000000000         0.66931561173017862     
  0.11940000000000002         0.20991917286670159     
  0.11970000000000001        -0.23426868918082988     
  0.12000000000000001        -0.62704609729677330     
  0.12030000000000000        -0.93920843906393259     
  0.12060000000000000         -1.1525045825037168     
  0.12089999999999999         -1.2597802380364982     
  0.12119999999999999         -1.2638360738469583     
  0.12150000000000001         -1.1785249568764540     
  0.12180000000000001         -1.0265483781195393     
  0.12210000000000000        -0.83496942188393675     
  0.12239999999999999        -0.63217400167577509     
  0.12270000000000002        -0.44596936195308601     
  0.12300000000000001        -0.30045285636363595     
  0.12330000000000001        -0.21270604372393942     
  0.12360000000000000        -0.19097378115638897     
  0.12390000000000000        -0.23642232318702661     
  0.12419999999999999        -0.34288219358446526     
  0.12450000000000001        -0.49643632025038187     
  0.12480000000000001        -0.67929714352888126     
  0.12509999999999999        -0.87222918784468106     
  0.12540000000000001         -1.0555673985119007     
  0.12570000000000003         -1.2122485438172532     
  0.12600000000000000         -1.3292177201803952     
  0.12630000000000002         -1.3985499909737058     
  0.12659999999999999         -1.4177772204845525     
  0.12690000000000001         -1.3884677200767328     
  0.12719999999999998         -1.3162665838741034     
  0.12750000000000000         -1.2094181337997156     
  0.12780000000000002         -1.0757153447899519     
  0.12809999999999999        -0.92226591158999582     
  0.12840000000000001        -0.75379879627912771     
  0.12869999999999998        -0.57183051869616719     
  0.12900000000000000        -0.37515308882613496     
  0.12930000000000003        -0.15917460659514049     
  0.12959999999999999          8.2474185746432838E-002
  0.12990000000000002         0.35533880731091116     
  0.13019999999999998         0.66433705241953778     
  0.13050000000000000          1.0117638261506690     
  0.13080000000000003          1.3946310983714660     
  0.13109999999999999          1.8053963027841959     
  0.13140000000000002          2.2314346512700141     
  0.13169999999999998          2.6549230917242141     
  0.13200000000000001          3.0536641471034613     
  0.13229999999999997          3.4034411405215792     
  0.13260000000000000          3.6810282745589973     
  0.13290000000000002          3.8641494679939115     
  0.13319999999999999          3.9337277062022906     
  0.13350000000000001          3.8786132411801191     
  0.13380000000000003          3.6948001524562670     
  0.13410000000000000          3.3852483394696691     
  0.13440000000000002          2.9618321315415272     
  0.13469999999999999          2.4440522242264393     
  0.13500000000000001          1.8575005969959619     
  0.13529999999999998          1.2311040262097919     
  0.13560000000000000         0.59451462199632665     
  0.13590000000000002         -2.2955754764121039E-002
  0.13619999999999999        -0.59491373875972897     
  0.13650000000000001         -1.1017844391890517     
  0.13680000000000003         -1.5305189078096708     
  0.13710000000000000         -1.8752295129736254     
  0.13740000000000002         -2.1364245095946757     
  0.13769999999999999         -2.3211170495805504     
  0.13800000000000001         -2.4412414923452914     
  0.13829999999999998         -2.5101635291746689     
  0.13860000000000000         -2.5416566866680697     
  0.13890000000000002         -2.5493712013196443     
  0.13919999999999999         -2.5439033630162413     
  0.13950000000000001         -2.5334517182879139     
  0.13979999999999998         -2.5239213100457789     
  0.14010000000000000         -2.5185502235195329     
  0.14040000000000002         -2.5196507956151777     
  0.14069999999999999         -2.5291951433374606     
  0.14100000000000001         -2.5492017494734824     
  0.14130000000000004         -2.5820925768374252     
  0.14160000000000000         -2.6302544996035948     
  0.14189999999999997         -2.6948786682957433     
  0.14219999999999999         -2.7744548469404720     
  0.14250000000000002         -2.8645330684556995     
  0.14279999999999998         -2.9568431893444398     
  0.14310000000000000         -3.0378390883020785     
  0.14339999999999997         -3.0899267246855544     
  0.14369999999999999         -3.0937855451353755     
  0.14400000000000002         -3.0300142872620484     
  0.14429999999999998         -2.8803191573277900     
  0.14460000000000001         -2.6314744821329299     
  0.14490000000000003         -2.2775848475658123     
  0.14520000000000000         -1.8205309970742576     
  0.14550000000000002         -1.2707811421359203     
  0.14579999999999999        -0.64532931221800993     
  0.14610000000000001          3.4591133290740927E-002
  0.14640000000000003         0.74496284900585863     
  0.14670000000000000          1.4635363594160324     
  0.14699999999999996          2.1733222277378736     
  0.14729999999999999          2.8641425234403610     
  0.14760000000000001          3.5329778596509875     
  0.14789999999999998          4.1835153482846152     
  0.14820000000000000          4.8245723605843978     