  -1.4999999999999999E-002     0.0000000000000000     
  -1.4700000000000000E-002     0.0000000000000000     
  -1.4400000000000000E-002     0.0000000000000000     
  -1.4100000000000000E-002     0.0000000000000000     
  -1.3800000000000000E-002     0.0000000000000000     
  -1.3500000000000000E-002     0.0000000000000000     
  -1.3200000000000000E-002     0.0000000000000000     
  -1.2899999999999998E-002     0.0000000000000000     
  -1.2600000000000000E-002     0.0000000000000000     
  -1.2299999999999998E-002     0.0000000000000000     
  -1.2000000000000000E-002     0.0000000000000000     
  -1.1699999999999999E-002     0.0000000000000000     
  -1.1399999999999999E-002     0.0000000000000000     
  -1.1099999999999999E-002     0.0000000000000000     
  -1.0799999999999999E-002     0.0000000000000000     
  -1.0499999999999999E-002     0.0000000000000000     
  -1.0199999999999999E-002     0.0000000000000000     
  -9.8999999999999991E-003     0.0000000000000000     
  -9.5999999999999992E-003     0.0000000000000000     
  -9.2999999999999992E-003     0.0000000000000000     
  -8.9999999999999993E-003     0.0000000000000000     
  -8.6999999999999994E-003     0.0000000000000000     
  -8.3999999999999995E-003     0.0000000000000000     
  -8.0999999999999996E-003     0.0000000000000000     
  -7.7999999999999988E-003     0.0000000000000000     
  -7.4999999999999997E-003     0.0000000000000000     
  -7.1999999999999998E-003     0.0000000000000000     
  -6.8999999999999981E-003     0.0000000000000000     
  -6.5999999999999982E-003    -2.5713134578919017E-038
  -6.3000000000000000E-003     1.7895943675742992E-036
  -6.0000000000000001E-003     3.2606386626394488E-036
  -5.6999999999999985E-003     8.9174074780740077E-035
  -5.3999999999999986E-003    -5.5089230510599567E-034
  -5.1000000000000004E-003    -7.8355235510028309E-033
  -4.7999999999999987E-003     8.3123202227436745E-032
  -4.5000000000000005E-003    -2.8843394057736771E-031
  -4.1999999999999989E-003     7.7552228870358711E-032
  -3.8999999999999990E-003     2.6926881703890583E-030
  -3.5999999999999990E-003    -8.8425499893713434E-030
  -3.2999999999999991E-003     4.0230340595875403E-030
  -2.9999999999999992E-003     5.3340495554438122E-029
  -2.6999999999999993E-003    -1.6088231716314470E-028
  -2.3999999999999994E-003    -1.7042313336639602E-029
  -2.0999999999999977E-003     1.4735250522942882E-027
  -1.7999999999999995E-003    -5.0016785841725393E-027
  -1.4999999999999979E-003     7.3146580472514114E-027
  -1.1999999999999997E-003     5.6166804007098710E-027
  -8.9999999999999976E-004    -6.4663655632113338E-026
  -5.9999999999999810E-004     2.1858337281591067E-025
  -2.9999999999999992E-004    -5.0792327939897396E-025
   0.0000000000000000          8.2126169057354127E-025
   3.0000000000000165E-004    -4.6970356018669485E-025
   5.9999999999999984E-004    -2.5039975521871043E-024
   9.0000000000000149E-004     1.1347540873968077E-023
   1.2000000000000031E-003    -2.7136606880323828E-023
   1.5000000000000013E-003     3.7665012734111226E-023
   1.8000000000000030E-003     1.6920845535937241E-024
   2.1000000000000012E-003    -1.8162826882939754E-022
   2.3999999999999994E-003     6.1319897443353079E-022
   2.7000000000000010E-003    -1.3223467599811822E-021
   2.9999999999999992E-003     2.0625645580329959E-021
   3.3000000000000008E-003    -2.1430448291594657E-021
   3.6000000000000025E-003     4.8929035799638288E-022
   3.9000000000000007E-003     3.8336343840527129E-021
   4.2000000000000023E-003    -1.0606869947901417E-020
   4.5000000000000005E-003     1.7038914107807955E-020
   4.7999999999999987E-003    -1.4812505790333196E-020
   5.1000000000000004E-003    -1.9707668566955382E-020
   5.4000000000000020E-003     1.5134357566151031E-019
   5.7000000000000037E-003    -5.1763892568650981E-019
   5.9999999999999984E-003     1.2507258307064641E-018
   6.3000000000000000E-003    -1.9369734784442383E-018
   6.6000000000000017E-003     2.0230924927880528E-019
   6.9000000000000034E-003     9.3968991444167276E-018
   7.2000000000000015E-003    -2.9043760527169995E-017
   7.5000000000000032E-003     2.8998067070132565E-017
   7.8000000000000014E-003     9.5930345864371361E-017
   8.0999999999999996E-003    -4.3041793926270060E-016
   8.4000000000000012E-003     2.9657146053369097E-016
   8.7000000000000029E-003     3.7491795827843469E-015
   9.0000000000000011E-003    -1.9550057441517811E-014
   9.2999999999999992E-003     5.0869498771730776E-014
   9.6000000000000009E-003    -5.9551457732079371E-014
   9.8999999999999991E-003    -9.0950088172531141E-014
   1.0200000000000001E-002     5.3220486828306490E-013
   1.0500000000000002E-002    -6.3371248353039089E-013
   1.0800000000000004E-002    -2.6407235773073801E-012
   1.1099999999999999E-002     1.4175535745231116E-011
   1.1400000000000000E-002    -2.6109274464669596E-011
   1.1700000000000002E-002    -2.3859653836000305E-011
   1.2000000000000004E-002     2.6372737327307050E-010
   1.2300000000000002E-002    -5.9642302208118281E-010
   1.2600000000000000E-002    -1.0380711568114265E-010
   1.2900000000000002E-002     3.6937273240056356E-009
   1.3200000000000000E-002    -6.4064238358696457E-009
   1.3500000000000002E-002    -8.8938527653681376E-009
   1.3800000000000003E-002     4.0522863287151267E-008
   1.4100000000000001E-002     4.8498236537852790E-009
   1.4400000000000000E-002    -1.7969342991364101E-007
   1.4700000000000001E-002    -2.3596884446419608E-008
   1.4999999999999999E-002     5.8181780104860081E-007
   1.5300000000000001E-002     2.5759604227459931E-007
   1.5600000000000003E-002    -1.5262928627635119E-006
   1.5899999999999997E-002    -1.1800802894867957E-006
   1.6199999999999999E-002     6.0871984715049621E-006
   1.6500000000000001E-002     1.9684575818246230E-005
   1.6800000000000002E-002     3.5006745747523382E-005
   1.7100000000000004E-002     5.3400315664475784E-005
   1.7400000000000006E-002     8.6038111476227641E-005
   1.7700000000000000E-002     1.4500286488328129E-004
   1.8000000000000002E-002     2.3616342514287680E-004
   1.8300000000000004E-002     3.6787631688639522E-004
   1.8600000000000005E-002     5.6467775721102953E-004
   1.8900000000000000E-002     8.6572184227406979E-004
   1.9200000000000002E-002     1.3138414360582829E-003
   1.9500000000000003E-002     1.9604002591222525E-003
   1.9799999999999998E-002     2.8849453665316105E-003
   2.0100000000000000E-002     4.2007253505289555E-003
   2.0400000000000001E-002     6.0420786030590534E-003
   2.0700000000000003E-002     8.5658291354775429E-003
   2.0999999999999998E-002     1.1975782923400402E-002
   2.1299999999999999E-002     1.6532547771930695E-002
   2.1600000000000001E-002     2.2530781105160713E-002
   2.1900000000000003E-002     3.0280949547886848E-002
   2.2200000000000004E-002     4.0120903402566910E-002
   2.2500000000000006E-002     5.2421189844608307E-002
   2.2800000000000001E-002     6.7543275654315948E-002
   2.3100000000000002E-002     8.5782893002033234E-002
   2.3400000000000004E-002    0.10734041780233383     
   2.3699999999999999E-002    0.13229599595069885     
   2.4000000000000000E-002    0.16055139899253845     
   2.4300000000000002E-002    0.19175112247467041     
   2.4599999999999997E-002    0.22524037957191467     
   2.4900000000000005E-002    0.26005074381828308     
   2.5200000000000000E-002    0.29487082362174988     
   2.5499999999999995E-002    0.32801961898803711     
   2.5800000000000003E-002    0.35748663544654846     
   2.6099999999999998E-002    0.38104104995727539     
   2.6400000000000007E-002    0.39632704854011536     
   2.6700000000000002E-002    0.40097033977508545     
   2.6999999999999996E-002    0.39275518059730530     
   2.7300000000000005E-002    0.36984592676162720     
   2.7600000000000000E-002    0.33098849654197693     
   2.7900000000000008E-002    0.27564865350723267     
   2.8200000000000003E-002    0.20413713157176971     
   2.8499999999999998E-002    0.11773359775543213     
   2.8800000000000006E-002     1.8725438043475151E-002
   2.9100000000000001E-002    -8.9697949588298798E-002
   2.9400000000000003E-002   -0.20364183187484741     
   2.9700000000000004E-002   -0.31872272491455078     
   3.0000000000000006E-002   -0.43032348155975342     
   3.0300000000000001E-002   -0.53392076492309570     
   3.0600000000000002E-002   -0.62552303075790405     
   3.0900000000000004E-002   -0.70202356576919556     
   3.1199999999999999E-002   -0.76142781972885132     
   3.1500000000000007E-002   -0.80301624536514282     
   3.1800000000000002E-002   -0.82751601934432983     
   3.2099999999999997E-002   -0.83706468343734741     
   3.2400000000000005E-002   -0.83498293161392212     
   3.2700000000000000E-002   -0.82547914981842041     
   3.3000000000000002E-002   -0.81331121921539307     
   3.3300000000000003E-002   -0.80329424142837524     
   3.3599999999999998E-002   -0.79970985651016235     
   3.3900000000000000E-002   -0.80580037832260132     
   3.4200000000000001E-002   -0.82334887981414795     
   3.4500000000000003E-002   -0.85222953557968140     
   3.4799999999999998E-002   -0.89012366533279419     
   3.5099999999999999E-002   -0.93238884210586548     
   3.5400000000000001E-002   -0.97221255302429199     
   3.5699999999999996E-002    -1.0008922815322876     
   3.6000000000000004E-002    -1.0083063840866089     
   3.6299999999999999E-002   -0.98360514640808105     
   3.6600000000000008E-002   -0.91610372066497803     
   3.6900000000000002E-002   -0.79630488157272339     
   3.7199999999999997E-002   -0.61685317754745483     
   3.7500000000000006E-002   -0.37357431650161743     
   3.7800000000000000E-002    -6.6349230706691742E-002
   3.8100000000000009E-002    0.30027416348457336     
   3.8400000000000004E-002    0.71669948101043701     
   3.8699999999999998E-002     1.1683695316314697     
   3.9000000000000007E-002     1.6362047195434570     
   3.9300000000000002E-002     2.0973932743072510     
   3.9600000000000003E-002     2.5267217159271240     
   3.9900000000000005E-002     2.8982431888580322     
   4.0200000000000000E-002     3.1870608329772949     
   4.0500000000000001E-002     3.3711390495300293     
   4.0800000000000003E-002     3.4331862926483154     
   4.1100000000000005E-002     3.3622286319732666     
   4.1399999999999999E-002     3.1547555923461914     
   4.1700000000000008E-002     2.8153924942016602     
   4.2000000000000003E-002     2.3569955825805664     
   4.2299999999999997E-002     1.8001978397369385     
   4.2600000000000006E-002     1.1720608472824097     
   4.2900000000000001E-002    0.50455808639526367     
   4.3200000000000002E-002   -0.16748726367950439     
   4.3500000000000004E-002   -0.80866062641143799     
   4.3799999999999999E-002    -1.3853322267532349     
   4.4100000000000000E-002    -1.8678622245788574     
   4.4400000000000002E-002    -2.2324433326721191     
   4.4700000000000004E-002    -2.4626743793487549     
   4.4999999999999998E-002    -2.5504996776580811     
   4.5300000000000000E-002    -2.4963352680206299     
   4.5600000000000002E-002    -2.3089828491210938     
   4.5899999999999996E-002    -2.0050458908081055     
   4.6200000000000005E-002    -1.6075266599655151     
   4.6500000000000000E-002    -1.1440993547439575     
   4.6799999999999994E-002   -0.64535039663314819     
   4.7100000000000003E-002   -0.14305835962295532     
   4.7399999999999998E-002    0.33181455731391907     
   4.7700000000000006E-002    0.75097173452377319     
   4.8000000000000001E-002     1.0905084609985352     
   4.8300000000000010E-002     1.3320674896240234     
   4.8600000000000004E-002     1.4634341001510620     
   4.8899999999999999E-002     1.4792180061340332     
   4.9200000000000008E-002     1.3814115524291992     
   4.9500000000000002E-002     1.1788316965103149     
   4.9800000000000011E-002    0.88607132434844971     
   5.0100000000000006E-002    0.52276837825775146     
   5.0400000000000000E-002    0.11262443661689758     
   5.0700000000000009E-002   -0.31837192177772522     
   5.1000000000000004E-002   -0.74383747577667236     
   5.1299999999999998E-002    -1.1381404399871826     
   5.1600000000000007E-002    -1.4779818058013916     
   5.1900000000000002E-002    -1.7440153360366821     
   5.2200000000000010E-002    -1.9217410087585449     
   5.2500000000000005E-002    -2.0021114349365234     
   5.2800000000000000E-002    -1.9819926023483276     
   5.3099999999999994E-002    -1.8641779422760010     
   5.3400000000000003E-002    -1.6570283174514771     
   5.3699999999999998E-002    -1.3739644289016724     
   5.4000000000000006E-002    -1.0326936244964600     
   5.4300000000000001E-002   -0.65378487110137939     
   5.4599999999999996E-002   -0.25985759496688843     
   5.4900000000000004E-002    0.12544398009777069     
   5.5199999999999999E-002    0.47862994670867920     
   5.5499999999999994E-002    0.77758908271789551     
   5.5800000000000002E-002     1.0026724338531494     
   5.6099999999999997E-002     1.1375699043273926     
   5.6400000000000006E-002     1.1703704595565796     
   5.6700000000000000E-002     1.0941830873489380     
   5.6999999999999995E-002    0.90825849771499634     
   5.7300000000000004E-002    0.61853051185607910     
   5.7599999999999998E-002    0.23736734688282013     
   5.7900000000000007E-002   -0.21624577045440674     
   5.8200000000000002E-002   -0.71657943725585938     
   5.8499999999999996E-002    -1.2325319051742554     
   5.8800000000000005E-002    -1.7296352386474609     
   5.9100000000000000E-002    -2.1714096069335938     
   5.9400000000000008E-002    -2.5213325023651123     
   5.9700000000000003E-002    -2.7459187507629395     
   6.0000000000000012E-002    -2.8175621032714844     
   6.0300000000000006E-002    -2.7166059017181396     
   6.0600000000000001E-002    -2.4335498809814453     
   6.0900000000000010E-002    -1.9707355499267578     
   6.1200000000000004E-002    -1.3429647684097290     
   6.1500000000000013E-002   -0.57737398147583008     
   6.1800000000000008E-002    0.28779166936874390     
   6.2100000000000002E-002     1.2056673765182495     
   6.2399999999999997E-002     2.1234092712402344     
   6.2700000000000006E-002     2.9858236312866211     
   6.3000000000000000E-002     3.7393851280212402     
   6.3300000000000009E-002     4.3363900184631348     
   6.3600000000000004E-002     4.7385387420654297     
   6.3899999999999998E-002     4.9198374748229980     
   6.4199999999999993E-002     4.8683958053588867     
   6.4500000000000002E-002     4.5877337455749512     
   6.4800000000000010E-002     4.0967497825622559     
   6.5100000000000005E-002     3.4279074668884277     
   6.5400000000000000E-002     2.6244909763336182     
   6.5700000000000008E-002     1.7375119924545288     
   6.5999999999999989E-002    0.82180106639862061     
   6.6299999999999998E-002    -6.8644024431705475E-002
   6.6600000000000006E-002   -0.88482040166854858     
   6.6900000000000001E-002    -1.5863397121429443     
   6.7199999999999996E-002    -2.1439812183380127     
   6.7500000000000004E-002    -2.5416486263275146     
   6.7800000000000013E-002    -2.7771086692810059     
   6.8099999999999994E-002    -2.8610630035400391     
   6.8400000000000002E-002    -2.8152544498443604     
   6.8700000000000011E-002    -2.6695568561553955     
   6.8999999999999992E-002    -2.4585158824920654     
   6.9300000000000000E-002    -2.2170836925506592     
   6.9600000000000009E-002    -1.9772208929061890     
   6.9900000000000004E-002    -1.7646137475967407     
   7.0199999999999999E-002    -1.5957293510437012     
   7.0500000000000007E-002    -1.4763348102569580     
   7.0800000000000016E-002    -1.4014027118682861     
   7.1099999999999997E-002    -1.3560477495193481     
   7.1400000000000005E-002    -1.3171647787094116     
   7.1700000000000000E-002    -1.2562940120697021     
   7.1999999999999995E-002    -1.1432098150253296     
   7.2300000000000003E-002   -0.94898092746734619     
   7.2600000000000012E-002   -0.64939248561859131     
   7.2900000000000006E-002   -0.22802543640136719     
   7.3200000000000001E-002    0.32124298810958862     
   7.3499999999999996E-002    0.99329590797424316     
   7.3800000000000004E-002     1.7716885805130005     
   7.4099999999999999E-002     2.6286733150482178     
   7.4400000000000008E-002     3.5263640880584717     
   7.4700000000000003E-002     4.4195294380187988     
   7.5000000000000011E-002     5.2582645416259766     
   7.5299999999999992E-002     5.9904108047485352     
   7.5600000000000001E-002     6.5650491714477539     
   7.5900000000000009E-002     6.9360709190368652     
   7.6200000000000004E-002     7.0648288726806641     
   7.6499999999999999E-002     6.9223585128784180     
   7.6800000000000007E-002     6.4915118217468262     
   7.7099999999999988E-002     5.7686653137207031     
   7.7399999999999997E-002     4.7639207839965820     
   7.7700000000000005E-002     3.5005385875701904     
   7.8000000000000014E-002     2.0141010284423828     
   7.8299999999999995E-002    0.35098478198051453     
   7.8600000000000003E-002    -1.4345266819000244     
   7.8900000000000012E-002    -3.2828438282012939     
   7.9199999999999993E-002    -5.1314244270324707     
   7.9500000000000001E-002    -6.9179391860961914     
   7.9800000000000010E-002    -8.5825004577636719     
   8.0100000000000018E-002    -10.069053649902344     
   8.0399999999999999E-002    -11.326498985290527     
   8.0700000000000008E-002    -12.309698104858398     
   8.1000000000000003E-002    -12.979632377624512     
   8.1299999999999997E-002    -13.303023338317871     
   8.1600000000000006E-002    -13.252783775329590     
   8.1900000000000014E-002    -12.808857917785645     
   8.2199999999999995E-002    -11.959249496459961     
   8.2500000000000004E-002    -10.701881408691406     
   8.2799999999999999E-002    -9.0465116500854492     
   8.3100000000000007E-002    -7.0177378654479980     
   8.3400000000000002E-002    -4.6575994491577148     
   8.3700000000000011E-002    -2.0268526077270508     
   8.4000000000000005E-002    0.79515320062637329     
   8.4300000000000000E-002     3.7109878063201904     
   8.4599999999999995E-002     6.6076984405517578     
   8.4900000000000003E-002     9.3628435134887695     
   8.5199999999999998E-002     11.851732254028320     
   8.5500000000000007E-002     13.954498291015625     
   8.5800000000000001E-002     15.564280509948730     
   8.6100000000000010E-002     16.596542358398438     
   8.6399999999999991E-002     16.996618270874023     
   8.6699999999999999E-002     16.743272781372070     
   8.7000000000000008E-002     15.850726127624512     
   8.7300000000000003E-002     14.369350433349609     
   8.7599999999999997E-002     12.382085800170898     
   8.7900000000000006E-002     9.9973592758178711     
   8.8200000000000014E-002     7.3411517143249512     
   8.8499999999999995E-002     4.5481371879577637     
   8.8800000000000004E-002     1.7527930736541748     
   8.9100000000000013E-002   -0.91991508007049561     
   8.9399999999999993E-002    -3.3617906570434570     
   8.9700000000000002E-002    -5.4863219261169434     
   9.0000000000000011E-002    -7.2309050559997559     
   9.0299999999999991E-002    -8.5577831268310547     
   9.0600000000000000E-002    -9.4534530639648438     
   9.0900000000000009E-002    -9.9247808456420898     
   9.1200000000000017E-002    -9.9945917129516602     
   9.1499999999999998E-002    -9.6993465423583984     
   9.1800000000000007E-002    -9.0849437713623047     
   9.2100000000000001E-002    -8.2018775939941406     
   9.2399999999999996E-002    -7.1032834053039551     
   9.2700000000000005E-002    -5.8450741767883301     
   9.3000000000000013E-002    -4.4836945533752441     
   9.3300000000000008E-002    -3.0745804309844971     
   9.3600000000000003E-002    -1.6730047464370728     
   9.3899999999999997E-002   -0.33408093452453613     
   9.4200000000000006E-002    0.88920432329177856     
   9.4500000000000001E-002     1.9478789567947388     
   9.4800000000000009E-002     2.7975869178771973     
   9.5100000000000004E-002     3.4014801979064941     
   9.5399999999999999E-002     3.7336430549621582     
   9.5699999999999993E-002     3.7806110382080078     
   9.6000000000000002E-002     3.5430183410644531     
   9.6300000000000011E-002     3.0378022193908691     
   9.6600000000000005E-002     2.2981088161468506     
   9.6900000000000000E-002     1.3715673685073853     
   9.7200000000000009E-002    0.31869482994079590     
   9.7499999999999989E-002   -0.79059571027755737     
   9.7799999999999998E-002    -1.8817336559295654     
   9.8100000000000007E-002    -2.8800358772277832     
   9.8400000000000015E-002    -3.7158069610595703     
   9.8699999999999996E-002    -4.3298192024230957     
   9.9000000000000005E-002    -4.6776275634765625     
   9.9300000000000013E-002    -4.7324686050415039     
   9.9599999999999994E-002    -4.4872779846191406     
   9.9900000000000003E-002    -3.9562146663665771     
  0.10020000000000001         -3.1723015308380127     
  0.10049999999999999         -2.1848497390747070     
  0.10080000000000000         -1.0562554597854614     
  0.10110000000000001         0.14303639531135559     
  0.10140000000000000          1.3410782814025879     
  0.10170000000000000          2.4692847728729248     
  0.10200000000000001          3.4669098854064941     
  0.10230000000000002          4.2860994338989258     
  0.10260000000000000          4.8949408531188965     
  0.10290000000000001          5.2783260345458984     
  0.10320000000000000          5.4377770423889160     
  0.10350000000000001          5.3910107612609863     
  0.10380000000000000          5.1687536239624023     
  0.10410000000000001          4.8094882965087891     
  0.10440000000000001          4.3564000129699707     
  0.10470000000000000          3.8536634445190430     
  0.10500000000000000          3.3410480022430420     
  0.10530000000000000          2.8502552509307861     
  0.10560000000000000          2.4037110805511475     
  0.10590000000000001          2.0134561061859131     
  0.10620000000000000          1.6804038286209106     
  0.10650000000000001          1.3955951929092407     
  0.10679999999999999          1.1433085203170776     
  0.10710000000000000         0.90357720851898193     
  0.10740000000000001         0.65550613403320312     
  0.10770000000000000         0.37986367940902710     
  0.10800000000000000          6.1970509588718414E-002
  0.10830000000000001        -0.30569535493850708     
  0.10859999999999999        -0.72179037332534790     
  0.10890000000000000         -1.1777698993682861     
  0.10920000000000001         -1.6584161520004272     
  0.10950000000000001         -2.1414227485656738     
  0.10979999999999999         -2.6008589267730713     
  0.11009999999999999         -3.0113856792449951     
  0.11040000000000001         -3.3494694232940674     
  0.11070000000000001         -3.5948808193206787     
  0.11100000000000000         -3.7342197895050049     
  0.11130000000000000         -3.7630405426025391     
  0.11160000000000002         -3.6841385364532471     
  0.11190000000000001         -3.5078568458557129     
  0.11220000000000001         -3.2526371479034424     
  0.11250000000000000         -2.9422507286071777     
  0.11280000000000000         -2.6026606559753418     
  0.11309999999999999         -2.2609055042266846     
  0.11340000000000001         -1.9428873062133789     
  0.11369999999999998         -1.6702260971069336     
  0.11400000000000000         -1.4587861299514771     
  0.11430000000000000         -1.3179172277450562     
  0.11460000000000002         -1.2495212554931641     
  0.11489999999999999         -1.2482576370239258     
  0.11520000000000001         -1.3019820451736450     
  0.11550000000000001         -1.3928271532058716     
  0.11580000000000000         -1.4993696212768555     
  0.11609999999999999         -1.5988605022430420     
  0.11640000000000002         -1.6681867837905884     
  0.11670000000000001         -1.6855852603912354     
  0.11700000000000001         -1.6340037584304810     
  0.11730000000000000         -1.5019838809967041     
  0.11760000000000000         -1.2831211090087891     
  0.11789999999999999        -0.97691559791564941     
  0.11820000000000001        -0.58977526426315308     
  0.11850000000000001        -0.13343667984008789     
  0.11880000000000000         0.37677723169326782     
  0.11910000000000000         0.92248988151550293     
  0.11940000000000002          1.4839627742767334     
  0.11970000000000001          2.0415947437286377     
  0.12000000000000001          2.5771062374114990     
  0.12030000000000000          3.0743825435638428     
  0.12060000000000000          3.5205669403076172     
  0.12089999999999999          3.9061639308929443     
  0.12119999999999999          4.2243480682373047     
  0.12150000000000001          4.4712224006652832     
  0.12180000000000001          4.6464471817016602     
  0.12210000000000000          4.7516307830810547     
  0.12239999999999999          4.7899341583251953     
  0.12270000000000002          4.7661314010620117     
  0.12300000000000001          4.6863269805908203     
  0.12330000000000001          4.5571322441101074     
  0.12360000000000000          4.3846721649169922     
  0.12390000000000000          4.1742062568664551     
  0.12419999999999999          3.9300596714019775     
  0.12450000000000001          3.6542904376983643     
  0.12480000000000001          3.3461461067199707     
  0.12509999999999999          3.0029482841491699     
  0.12540000000000001          2.6200203895568848     
  0.12570000000000003          2.1917469501495361     
  0.12600000000000000          1.7133699655532837     
  0.12630000000000002          1.1830378770828247     
  0.12659999999999999         0.60318201780319214     
  0.12690000000000001         -1.8147472292184830E-002
  0.12719999999999998        -0.66546934843063354     
  0.12750000000000000         -1.3167967796325684     
  0.12780000000000002         -1.9461930990219116     
  0.12809999999999999         -2.5251595973968506     
  0.12840000000000001         -3.0256161689758301     
  0.12869999999999998         -3.4254517555236816     
  0.12900000000000000         -3.7126796245574951     
  0.12930000000000003         -3.8871572017669678     
  0.12959999999999999         -3.9620401859283447     
  0.12990000000000002         -3.9648723602294922     
  0.13019999999999998         -3.9345941543579102     
  0.13050000000000000         -3.9164626598358154     
  0.13080000000000003         -3.9563000202178955     
  0.13109999999999999         -4.0946965217590332     
  0.13140000000000002         -4.3600797653198242     
  0.13169999999999998         -4.7628750801086426     
  0.13200000000000001         -5.2930502891540527     
  0.13229999999999997         -5.9192242622375488     
  0.13260000000000000         -6.5910468101501465     
  0.13290000000000002         -7.2442622184753418     
  0.13319999999999999         -7.8073883056640625     
  0.13350000000000001         -8.2109651565551758     
  0.13380000000000003         -8.3962688446044922     
  0.13410000000000000         -8.3222827911376953     
  0.13440000000000002         -7.9703679084777832     
  0.13469999999999999         -7.3476243019104004     
  0.13500000000000001         -6.4857664108276367     
  0.13529999999999998         -5.4348716735839844     
  0.13560000000000000         -4.2556738853454590     
  0.13590000000000002         -3.0111882686614990     
  0.13619999999999999         -1.7551909685134888     
  0.13650000000000001        -0.52136766910552979     
  0.13680000000000003         0.68219482898712158     
  0.13710000000000000          1.8768230676651001     
  0.13740000000000002          3.1127855777740479     
  0.13769999999999999          4.4627370834350586     
  0.13800000000000001          6.0111160278320312     
  0.13829999999999998          7.8392043113708496     
  0.13860000000000000          10.008030891418457     
  0.13890000000000002          12.542008399963379     
  0.13919999999999999          15.414076805114746     
  0.13950000000000001          18.535829544067383     
  0.13979999999999998          21.753438949584961     
  0.14010000000000000          24.852029800415039     
  0.14040000000000002          27.567953109741211     
  0.14069999999999999          29.607156753540039     
  0.14100000000000001          30.672304153442383     
  0.14130000000000004          30.492677688598633     
  0.14160000000000000          28.853326797485352     
  0.14189999999999997          25.622100830078125     
  0.14219999999999999          20.773139953613281     
  0.14250000000000002          14.400313377380371     
  0.14279999999999998          6.7194266319274902     
  0.14310000000000000         -1.9394605159759521     
  0.14339999999999997         -11.151008605957031     
  0.14369999999999999         -20.421808242797852     
  0.14400000000000002         -29.226612091064453     
  0.14429999999999998         -37.047260284423828     
  0.14460000000000001         -43.411354064941406     
  0.14490000000000003         -47.928119659423828     
  0.14520000000000000         -50.316661834716797     
  0.14550000000000002         -50.427577972412109     
  0.14579999999999999         -48.252548217773438     
  0.14610000000000001         -43.921154022216797     
  0.14640000000000003         -37.690860748291016     
  0.14670000000000000         -29.926549911499023     
  0.14699999999999996         -21.072124481201172     
  0.14729999999999999         -11.617618560791016     
  0.14760000000000001         -2.0675342082977295     
  0.14789999999999998          7.0925712585449219     
  0.14820000000000000          15.425441741943359     