  -1.4999999999999999E-002     0.0000000000000000     
  -1.4700000000000000E-002     0.0000000000000000     
  -1.4400000000000000E-002     0.0000000000000000     
  -1.4100000000000000E-002     0.0000000000000000     
  -1.3800000000000000E-002     0.0000000000000000     
  -1.3500000000000000E-002     0.0000000000000000     
  -1.3200000000000000E-002     0.0000000000000000     
  -1.2899999999999998E-002     0.0000000000000000     
  -1.2600000000000000E-002     0.0000000000000000     
  -1.2299999999999998E-002     0.0000000000000000     
  -1.2000000000000000E-002     0.0000000000000000     
  -1.1699999999999999E-002     0.0000000000000000     
  -1.1399999999999999E-002     0.0000000000000000     
  -1.1099999999999999E-002     0.0000000000000000     
  -1.0799999999999999E-002     0.0000000000000000     
  -1.0499999999999999E-002     0.0000000000000000     
  -1.0199999999999999E-002     0.0000000000000000     
  -9.8999999999999991E-003     0.0000000000000000     
  -9.5999999999999992E-003     0.0000000000000000     
  -9.2999999999999992E-003     0.0000000000000000     
  -8.9999999999999993E-003     0.0000000000000000     
  -8.6999999999999994E-003     0.0000000000000000     
  -8.3999999999999995E-003     0.0000000000000000     
  -8.0999999999999996E-003     0.0000000000000000     
  -7.7999999999999988E-003     0.0000000000000000     
  -7.4999999999999997E-003     0.0000000000000000     
  -7.1999999999999998E-003     0.0000000000000000     
  -6.8999999999999981E-003     0.0000000000000000     
  -6.5999999999999982E-003     0.0000000000000000     
  -6.3000000000000000E-003     0.0000000000000000     
  -6.0000000000000001E-003     0.0000000000000000     
  -5.6999999999999985E-003     0.0000000000000000     
  -5.3999999999999986E-003     0.0000000000000000     
  -5.1000000000000004E-003     0.0000000000000000     
  -4.7999999999999987E-003     0.0000000000000000     
  -4.5000000000000005E-003     0.0000000000000000     
  -4.1999999999999989E-003     0.0000000000000000     
  -3.8999999999999990E-003     0.0000000000000000     
  -3.5999999999999990E-003     0.0000000000000000     
  -3.2999999999999991E-003     0.0000000000000000     
  -2.9999999999999992E-003     0.0000000000000000     
  -2.6999999999999993E-003     0.0000000000000000     
  -2.3999999999999994E-003     0.0000000000000000     
  -2.0999999999999977E-003     0.0000000000000000     
  -1.7999999999999995E-003     0.0000000000000000     
  -1.4999999999999979E-003     0.0000000000000000     
  -1.1999999999999997E-003     0.0000000000000000     
  -8.9999999999999976E-004     0.0000000000000000     
  -5.9999999999999810E-004     0.0000000000000000     
  -2.9999999999999992E-004     0.0000000000000000     
   0.0000000000000000          0.0000000000000000     
   3.0000000000000165E-004     0.0000000000000000     
   5.9999999999999984E-004     0.0000000000000000     
   9.0000000000000149E-004     0.0000000000000000     
   1.2000000000000031E-003     0.0000000000000000     
   1.5000000000000013E-003     0.0000000000000000     
   1.8000000000000030E-003     0.0000000000000000     
   2.1000000000000012E-003     0.0000000000000000     
   2.3999999999999994E-003     0.0000000000000000     
   2.7000000000000010E-003     0.0000000000000000     
   2.9999999999999992E-003     0.0000000000000000     
   3.3000000000000008E-003     0.0000000000000000     
   3.6000000000000025E-003     0.0000000000000000     
   3.9000000000000007E-003     0.0000000000000000     
   4.2000000000000023E-003     0.0000000000000000     
   4.5000000000000005E-003     0.0000000000000000     
   4.7999999999999987E-003     0.0000000000000000     
   5.1000000000000004E-003     0.0000000000000000     
   5.4000000000000020E-003     0.0000000000000000     
   5.7000000000000037E-003     0.0000000000000000     
   5.9999999999999984E-003     0.0000000000000000     
   6.3000000000000000E-003     0.0000000000000000     
   6.6000000000000017E-003     0.0000000000000000     
   6.9000000000000034E-003     0.0000000000000000     
   7.2000000000000015E-003     0.0000000000000000     
   7.5000000000000032E-003     0.0000000000000000     
   7.8000000000000014E-003     0.0000000000000000     
   8.0999999999999996E-003     0.0000000000000000     
   8.4000000000000012E-003     0.0000000000000000     
   8.7000000000000029E-003     0.0000000000000000     
   9.0000000000000011E-003     0.0000000000000000     
   9.2999999999999992E-003     0.0000000000000000     
   9.6000000000000009E-003     0.0000000000000000     
   9.8999999999999991E-003     0.0000000000000000     
   1.0200000000000001E-002     0.0000000000000000     
   1.0500000000000002E-002     1.5286005793876381E-037
   1.0800000000000004E-002     5.3517797343489559E-036
   1.1099999999999999E-002    -5.9503901463497247E-035
   1.1400000000000000E-002    -1.6205057044520881E-034
   1.1700000000000002E-002     3.1849798455470528E-033
   1.2000000000000004E-002    -2.4537967082699884E-033
   1.2300000000000002E-002    -7.9431362011967538E-032
   1.2600000000000000E-002     3.5517055385059634E-031
   1.2900000000000002E-002     3.1860764879996582E-031
   1.3200000000000000E-002    -7.8699043289849056E-030
   1.3500000000000002E-002     2.6079184915007690E-029
   1.3800000000000003E-002     7.8982455244304347E-030
   1.4100000000000001E-002    -3.4593388382373604E-028
   1.4400000000000000E-002     1.2247298638024178E-027
   1.4700000000000001E-002    -1.6753679058392342E-027
   1.4999999999999999E-002    -2.3243286892702094E-029
   1.5300000000000001E-002    -9.6845303116082840E-027
   1.5600000000000003E-002     1.0241902255891842E-025
   1.5899999999999997E-002    -3.3135550499025850E-025
   1.6199999999999999E-002    -4.2442474102692683E-025
   1.6500000000000001E-002     1.0791177785326029E-023
   1.6800000000000002E-002    -7.3711195046110892E-023
   1.7100000000000004E-002     3.6602812629387046E-022
   1.7400000000000006E-002    -1.5218013258309760E-021
   1.7700000000000000E-002     5.4643023473305935E-021
   1.8000000000000002E-002    -1.6472701482348851E-020
   1.8300000000000004E-002     3.6260295578776400E-020
   1.8600000000000005E-002    -1.3024083676595973E-020
   1.8900000000000000E-002    -4.4860384088603785E-019
   1.9200000000000002E-002     3.4035067268664180E-018
   1.9500000000000003E-002    -1.7647896770589807E-017
   1.9799999999999998E-002     7.5097096711765556E-017
   2.0100000000000000E-002    -2.6849440740644597E-016
   2.0400000000000001E-002     7.5400620049822058E-016
   2.0700000000000003E-002    -1.1149856169579784E-015
   2.0999999999999998E-002    -4.3803206423221999E-015
   2.1299999999999999E-002     5.0164601061522021E-014
   2.1600000000000001E-002    -2.8513273314918667E-013
   2.1900000000000003E-002     1.1881749484822167E-012
   2.2200000000000004E-002    -3.7448321506018942E-012
   2.2500000000000006E-002     7.9781375133206924E-012
   2.2800000000000001E-002    -4.4263225571310493E-012
   2.3100000000000002E-002    -4.7027413992889360E-011
   2.3400000000000004E-002     2.1904228115072189E-010
   2.3699999999999999E-002    -4.4430182163680230E-010
   2.4000000000000000E-002     5.6075707772218763E-013
   2.4300000000000002E-002     2.5207682368236808E-009
   2.4599999999999997E-002    -5.7366839881043873E-009
   2.4900000000000005E-002    -9.2365829738313552E-010
   2.5200000000000000E-002     2.5632331124773284E-008
   2.5499999999999995E-002    -2.5871935133745745E-008
   2.5800000000000003E-002    -7.1360963610463869E-008
   2.6099999999999998E-002     1.1002641295724537E-007
   2.6400000000000007E-002     2.0631854914501828E-007
   2.6700000000000002E-002    -2.6666234249661659E-007
   2.6999999999999996E-002    -7.4167410539530224E-007
   2.7300000000000005E-002     2.8815614105871896E-007
   2.7600000000000000E-002     3.6185205039288696E-006
   2.7900000000000008E-002     8.4755697348421789E-006
   2.8200000000000003E-002     1.4037728694134711E-005
   2.8499999999999998E-002     2.1196456748776840E-005
   2.8800000000000006E-002     3.2331737762209857E-005
   2.9100000000000001E-002     5.0528246107609757E-005
   2.9400000000000003E-002     7.9370095335573685E-005
   2.9700000000000004E-002     1.2312752781151563E-004
   3.0000000000000006E-002     1.8755323338508732E-004
   3.0300000000000001E-002     2.8101572390620746E-004
   3.0600000000000002E-002     4.1592146506294440E-004
   3.0900000000000004E-002     6.0964273344801291E-004
   3.1199999999999999E-002     8.8387648647915429E-004
   3.1500000000000007E-002     1.2638666811226537E-003
   3.1800000000000002E-002     1.7793622807620799E-003
   3.2099999999999997E-002     2.4666205890367804E-003
   3.2400000000000005E-002     3.3686987751062186E-003
   3.2700000000000000E-002     4.5323950993363255E-003
   3.3000000000000002E-002     6.0042733259073333E-003
   3.3300000000000003E-002     7.8274083039234499E-003
   3.3599999999999998E-002     1.0036802800001243E-002
   3.3900000000000000E-002     1.2651585347245309E-002
   3.4200000000000001E-002     1.5665200824146741E-002
   3.4500000000000003E-002     1.9034962388428278E-002
   3.4799999999999998E-002     2.2672326270944620E-002
   3.5099999999999999E-002     2.6432438474244702E-002
   3.5400000000000001E-002     3.0103463855272294E-002
   3.5699999999999996E-002     3.3404695593950540E-002
   3.6000000000000004E-002     3.5989431501858071E-002
   3.6299999999999999E-002     3.7451326595166812E-002
   3.6600000000000008E-002     3.7341564291149654E-002
   3.6900000000000002E-002     3.5195994580047518E-002
   3.7199999999999997E-002     3.0575481166605134E-002
   3.7500000000000006E-002     2.3115838114192155E-002
   3.7800000000000000E-002     1.2570497921129131E-002
   3.8100000000000009E-002    -1.1302083029983007E-003
   3.8400000000000004E-002    -1.7835112832121330E-002
   3.8699999999999998E-002    -3.7126917197112363E-002
   3.9000000000000007E-002    -5.8302364381796146E-002
   3.9300000000000002E-002    -8.0379955450263108E-002
   3.9600000000000003E-002   -0.10212182977866391     
   3.9900000000000005E-002   -0.12209517544631021     
   4.0200000000000000E-002   -0.13875773330142493     
   4.0500000000000001E-002   -0.15057163334634271     
   4.0800000000000003E-002   -0.15611730743468399     
   4.1100000000000005E-002   -0.15422420792662805     
   4.1399999999999999E-002   -0.14409862553968100     
   4.1700000000000008E-002   -0.12540853361111015     
   4.2000000000000003E-002    -9.8355958634126051E-002
   4.2299999999999997E-002    -6.3688769261341482E-002
   4.2600000000000006E-002    -2.2671637317973725E-002
   4.2900000000000001E-002     2.2970569841507249E-002
   4.3200000000000002E-002     7.1178972146328956E-002
   4.3500000000000004E-002    0.11970275316079526     
   4.3799999999999999E-002    0.16624485599273431     
   4.4100000000000000E-002    0.20863345739494843     
   4.4400000000000002E-002    0.24494077907579737     
   4.4700000000000004E-002    0.27360579988796196     
   4.4999999999999998E-002    0.29350006904367376     
   4.5300000000000000E-002    0.30394252103256036     
   4.5600000000000002E-002    0.30470385203796369     
   4.5899999999999996E-002    0.29593373303862691     
   4.6200000000000005E-002    0.27809403672777933     
   4.6500000000000000E-002    0.25188251351927349     
   4.6799999999999994E-002    0.21812513213279416     
   4.7100000000000003E-002    0.17770744986038434     
   4.7399999999999998E-002    0.13152088475396972     
   4.7700000000000006E-002     8.0426898881053699E-002
   4.8000000000000001E-002     2.5247310469164841E-002
   4.8300000000000010E-002    -3.3213707388912939E-002
   4.8600000000000004E-002    -9.4142959013567618E-002
   4.8899999999999999E-002   -0.15668024149218462     
   4.9200000000000008E-002   -0.21988038259917797     
   4.9500000000000002E-002   -0.28265514188272789     
   4.9800000000000011E-002   -0.34378217877076800     
   5.0100000000000006E-002   -0.40189317117844858     
   5.0400000000000000E-002   -0.45546377427267082     
   5.0700000000000009E-002   -0.50288151806866921     
   5.1000000000000004E-002   -0.54250069749754104     
   5.1299999999999998E-002   -0.57269916351648220     
   5.1600000000000007E-002   -0.59200580551377513     
   5.1900000000000002E-002   -0.59914749930576150     
   5.2200000000000010E-002   -0.59318167456044080     
   5.2500000000000005E-002   -0.57357438212997280     
   5.2800000000000000E-002   -0.54023685408985855     
   5.3099999999999994E-002   -0.49361543506162242     
   5.3400000000000003E-002   -0.43468119817073614     
   5.3699999999999998E-002   -0.36487047533055339     
   5.4000000000000006E-002   -0.28606381456230423     
   5.4300000000000001E-002   -0.20045821140095388     
   5.4599999999999996E-002   -0.11040254222745061     
   5.4900000000000004E-002    -1.8327023904367301E-002
   5.5199999999999999E-002     7.3518054336669580E-002
   5.5499999999999994E-002    0.16317864243987668     
   5.5800000000000002E-002    0.24910084790621889     
   5.6099999999999997E-002    0.33031882382765598     
   5.6400000000000006E-002    0.40634067191339973     
   5.6700000000000000E-002    0.47727037387955562     
   5.6999999999999995E-002    0.54366605731241435     
   5.7300000000000004E-002    0.60632866543789277     
   5.7599999999999998E-002    0.66623456315720375     
   5.7900000000000007E-002    0.72416326771700668     
   5.8200000000000002E-002    0.78052378458392013     
   5.8499999999999996E-002    0.83515847430677326     
   5.8800000000000005E-002    0.88707535030312457     
   5.9100000000000000E-002    0.93437190495100708     
   5.9400000000000008E-002    0.97426686764894299     
   5.9700000000000003E-002     1.0030835098754665     
   6.0000000000000012E-002     1.0165405919752040     
   6.0300000000000006E-002     1.0100205469109511     
   6.0600000000000001E-002    0.97887264762178816     
   6.0900000000000010E-002    0.91902612926982741     
   6.1200000000000004E-002    0.82729394365835773     
   6.1500000000000013E-002    0.70182974295030931     
   6.1800000000000008E-002    0.54255637325722361     
   6.2100000000000002E-002    0.35121806996775717     
   6.2399999999999997E-002    0.13168328077686819     
   6.2700000000000006E-002   -0.11027545318915966     
   6.3000000000000000E-002   -0.36717204181838659     
   6.3300000000000009E-002   -0.63004629656848010     
   6.3600000000000004E-002   -0.88920958284974461     
   6.3899999999999998E-002    -1.1344972197016432     
   6.4199999999999993E-002    -1.3560838002526907     
   6.4500000000000002E-002    -1.5449331680136638     
   6.4800000000000010E-002    -1.6932781350523243     
   6.5100000000000005E-002    -1.7950605157070143     
   6.5400000000000000E-002    -1.8460701722176509     
   6.5700000000000008E-002    -1.8442095103275875     
   6.5999999999999989E-002    -1.7893558268889507     
   6.6299999999999998E-002    -1.6833359235633409     
   6.6600000000000006E-002    -1.5296145727910186     
   6.6900000000000001E-002    -1.3330450575065527     
   6.7199999999999996E-002    -1.0996499887165285     
   6.7500000000000004E-002   -0.83616332304770680     
   6.7800000000000013E-002   -0.54996431726993045     
   6.8099999999999994E-002   -0.24853067090312209     
   6.8400000000000002E-002     6.0492286497313419E-002
   6.8700000000000011E-002    0.36963970471697971     
   6.8999999999999992E-002    0.67176519460626150     
   6.9300000000000000E-002    0.96007544709776838     
   6.9600000000000009E-002     1.2285746510518862     
   6.9900000000000004E-002     1.4717191139339576     
   7.0199999999999999E-002     1.6849105246565301     
   7.0500000000000007E-002     1.8644140794933506     
   7.0800000000000016E-002     2.0072455671813714     
   7.1099999999999997E-002     2.1114972658237576     
   7.1400000000000005E-002     2.1758222929430531     
   7.1700000000000000E-002     2.1996377383500345     
   7.1999999999999995E-002     2.1827988566460448     
   7.2300000000000003E-002     2.1253435420020139     
   7.2600000000000012E-002     2.0274457937953656     
   7.2900000000000006E-002     1.8890495094514179     
   7.3200000000000001E-002     1.7101039266648499     
   7.3499999999999996E-002     1.4904708164832030     
   7.3800000000000004E-002     1.2301204592142909     
   7.4099999999999999E-002    0.92975225863522937     
   7.4400000000000008E-002    0.59098489297089785     
   7.4700000000000003E-002    0.21709849260335368     
   7.5000000000000011E-002   -0.18652029377497570     
   7.5299999999999992E-002   -0.61212186755700060     
   7.5600000000000001E-002    -1.0490924716888781     
   7.5900000000000009E-002    -1.4842887757311658     
   7.6200000000000004E-002    -1.9024740210294482     
   7.6499999999999999E-002    -2.2867740237992180     
   7.6800000000000007E-002    -2.6200370108410169     
   7.7099999999999988E-002    -2.8858081183152393     
   7.7399999999999997E-002    -3.0697332290562684     
   7.7700000000000005E-002    -3.1609960374310759     
   7.8000000000000014E-002    -3.1529618614049184     
   7.8299999999999995E-002    -3.0445360342486509     
   7.8600000000000003E-002    -2.8399310611360420     
   7.8900000000000012E-002    -2.5488275383425787     
   7.9199999999999993E-002    -2.1856064346347210     
   7.9500000000000001E-002    -1.7680897216219051     
   7.9800000000000010E-002    -1.3164653489336118     
   8.0100000000000018E-002   -0.85121877978352245     
   8.0399999999999999E-002   -0.39185046619829933     
   8.0700000000000008E-002     4.4722904296232713E-002
   8.1000000000000003E-002    0.44537322055653128     
   8.1299999999999997E-002    0.80112752627302886     
   8.1600000000000006E-002     1.1078224104266710     
   8.1900000000000014E-002     1.3651007875543826     
   8.2199999999999995E-002     1.5760637896824647     
   8.2500000000000004E-002     1.7460459539802855     
   8.2799999999999999E-002     1.8805825266243232     
   8.3100000000000007E-002     1.9851764118910111     
   8.3400000000000002E-002     2.0630372180538927     
   8.3700000000000011E-002     2.1147820006881943     
   8.4000000000000005E-002     2.1380896263913201     
   8.4300000000000000E-002     2.1272960979632529     
   8.4599999999999995E-002     2.0749655677564220     
   8.4900000000000003E-002     1.9720231814263798     
   8.5199999999999998E-002     1.8097920044590126     
   8.5500000000000007E-002     1.5815589544829223     
   8.5800000000000001E-002     1.2836324252777942     
   8.6100000000000010E-002    0.91718160987508668     
   8.6399999999999991E-002    0.48870692387768067     
   8.6699999999999999E-002     1.0587639486337341E-002
   8.7000000000000008E-002   -0.49917162222119060     
   8.7300000000000003E-002    -1.0178343609894762     
   8.7599999999999997E-002    -1.5193469895266070     
   8.7900000000000006E-002    -1.9760555260108319     
   8.8200000000000014E-002    -2.3606217692847196     
   8.8499999999999995E-002    -2.6484012167586855     
   8.8800000000000004E-002    -2.8191015188917277     
   8.9100000000000013E-002    -2.8588242848229299     
   8.9399999999999993E-002    -2.7609080248323465     
   8.9700000000000002E-002    -2.5268751919860506     
   9.0000000000000011E-002    -2.1664843222420131     
   9.0299999999999991E-002    -1.6968207769933699     
   9.0600000000000000E-002    -1.1415720903835336     
   9.0900000000000009E-002   -0.52923461721791831     
   9.1200000000000017E-002    0.10869501554663152     
   9.1499999999999998E-002    0.74004440303067831     
   9.1800000000000007E-002     1.3337850577180017     
   9.2100000000000001E-002     1.8623207690207337     
   9.2399999999999996E-002     2.3029431956262201     
   9.2700000000000005E-002     2.6388554089929954     
   9.3000000000000013E-002     2.8604264482385133     
   9.3300000000000008E-002     2.9646533564273057     
   9.3600000000000003E-002     2.9552691867713747     
   9.3899999999999997E-002     2.8415272379444616     
   9.4200000000000006E-002     2.6368915297310735     
   9.4500000000000001E-002     2.3582284514156555     
   9.4800000000000009E-002     2.0229900633510809     
   9.5100000000000004E-002     1.6488860071315941     
   9.5399999999999999E-002     1.2521651781065373     
   9.5699999999999993E-002    0.84640787856470467     
   9.6000000000000002E-002    0.44300433688589536     
   9.6300000000000011E-002     5.0141545455720027E-002
   9.6600000000000005E-002   -0.32607522054307836     
   9.6900000000000000E-002   -0.68093843940379806     
   9.7200000000000009E-002    -1.0105590235130499     
   9.7499999999999989E-002    -1.3103482985370114     
   9.7799999999999998E-002    -1.5750553450999760     
   9.8100000000000007E-002    -1.7976527493553078     
   9.8400000000000015E-002    -1.9696633223445872     
   9.8699999999999996E-002    -2.0819768731573092     
   9.9000000000000005E-002    -2.1248056097799335     
   9.9300000000000013E-002    -2.0903023542607002     
   9.9599999999999994E-002    -1.9730256975386595     
   9.9900000000000003E-002    -1.7717296155469526     
  0.10020000000000001         -1.4909907918384420     
  0.10049999999999999         -1.1411390711654121     
  0.10080000000000000        -0.73908756694833500     
  0.10110000000000001        -0.30721190954589073     
  0.10140000000000000         0.12764309356708203     
  0.10170000000000000         0.53644945484980866     
  0.10200000000000001         0.89042032340528277     
  0.10230000000000002          1.1634518625655410     
  0.10260000000000000          1.3350477651799473     
  0.10290000000000001          1.3921525259804852     
  0.10320000000000000          1.3311331560720490     
  0.10350000000000001          1.1577121249517361     
  0.10380000000000000         0.88725669158258214     
  0.10410000000000001         0.54281814911186466     
  0.10440000000000001         0.15293859809853627     
  0.10470000000000000        -0.25077964356052362     
  0.10500000000000000        -0.63783057074708527     
  0.10530000000000000        -0.98059582679261048     
  0.10560000000000000         -1.2580894486841032     
  0.10590000000000001         -1.4573668668580950     
  0.10620000000000000         -1.5739492170861737     
  0.10650000000000001         -1.6126310603005436     
  0.10679999999999999         -1.5848003265445598     
  0.10710000000000000         -1.5072307333932002     
  0.10740000000000001         -1.3990144424977586     
  0.10770000000000000         -1.2783587796026694     
  0.10800000000000000         -1.1605226543403759     
  0.10830000000000001         -1.0548376356353657     
  0.10859999999999999        -0.96386016293337917     
  0.10890000000000000        -0.88341519221778952     
  0.10920000000000001        -0.80274274241099164     
  0.10950000000000001        -0.70689867302962384     
  0.10979999999999999        -0.57904810125657846     
  0.11009999999999999        -0.40321817190380393     
  0.11040000000000001        -0.16723158384583048     
  0.11070000000000001         0.13515913666038237     
  0.11100000000000000         0.50208301044541992     
  0.11130000000000000         0.92334170275209093     
  0.11160000000000002          1.3806266720428866     
  0.11190000000000001          1.8483946408363039     
  0.11220000000000001          2.2967479633433214     
  0.11250000000000000          2.6938658090422933     
  0.11280000000000000          3.0088615060772383     
  0.11309999999999999          3.2150501889163792     
  0.11340000000000001          3.2920925067938782     
  0.11369999999999998          3.2283022285781016     
  0.11400000000000000          3.0212060992734564     
  0.11430000000000000          2.6775927925648233     
  0.11460000000000002          2.2136359916053294     
  0.11489999999999999          1.6521323874856009     
  0.11520000000000001          1.0215135677311480     
  0.11550000000000001         0.35334730671219905     
  0.11580000000000000        -0.32012098251090038     
  0.11609999999999999        -0.96731053112115362     
  0.11640000000000002         -1.5600358075152112     
  0.11670000000000001         -2.0735734025401200     
  0.11700000000000001         -2.4879409968970023     
  0.11730000000000000         -2.7885158505574310     
  0.11760000000000000         -2.9647200155051365     
  0.11789999999999999         -3.0112261647473559     
  0.11820000000000001         -2.9262435131695383     
  0.11850000000000001         -2.7121479998323679     
  0.11880000000000000         -2.3747911959010111     
  0.11910000000000000         -1.9237323089378080     
  0.11940000000000002         -1.3723889755711554     
  0.11970000000000001        -0.73806125517886301     
  0.12000000000000001         -4.2796940739613376E-002
  0.12030000000000000         0.68718537793244749     
  0.12060000000000000          1.4210488884060224     
  0.12089999999999999          2.1248643233308719     
  0.12119999999999999          2.7618638427257807     
  0.12150000000000001          3.2950033002169619     
  0.12180000000000001          3.6889330928957378     
  0.12210000000000000          3.9120422623621209     
  0.12239999999999999          3.9409010346811613     
  0.12270000000000002          3.7605073570546921     
  0.12300000000000001          3.3688194561380982     
  0.12330000000000001          2.7771740857754423     
  0.12360000000000000          2.0101021014921940     
  0.12390000000000000          1.1065340308049905     
  0.12419999999999999         0.11552049812768850     
  0.12450000000000001        -0.90420588253913081     
  0.12480000000000001         -1.8899513555628666     
  0.12509999999999999         -2.7793280059703847     
  0.12540000000000001         -3.5139383981928063     
  0.12570000000000003         -4.0460974643806935     
  0.12600000000000000         -4.3407708990354905     
  0.12630000000000002         -4.3800283489189269     
  0.12659999999999999         -4.1638567137658526     
  0.12690000000000001         -3.7106721984407898     
  0.12719999999999998         -3.0563636990415119     
  0.12750000000000000         -2.2507128456496730     
  0.12780000000000002         -1.3546056082672351     
  0.12809999999999999        -0.43391967063893855     
  0.12840000000000001         0.44462458068084487     
  0.12869999999999998          1.2189020383321445     
  0.12900000000000000          1.8363571165058552     
  0.12930000000000003          2.2572746911504566     
  0.12959999999999999          2.4580201301241118     
  0.12990000000000002          2.4314780039689481     
  0.13019999999999998          2.1882612976419722     
  0.13050000000000000          1.7541188312285456     
  0.13080000000000003          1.1675395404713420     
  0.13109999999999999         0.47749424752529634     
  0.13140000000000002        -0.26292699811052955     
  0.13169999999999998        -0.99835478090233920     
  0.13200000000000001         -1.6766954548667350     
  0.13229999999999997         -2.2529980533993879     
  0.13260000000000000         -2.6906100432222857     
  0.13290000000000002         -2.9659138207256603     
  0.13319999999999999         -3.0660266161924454     
  0.13350000000000001         -2.9914802926027448     
  0.13380000000000003         -2.7538142818090137     
  0.13410000000000000         -2.3728422634760875     
  0.13440000000000002         -1.8771353730966780     
  0.13469999999999999         -1.2975200924387522     
  0.13500000000000001        -0.66747326340524893     
  0.13529999999999998         -1.9115103034785363E-002
  0.13560000000000000         0.61920213945455416     
  0.13590000000000002          1.2224703881913612     
  0.13619999999999999          1.7723744496796598     
  0.13650000000000001          2.2552207691917019     
  0.13680000000000003          2.6626879450446026     
  0.13710000000000000          2.9913659654057199     
  0.13740000000000002          3.2402138741479547     
  0.13769999999999999          3.4111833653543329     
  0.13800000000000001          3.5070221557588326     
  0.13829999999999998          3.5304410254823466     
  0.13860000000000000          3.4850616886740795     
  0.13890000000000002          3.3732752141029891     
  0.13919999999999999          3.1978777671728835     
  0.13950000000000001          2.9621591618882519     
  0.13979999999999998          2.6689128051095423     
  0.14010000000000000          2.3239316497174656     
  0.14040000000000002          1.9333901175577424     
  0.14069999999999999          1.5059504149863514     
  0.14100000000000001          1.0530555386246689     
  0.14130000000000004         0.58630574695108528     
  0.14160000000000000         0.12142822714802359     
  0.14189999999999997        -0.32669286518548901     
  0.14219999999999999        -0.74243869130384788     
  0.14250000000000002         -1.1095468661023027     
  0.14279999999999998         -1.4157581061595454     
  0.14310000000000000         -1.6491357902311279     
  0.14339999999999997         -1.8030926954902498     
  0.14369999999999999         -1.8751043744169991     
  0.14400000000000002         -1.8671000537756015     
  0.14429999999999998         -1.7887397893033423     
  0.14460000000000001         -1.6529628096617159     
  0.14490000000000003         -1.4791797625270817     
  0.14520000000000000         -1.2904307766305294     
  0.14550000000000002         -1.1112843589714139     
  0.14579999999999999        -0.96818708571435153     
  0.14610000000000001        -0.88426750878143423     
  0.14640000000000003        -0.87898322565701292     
  0.14670000000000000        -0.96527073020934040     
  0.14699999999999996         -1.1473889413509148     
  0.14729999999999999         -1.4201893628647717     
  0.14760000000000001         -1.7687137291795949     
  0.14789999999999998         -2.1683225703611768     
  0.14820000000000000         -2.5866967340511806     