  -1.4999999999999999E-002     0.0000000000000000     
  -1.4700000000000000E-002     0.0000000000000000     
  -1.4400000000000000E-002     0.0000000000000000     
  -1.4100000000000000E-002     0.0000000000000000     
  -1.3800000000000000E-002     0.0000000000000000     
  -1.3500000000000000E-002     0.0000000000000000     
  -1.3200000000000000E-002     0.0000000000000000     
  -1.2899999999999998E-002     0.0000000000000000     
  -1.2600000000000000E-002     0.0000000000000000     
  -1.2299999999999998E-002     0.0000000000000000     
  -1.2000000000000000E-002     0.0000000000000000     
  -1.1699999999999999E-002     0.0000000000000000     
  -1.1399999999999999E-002     0.0000000000000000     
  -1.1099999999999999E-002     0.0000000000000000     
  -1.0799999999999999E-002     0.0000000000000000     
  -1.0499999999999999E-002     0.0000000000000000     
  -1.0199999999999999E-002     0.0000000000000000     
  -9.8999999999999991E-003     0.0000000000000000     
  -9.5999999999999992E-003     0.0000000000000000     
  -9.2999999999999992E-003     0.0000000000000000     
  -8.9999999999999993E-003     0.0000000000000000     
  -8.6999999999999994E-003     0.0000000000000000     
  -8.3999999999999995E-003     0.0000000000000000     
  -8.0999999999999996E-003     0.0000000000000000     
  -7.7999999999999988E-003     0.0000000000000000     
  -7.4999999999999997E-003     0.0000000000000000     
  -7.1999999999999998E-003     0.0000000000000000     
  -6.8999999999999981E-003     0.0000000000000000     
  -6.5999999999999982E-003     0.0000000000000000     
  -6.3000000000000000E-003     0.0000000000000000     
  -6.0000000000000001E-003     0.0000000000000000     
  -5.6999999999999985E-003     0.0000000000000000     
  -5.3999999999999986E-003     0.0000000000000000     
  -5.1000000000000004E-003     0.0000000000000000     
  -4.7999999999999987E-003     0.0000000000000000     
  -4.5000000000000005E-003     0.0000000000000000     
  -4.1999999999999989E-003     0.0000000000000000     
  -3.8999999999999990E-003     0.0000000000000000     
  -3.5999999999999990E-003     0.0000000000000000     
  -3.2999999999999991E-003     0.0000000000000000     
  -2.9999999999999992E-003     0.0000000000000000     
  -2.6999999999999993E-003     0.0000000000000000     
  -2.3999999999999994E-003     0.0000000000000000     
  -2.0999999999999977E-003     0.0000000000000000     
  -1.7999999999999995E-003     0.0000000000000000     
  -1.4999999999999979E-003     0.0000000000000000     
  -1.1999999999999997E-003     0.0000000000000000     
  -8.9999999999999976E-004     0.0000000000000000     
  -5.9999999999999810E-004     0.0000000000000000     
  -2.9999999999999992E-004     0.0000000000000000     
   0.0000000000000000          0.0000000000000000     
   3.0000000000000165E-004     0.0000000000000000     
   5.9999999999999984E-004     0.0000000000000000     
   9.0000000000000149E-004     0.0000000000000000     
   1.2000000000000031E-003     0.0000000000000000     
   1.5000000000000013E-003     0.0000000000000000     
   1.8000000000000030E-003     0.0000000000000000     
   2.1000000000000012E-003     0.0000000000000000     
   2.3999999999999994E-003     0.0000000000000000     
   2.7000000000000010E-003     0.0000000000000000     
   2.9999999999999992E-003     0.0000000000000000     
   3.3000000000000008E-003     0.0000000000000000     
   3.6000000000000025E-003     0.0000000000000000     
   3.9000000000000007E-003     0.0000000000000000     
   4.2000000000000023E-003     0.0000000000000000     
   4.5000000000000005E-003     0.0000000000000000     
   4.7999999999999987E-003     0.0000000000000000     
   5.1000000000000004E-003     0.0000000000000000     
   5.4000000000000020E-003     0.0000000000000000     
   5.7000000000000037E-003     0.0000000000000000     
   5.9999999999999984E-003     0.0000000000000000     
   6.3000000000000000E-003     0.0000000000000000     
   6.6000000000000017E-003     0.0000000000000000     
   6.9000000000000034E-003     0.0000000000000000     
   7.2000000000000015E-003     0.0000000000000000     
   7.5000000000000032E-003     0.0000000000000000     
   7.8000000000000014E-003     0.0000000000000000     
   8.0999999999999996E-003     0.0000000000000000     
   8.4000000000000012E-003     0.0000000000000000     
   8.7000000000000029E-003     0.0000000000000000     
   9.0000000000000011E-003     0.0000000000000000     
   9.2999999999999992E-003     0.0000000000000000     
   9.6000000000000009E-003     0.0000000000000000     
   9.8999999999999991E-003     0.0000000000000000     
   1.0200000000000001E-002     0.0000000000000000     
   1.0500000000000002E-002     0.0000000000000000     
   1.0800000000000004E-002     0.0000000000000000     
   1.1099999999999999E-002     0.0000000000000000     
   1.1400000000000000E-002     0.0000000000000000     
   1.1700000000000002E-002     1.1965195380784019E-038
   1.2000000000000004E-002     2.0319503091642621E-038
   1.2300000000000002E-002    -3.3851070802255639E-036
   1.2600000000000000E-002     7.0248241262989192E-037
   1.2900000000000002E-002     4.2916644618514893E-035
   1.3200000000000000E-002    -6.6242690231981246E-034
   1.3500000000000002E-002     2.5616561781519760E-033
   1.3800000000000003E-002     4.4141295327074886E-033
   1.4100000000000001E-002    -8.1571496238605616E-032
   1.4400000000000000E-002     3.1501277340161474E-031
   1.4700000000000001E-002     1.8402370852196456E-031
   1.4999999999999999E-002    -7.8791952601506454E-030
   1.5300000000000001E-002     3.8745122705935189E-029
   1.5600000000000003E-002    -5.6997191050674233E-029
   1.5899999999999997E-002    -3.7712301096323005E-028
   1.6199999999999999E-002     2.9149362658577004E-027
   1.6500000000000001E-002    -9.9570364695799076E-027
   1.6800000000000002E-002     1.3621274302393860E-026
   1.7100000000000004E-002     5.8396247103165235E-026
   1.7400000000000006E-002    -5.5150039535064630E-025
   1.7700000000000000E-002     2.7770010660916379E-024
   1.8000000000000002E-002    -1.0383879651921304E-023
   1.8300000000000004E-002     2.5375555144158000E-023
   1.8600000000000005E-002     1.1728557620183187E-023
   1.8900000000000000E-002    -6.0192747396673553E-022
   1.9200000000000002E-002     4.4711372246975324E-021
   1.9500000000000003E-002    -2.3510211747296843E-020
   1.9799999999999998E-002     1.0238680580994060E-019
   2.0100000000000000E-002    -3.9175428417322571E-019
   2.0400000000000001E-002     1.3675154337867188E-018
   2.0700000000000003E-002    -4.5328506123424321E-018
   2.0999999999999998E-002     1.5116198704855888E-017
   2.1299999999999999E-002    -5.4645535982088662E-017
   2.1600000000000001E-002     2.2470836434923231E-016
   2.1900000000000003E-002    -1.0232481090179650E-015
   2.2200000000000004E-002     4.7863158086336835E-015
   2.2500000000000006E-002    -2.1467907269406715E-014
   2.2800000000000001E-002     8.7901509460959153E-014
   2.3100000000000002E-002    -3.1465862993753176E-013
   2.3400000000000004E-002     9.2617611818376577E-013
   2.3699999999999999E-002    -1.9357058066138563E-012
   2.4000000000000000E-002     1.0494919271071090E-012
   2.4300000000000002E-002     1.2753486684471320E-011
   2.4599999999999997E-002    -6.6139621367892556E-011
   2.4900000000000005E-002     1.6946758281107178E-010
   2.5200000000000000E-002    -1.4885129671240473E-010
   2.5499999999999995E-002    -6.0410127709513807E-010
   2.5800000000000003E-002     2.5424931232223816E-009
   2.6099999999999998E-002    -2.8944952769292644E-009
   2.6400000000000007E-002    -6.2917940900362488E-009
   2.6700000000000002E-002     2.2615912421201447E-008
   2.6999999999999996E-002    -3.7533651109348011E-009
   2.7300000000000005E-002    -7.7870575864872960E-008
   2.7600000000000000E-002     4.9613576846759178E-008
   2.7900000000000008E-002     2.2513184171034805E-007
   2.8200000000000003E-002    -1.0452369554458554E-007
   2.8499999999999998E-002    -6.9200164623439746E-007
   2.8800000000000006E-002    -1.7477147575301862E-007
   2.9100000000000001E-002     2.4955534970019978E-006
   2.9400000000000003E-002     6.8049832103677613E-006
   2.9700000000000004E-002     1.1742248946932429E-005
   3.0000000000000006E-002     1.7779824436328011E-005
   3.0300000000000001E-002     2.6995351329769457E-005
   3.0600000000000002E-002     4.2197139237936830E-005
   3.0900000000000004E-002     6.6646977376523964E-005
   3.1199999999999999E-002     1.0415175387419855E-004
   3.1500000000000007E-002     1.5964400580310584E-004
   3.1800000000000002E-002     2.4020188047872530E-004
   3.2099999999999997E-002     3.5646141393032640E-004
   3.2400000000000005E-002     5.2385416538390864E-004
   3.2700000000000000E-002     7.6220502292205158E-004
   3.3000000000000002E-002     1.0947352783426748E-003
   3.3300000000000003E-002     1.5486217603014676E-003
   3.3599999999999998E-002     2.1570208648877959E-003
   3.3900000000000000E-002     2.9601765080889825E-003
   3.4200000000000001E-002     4.0030838038811467E-003
   3.4500000000000003E-002     5.3317719677771214E-003
   3.4799999999999998E-002     6.9902530410844987E-003
   3.5099999999999999E-002     9.0169030512541881E-003
   3.5400000000000001E-002     1.1438049100389702E-002
   3.5699999999999996E-002     1.4258963798506274E-002
   3.6000000000000004E-002     1.7453886944684638E-002
   3.6299999999999999E-002     2.0957000556080629E-002
   3.6600000000000008E-002     2.4651598889939730E-002
   3.6900000000000002E-002     2.8359213080896950E-002
   3.7199999999999997E-002     3.1834715369750466E-002
   3.7500000000000006E-002     3.4767993867247826E-002
   3.7800000000000000E-002     3.6787149368924466E-002
   3.8100000000000009E-002     3.7469058857290127E-002
   3.8400000000000004E-002     3.6362678471312471E-002
   3.8699999999999998E-002     3.3021040413837133E-002
   3.9000000000000007E-002     2.7047831522916232E-002
   3.9300000000000002E-002     1.8137884057610631E-002
   3.9600000000000003E-002     6.1276775432105857E-003
   3.9900000000000005E-002    -8.9535953525699818E-003
   4.0200000000000000E-002    -2.6841798902925151E-002
   4.0500000000000001E-002    -4.7007972973385881E-002
   4.0800000000000003E-002    -6.8655235983455576E-002
   4.1100000000000005E-002    -9.0728601041425438E-002
   4.1399999999999999E-002   -0.11195658416676624     
   4.1700000000000008E-002   -0.13092204237751925     
   4.2000000000000003E-002   -0.14616059307811824     
   4.2299999999999997E-002   -0.15626298539463956     
   4.2600000000000006E-002   -0.15999314123299957     
   4.2900000000000001E-002   -0.15641824449875585     
   4.3200000000000002E-002   -0.14499539372617054     
   4.3500000000000004E-002   -0.12565060454386634     
   4.3799999999999999E-002    -9.8825100187179160E-002
   4.4100000000000000E-002    -6.5446072770268149E-002
   4.4400000000000002E-002    -2.6900922689502671E-002
   4.4700000000000004E-002     1.5069216878718983E-002
   4.4999999999999998E-002     5.8493936845824601E-002
   4.5300000000000000E-002    0.10131381850623011     
   4.5600000000000002E-002    0.14154472693855169     
   4.5899999999999996E-002    0.17741022230167935     
   4.6200000000000005E-002    0.20746453752858862     
   4.6500000000000000E-002    0.23069322894142807     
   4.6799999999999994E-002    0.24653010572833178     
   4.7100000000000003E-002    0.25486301031866354     
   4.7399999999999998E-002    0.25600001476421497     
   4.7700000000000006E-002    0.25056523903301464     
   4.8000000000000001E-002    0.23942864156256682     
   4.8300000000000010E-002    0.22356182111059653     
   4.8600000000000004E-002    0.20393348002546485     
   4.8899999999999999E-002    0.18143138243198287     
   4.9200000000000008E-002    0.15674896904624802     
   4.9500000000000002E-002    0.13037765909175558     
   4.9800000000000011E-002    0.10255665218219034     
   5.0100000000000006E-002     7.3312041483664103E-002
   5.0400000000000000E-002     4.2491595357524309E-002
   5.0700000000000009E-002     9.8114374818331629E-003
   5.1000000000000004E-002    -2.5050214023714434E-002
   5.1299999999999998E-002    -6.2385682331631553E-002
   5.1600000000000007E-002   -0.10237697487764663     
   5.1900000000000002E-002   -0.14503505192608479     
   5.2200000000000010E-002   -0.19011149904739710     
   5.2500000000000005E-002   -0.23711029162298480     
   5.2800000000000000E-002   -0.28522440372022295     
   5.3099999999999994E-002   -0.33336827024772653     
   5.3400000000000003E-002   -0.38022890700178280     
   5.3699999999999998E-002   -0.42424576879552767     
   5.4000000000000006E-002   -0.46379391547350224     
   5.4300000000000001E-002   -0.49716114725390170     
   5.4599999999999996E-002   -0.52270476376659403     
   5.4900000000000004E-002   -0.53896797386006767     
   5.5199999999999999E-002   -0.54467539324080150     
   5.5499999999999994E-002   -0.53892009883315239     
   5.5800000000000002E-002   -0.52113288114809819     
   5.6099999999999997E-002   -0.49116767175289233     
   5.6400000000000006E-002   -0.44927947308991278     
   5.6700000000000000E-002   -0.39609911238019180     
   5.6999999999999995E-002   -0.33263181596677160     
   5.7300000000000004E-002   -0.26014306365830553     
   5.7599999999999998E-002   -0.18009162048704042     
   5.7900000000000007E-002    -9.4103805181058986E-002
   5.8200000000000002E-002    -3.8391065268937874E-003
   5.8499999999999996E-002     8.9084391058232626E-002
   5.8800000000000005E-002    0.18307948445626110     
   5.9100000000000000E-002    0.27668545208507744     
   5.9400000000000008E-002    0.36859933895827446     
   5.9700000000000003E-002    0.45758733942259688     
   6.0000000000000012E-002    0.54258120644401586     
   6.0300000000000006E-002    0.62254287373893291     
   6.0600000000000001E-002    0.69648918905809865     
   6.0900000000000010E-002    0.76346559213891751     
   6.1200000000000004E-002    0.82239139942421602     
   6.1500000000000013E-002    0.87219562583218035     
   6.1800000000000008E-002    0.91159928613638641     
   6.2100000000000002E-002    0.93924382913048632     
   6.2399999999999997E-002    0.95370420393329525     
   6.2700000000000006E-002    0.95334548426370702     
   6.3000000000000000E-002    0.93663176287316929     
   6.3300000000000009E-002    0.90198452543062047     
   6.3600000000000004E-002    0.84798295460424811     
   6.3899999999999998E-002    0.77352303411288048     
   6.4199999999999993E-002    0.67787910463917456     
   6.4500000000000002E-002    0.56092147237112755     
   6.4800000000000010E-002    0.42316319350314036     
   6.5100000000000005E-002    0.26595703246919289     
   6.5400000000000000E-002     9.1530175777179146E-002
   6.5700000000000008E-002    -9.6896755079028729E-002
   6.5999999999999989E-002   -0.29521137553588161     
   6.6299999999999998E-002   -0.49841057942798628     
   6.6600000000000006E-002   -0.70073879450134413     
   6.6900000000000001E-002   -0.89600726782456164     
   6.7199999999999996E-002    -1.0777042397986492     
   6.7500000000000004E-002    -1.2393664149488544     
   6.7800000000000013E-002    -1.3749435887086392     
   6.8099999999999994E-002    -1.4789807948725482     
   6.8400000000000002E-002    -1.5470329909261338     
   6.8700000000000011E-002    -1.5758460016965756     
   6.8999999999999992E-002    -1.5635146647300857     
   6.9300000000000000E-002    -1.5096286233463871     
   6.9600000000000009E-002    -1.4152793483797410     
   6.9900000000000004E-002    -1.2828776994831799     
   7.0199999999999999E-002    -1.1162599836235891     
   7.0500000000000007E-002   -0.92020678765274511     
   7.0800000000000016E-002   -0.70038352384214519     
   7.1099999999999997E-002   -0.46304946267085834     
   7.1400000000000005E-002   -0.21461152245154747     
   7.1700000000000000E-002     3.8355384296276995E-002
   7.1999999999999995E-002    0.28974459521417106     
   7.2300000000000003E-002    0.53377338914092398     
   7.2600000000000012E-002    0.76544537470254070     
   7.2900000000000006E-002    0.98068710163422068     
   7.3200000000000001E-002     1.1761100649945107     
   7.3499999999999996E-002     1.3494745523637803     
   7.3800000000000004E-002     1.4991768802078909     
   7.4099999999999999E-002     1.6243936144922699     
   7.4400000000000008E-002     1.7247920383767479     
   7.4700000000000003E-002     1.8001658320090073     
   7.5000000000000011E-002     1.8503660595698150     
   7.5299999999999992E-002     1.8747680230935018     
   7.5600000000000001E-002     1.8722642663832616     
   7.5900000000000009E-002     1.8410299494004434     
   7.6200000000000004E-002     1.7784927922871105     
   7.6499999999999999E-002     1.6816185634792831     
   7.6800000000000007E-002     1.5470648191687246     
   7.7099999999999988E-002     1.3718452011039233     
   7.7399999999999997E-002     1.1538229037556640     
   7.7700000000000005E-002    0.89218507138352443     
   7.8000000000000014E-002    0.58849765143899457     
   7.8299999999999995E-002    0.24672412008727029     
   7.8600000000000003E-002   -0.12614146313549446     
   7.8900000000000012E-002   -0.51990172424271819     
   7.9199999999999993E-002   -0.92210444455139040     
   7.9500000000000001E-002    -1.3177346486111432     
   7.9800000000000010E-002    -1.6907588297234213     
   8.0100000000000018E-002    -2.0251297375502730     
   8.0399999999999999E-002    -2.3056511171801475     
   8.0700000000000008E-002    -2.5198416106408388     
   8.1000000000000003E-002    -2.6583512607558362     
   8.1299999999999997E-002    -2.7160850809175230     
   8.1600000000000006E-002    -2.6926929763701537     
   8.1900000000000014E-002    -2.5920897177387303     
   8.2199999999999995E-002    -2.4225341257302944     
   8.2500000000000004E-002    -2.1953281483401170     
   8.2799999999999999E-002    -1.9236912152381365     
   8.3100000000000007E-002    -1.6217192742259670     
   8.3400000000000002E-002    -1.3026322912280683     
   8.3700000000000011E-002   -0.97797972115322374     
   8.4000000000000005E-002   -0.65660034663806499     
   8.4300000000000000E-002   -0.34424385978309147     
   8.4599999999999995E-002    -4.3715765090650116E-002
   8.4900000000000003E-002    0.24503911827486657     
   8.5199999999999998E-002    0.52351698315401052     
   8.5500000000000007E-002    0.79399870432177266     
   8.5800000000000001E-002     1.0581996061754886     
   8.6100000000000010E-002     1.3160460477655391     
   8.6399999999999991E-002     1.5651787283632927     
   8.6699999999999999E-002     1.7997161629991965     
   8.7000000000000008E-002     2.0110806048423129     
   8.7300000000000003E-002     2.1876818830818934     
   8.7599999999999997E-002     2.3159405970954339     
   8.7900000000000006E-002     2.3819983720472919     
   8.8200000000000014E-002     2.3720993962155177     
   8.8499999999999995E-002     2.2753656152684627     
   8.8800000000000004E-002     2.0843024549740861     
   8.9100000000000013E-002     1.7961186376796618     
   8.9399999999999993E-002     1.4142869732172869     
   8.9700000000000002E-002    0.94782937259841660     
   9.0000000000000011E-002    0.41222329893964371     
   9.0299999999999991E-002   -0.17163174013230797     
   9.0600000000000000E-002   -0.77858921725188779     
   9.0900000000000009E-002    -1.3799607025301981     
   9.1200000000000017E-002    -1.9460988610832288     
   9.1499999999999998E-002    -2.4472934526863384     
   9.1800000000000007E-002    -2.8560680618193572     
   9.2100000000000001E-002    -3.1490364885688962     
   9.2399999999999996E-002    -3.3075900975284327     
   9.2700000000000005E-002    -3.3202760852239521     
   9.3000000000000013E-002    -3.1826259356014646     
   9.3300000000000008E-002    -2.8978176500469459     
   9.3600000000000003E-002    -2.4770146179073791     
   9.3899999999999997E-002    -1.9378571480142419     
   9.4200000000000006E-002    -1.3044463314255221     
   9.4500000000000001E-002   -0.60556765412537672     
   9.4800000000000009E-002    0.12717034153627682     
   9.5100000000000004E-002    0.86027984695275705     
   9.5399999999999999E-002     1.5614220251120088     
   9.5699999999999993E-002     2.1999635050456305     
   9.6000000000000002E-002     2.7491928580695202     
   9.6300000000000011E-002     3.1878208166738062     
   9.6600000000000005E-002     3.5001041420349281     
   9.6900000000000000E-002     3.6772529669400313     
   9.7200000000000009E-002     3.7170163962675531     
   9.7499999999999989E-002     3.6233619851339398     
   9.7799999999999998E-002     3.4063075753075367     
   9.8100000000000007E-002     3.0806118894269616     
   9.8400000000000015E-002     2.6648653283175392     
   9.8699999999999996E-002     2.1806684374684764     
   9.9000000000000005E-002     1.6507714986100055     
   9.9300000000000013E-002     1.0985722322950728     
   9.9599999999999994E-002    0.54693484475492049     
   9.9900000000000003E-002     1.7102939388453642E-002
  0.10020000000000001        -0.47166141949086082     
  0.10049999999999999        -0.90291779919964910     
  0.10080000000000000         -1.2635863298212442     
  0.10110000000000001         -1.5439724677499598     
  0.10140000000000000         -1.7381528626451725     
  0.10170000000000000         -1.8442993450059930     
  0.10200000000000001         -1.8640966401401045     
  0.10230000000000002         -1.8031941511449148     
  0.10260000000000000         -1.6704485881227882     
  0.10290000000000001         -1.4775858926852621     
  0.10320000000000000         -1.2386420402783713     
  0.10350000000000001        -0.96875363676858228     
  0.10380000000000000        -0.68418769030686022     
  0.10410000000000001        -0.40062867875717467     
  0.10440000000000001        -0.13265737825587998     
  0.10470000000000000         0.10669898618090201     
  0.10500000000000000         0.30734451202519963     
  0.10530000000000000         0.46193196601966235     
  0.10560000000000000         0.56590822947183028     
  0.10590000000000001         0.61819178241192319     
  0.10620000000000000         0.62013685694805254     
  0.10650000000000001         0.57576232559732077     
  0.10679999999999999         0.49103444242066985     
  0.10710000000000000         0.37278357754648894     
  0.10740000000000001         0.22911783749738129     
  0.10770000000000000          6.7736142026427526E-002
  0.10800000000000000        -0.10402893408054359     
  0.10830000000000001        -0.27918800727276150     
  0.10859999999999999        -0.45266365257773344     
  0.10890000000000000        -0.61997968803305170     
  0.10920000000000001        -0.77844776012764783     
  0.10950000000000001        -0.92645648026097049     
  0.10979999999999999         -1.0628372061341977     
  0.11009999999999999         -1.1878673756661584     
  0.11040000000000001         -1.3010512517312947     
  0.11070000000000001         -1.4021425952645359     
  0.11100000000000000         -1.4900410403732209     
  0.11130000000000000         -1.5623964381233861     
  0.11160000000000002         -1.6159593759364341     
  0.11190000000000001         -1.6460708042003276     
  0.11220000000000001         -1.6473964293506356     
  0.11250000000000000         -1.6139479389387503     
  0.11280000000000000         -1.5400443992057831     
  0.11309999999999999         -1.4210828843327938     
  0.11340000000000001         -1.2539179510103864     
  0.11369999999999998         -1.0376218362778680     
  0.11400000000000000        -0.77469757772928105     
  0.11430000000000000        -0.47003181749605982     
  0.11460000000000002        -0.13188515491490715     
  0.11489999999999999         0.22838617883122048     
  0.11520000000000001         0.59808983745712041     
  0.11550000000000001         0.96243697813816453     
  0.11580000000000000          1.3065460589685571     
  0.11609999999999999          1.6161198542845199     
  0.11640000000000002          1.8779084082755233     
  0.11670000000000001          2.0810134779115543     
  0.11700000000000001          2.2165188822230704     
  0.11730000000000000          2.2782613186100207     
  0.11760000000000000          2.2633138178961474     
  0.11789999999999999          2.1706576059342240     
  0.11820000000000001          2.0021875880134772     
  0.11850000000000001          1.7619302828348538     
  0.11880000000000000          1.4558237291200520     
  0.11910000000000000          1.0925070995701205     
  0.11940000000000002         0.68225859159594648     
  0.11970000000000001         0.23792099369776842     
  0.12000000000000001        -0.22471075768617865     
  0.12030000000000000        -0.68804169419686545     
  0.12060000000000000         -1.1317189759756445     
  0.12089999999999999         -1.5337293797527494     
  0.12119999999999999         -1.8713327518058520     
  0.12150000000000001         -2.1219304213064447     
  0.12180000000000001         -2.2650483783824740     
  0.12210000000000000         -2.2838750425137420     
  0.12239999999999999         -2.1668920895377326     
  0.12270000000000002         -1.9098851474026546     
  0.12300000000000001         -1.5168876127171984     
  0.12330000000000001         -1.0007532253989790     
  0.12360000000000000        -0.38398805475582165     
  0.12390000000000000         0.30377733593477263     
  0.12419999999999999          1.0255217519893378     
  0.12450000000000001          1.7398568104606582     
  0.12480000000000001          2.4048446435535737     
  0.12509999999999999          2.9786396868722278     
  0.12540000000000001          3.4252220157016779     
  0.12570000000000003          3.7152872578516707     
  0.12600000000000000          3.8288796984921163     
  0.12630000000000002          3.7580635367269934     
  0.12659999999999999          3.5052350500645844     
  0.12690000000000001          3.0851446208637014     
  0.12719999999999998          2.5224129973219860     
  0.12750000000000000          1.8489886415082886     
  0.12780000000000002          1.1037576995612586     
  0.12809999999999999         0.32699200771957670     
  0.12840000000000001        -0.43998784822690240     
  0.12869999999999998         -1.1585007034873627     
  0.12900000000000000         -1.7955947238013295     
  0.12930000000000003         -2.3227694136777188     
  0.12959999999999999         -2.7204450831754343     
  0.12990000000000002         -2.9760695162511013     
  0.13019999999999998         -3.0837536026163974     
  0.13050000000000000         -3.0459353490866334     
  0.13080000000000003         -2.8692265167005644     
  0.13109999999999999         -2.5667405956722504     
  0.13140000000000002         -2.1554527610658525     
  0.13169999999999998         -1.6550177559046766     
  0.13200000000000001         -1.0895390035396724     
  0.13229999999999997        -0.48427371230714300     
  0.13260000000000000         0.13238181156473883     
  0.13290000000000002         0.73026974026079117     
  0.13319999999999999          1.2787669953923455     
  0.13350000000000001          1.7458032985284859     
  0.13380000000000003          2.1017768430174186     
  0.13410000000000000          2.3194978578256809     
  0.13440000000000002          2.3767058295441075     
  0.13469999999999999          2.2591860609340131     
  0.13500000000000001          1.9612256774648742     
  0.13529999999999998          1.4889873123908384     
  0.13560000000000000         0.86077813060245134     
  0.13590000000000002         0.10697057095246798     
  0.13619999999999999        -0.73056664491561385     
  0.13650000000000001         -1.6009756323166400     
  0.13680000000000003         -2.4475912831224917     
  0.13710000000000000         -3.2125047769358162     
  0.13740000000000002         -3.8402653511622589     
  0.13769999999999999         -4.2836938323000027     
  0.13800000000000001         -4.5072112956603121     
  0.13829999999999998         -4.4911830754421516     
  0.13860000000000000         -4.2334859153509967     
  0.13890000000000002         -3.7494333307900973     
  0.13919999999999999         -3.0726666086526393     
  0.13950000000000001         -2.2496688267515506     
  0.13979999999999998         -1.3377980976934403     
  0.14010000000000000        -0.39982003681747003     
  0.14040000000000002         0.50308911966362402     
  0.14069999999999999          1.3133607023281826     
  0.14100000000000001          1.9854422676598489     
  0.14130000000000004          2.4869650600673481     
  0.14160000000000000          2.8004870595949853     
  0.14189999999999997          2.9265449463453024     
  0.14219999999999999          2.8790237124762257     
  0.14250000000000002          2.6858604262810957     
  0.14279999999999998          2.3837620115217462     
  0.14310000000000000          2.0138716520602244     
  0.14339999999999997          1.6195976257547215     
  0.14369999999999999          1.2401217618848790     
  0.14400000000000002         0.90867618719417820     
  0.14429999999999998         0.65038178982294070     
  0.14460000000000001         0.47960162410861606     
  0.14490000000000003         0.40152627729264623     
  0.14520000000000000         0.41227312556106632     
  0.14550000000000002         0.49959804205521507     
  0.14579999999999999         0.64741608567424436     
  0.14610000000000001         0.83548584807492787     
  0.14640000000000003          1.0434890931543812     
  0.14670000000000000          1.2531152543280513     
  0.14699999999999996          1.4474753081196781     
  0.14729999999999999          1.6158338176391780     
  0.14760000000000001          1.7501124432068735     
  0.14789999999999998          1.8468186594201583     
  0.14820000000000000          1.9070431520294093     