  -1.4999999999999999E-002     0.0000000000000000     
  -1.4700000000000000E-002    -3.7110477686593397E-009
  -1.4400000000000000E-002     6.8617808625032842E-009
  -1.4100000000000000E-002     1.2295774930426982E-007
  -1.3800000000000000E-002    -1.3489933577090077E-008
  -1.3500000000000000E-002    -4.4758532779288000E-008
  -1.3200000000000000E-002    -6.7807354305190086E-007
  -1.2899999999999998E-002    -9.4392162039155077E-007
  -1.2600000000000000E-002     1.3926769835680841E-006
  -1.2299999999999998E-002     3.0789110817204347E-006
  -1.2000000000000000E-002     2.6656784583724660E-006
  -1.1699999999999999E-002    -1.6248949453019851E-006
  -1.1399999999999999E-002    -6.5517802099235490E-006
  -1.1099999999999999E-002    -9.4490158542615178E-006
  -1.0799999999999999E-002    -2.6489332737749988E-006
  -1.0499999999999999E-002     1.4776820878320107E-005
  -1.0199999999999999E-002     1.9130999629254902E-005
  -9.8999999999999991E-003     1.2730638186827571E-005
  -9.5999999999999992E-003     6.8287249172623498E-006
  -9.2999999999999992E-003    -1.4577211345802180E-005
  -8.9999999999999993E-003    -3.5128650991405361E-005
  -8.6999999999999994E-003    -1.6224484808823525E-005
  -8.3999999999999995E-003     4.3467778894350543E-005
  -8.0999999999999996E-003     1.6298879345306668E-004
  -7.7999999999999988E-003     3.3314583372464658E-004
  -7.4999999999999997E-003     5.3725435009992738E-004
  -7.1999999999999998E-003     7.8537323477404289E-004
  -6.8999999999999981E-003     1.0974763754693848E-003
  -6.5999999999999982E-003     1.6171113427303138E-003
  -6.3000000000000000E-003     2.3887244601295682E-003
  -6.0000000000000001E-003     3.5129546547884583E-003
  -5.6999999999999985E-003     5.2727739823346664E-003
  -5.3999999999999986E-003     7.8588605674458634E-003
  -5.1000000000000004E-003     1.1564606558245094E-002
  -4.7999999999999987E-003     1.6743512138617911E-002
  -4.5000000000000005E-003     2.3856084767383323E-002
  -4.1999999999999989E-003     3.3332882106394734E-002
  -3.8999999999999990E-003     4.5706259661790760E-002
  -3.5999999999999990E-003     6.1785928816870950E-002
  -3.2999999999999991E-003     8.2016232464155792E-002
  -2.9999999999999992E-003    0.10681900532874034     
  -2.6999999999999993E-003    0.13650239639958572     
  -2.3999999999999994E-003    0.17107075667278870     
  -2.0999999999999977E-003    0.21004056988062203     
  -1.7999999999999995E-003    0.25188026542209396     
  -1.4999999999999979E-003    0.29457813677710121     
  -1.1999999999999997E-003    0.33471520173637259     
  -8.9999999999999976E-004    0.36730318348618685     
  -5.9999999999999810E-004    0.38619350711147282     
  -2.9999999999999992E-004    0.38341449609411704     
   0.0000000000000000         0.34998564391887221     
   3.0000000000000165E-004    0.27569212040728175     
   5.9999999999999984E-004    0.14997267452274521     
   9.0000000000000149E-004    -3.7027804333407577E-002
   1.2000000000000031E-003   -0.29461696606882359     
   1.5000000000000013E-003   -0.62962324278719528     
   1.8000000000000030E-003    -1.0460922173611706     
   2.1000000000000012E-003    -1.5439895539665613     
   2.3999999999999994E-003    -2.1181086758449652     
   2.7000000000000010E-003    -2.7590554367976239     
   2.9999999999999992E-003    -3.4518580366544711     
   3.3000000000000008E-003    -4.1772804838530959     
   3.6000000000000025E-003    -4.9121774951750297     
   3.9000000000000007E-003    -5.6300271790961745     
   4.2000000000000023E-003    -6.3029569880538645     
   4.5000000000000005E-003    -6.8998626343518481     
   4.7999999999999987E-003    -7.3889245897791795     
   5.1000000000000004E-003    -7.7361459648457753     
   5.4000000000000020E-003    -7.9032974138622478     
   5.7000000000000037E-003    -7.8486242032184990     
   5.9999999999999984E-003    -7.5231192556541089     
   6.3000000000000000E-003    -6.8713824326535189     
   6.6000000000000017E-003    -5.8312865096690416     
   6.9000000000000034E-003    -4.3368380696299766     
   7.2000000000000015E-003    -2.3251422200530669     
   7.5000000000000032E-003    0.25807385777697789     
   7.8000000000000014E-003     3.4446806295582064     
   8.0999999999999996E-003     7.2330192565798939     
   8.4000000000000012E-003     11.574509446064610     
   8.7000000000000029E-003     16.359911807097092     
   9.0000000000000011E-003     21.413601751209399     
   9.2999999999999992E-003     26.488596989962844     
   9.6000000000000009E-003     31.273007126244124     
   9.8999999999999991E-003     35.404731684026842     
   1.0200000000000001E-002     38.491380669878424     
   1.0500000000000002E-002     40.146322105286856     
   1.0800000000000004E-002     40.020339793656092     
   1.1099999999999999E-002     37.842796002004889     
   1.1400000000000000E-002     33.461284888246837     
   1.1700000000000002E-002     26.864493891190250     
   1.2000000000000004E-002     18.210631753628263     
   1.2300000000000002E-002     7.8250103089918639     
   1.2600000000000000E-002    -3.8081414013495021     
   1.2900000000000002E-002    -16.069159076548559     
   1.3200000000000000E-002    -28.254814002029434     
   1.3500000000000002E-002    -39.618891755072923     
   1.3800000000000003E-002    -49.442424194015302     
   1.4100000000000001E-002    -57.086272301093231     
   1.4400000000000000E-002    -62.045086639544365     
   1.4700000000000001E-002    -63.997098011612024     
   1.4999999999999999E-002    -62.816837152623677     
   1.5300000000000001E-002    -58.598659225772337     
   1.5600000000000003E-002    -51.639587497394132     
   1.5899999999999997E-002    -42.408511835437480     
   1.6199999999999999E-002    -31.518237209004383     
   1.6500000000000001E-002    -19.656267251020154     
   1.6800000000000002E-002    -7.5447602901762139     
   1.7100000000000004E-002     4.1201141072451435     
   1.7400000000000006E-002     14.727013963259111     
   1.7700000000000000E-002     23.767522619398392     
   1.8000000000000002E-002     30.887481248100130     
   1.8300000000000004E-002     35.886474437295192     
   1.8600000000000005E-002     38.713994614312924     
   1.8900000000000000E-002     39.476719622296059     
   1.9200000000000002E-002     38.386477514903447     
   1.9500000000000003E-002     35.754856298056524     
   1.9799999999999998E-002     31.948686614634127     
   2.0100000000000000E-002     27.347679593460256     
   2.0400000000000001E-002     22.335316257939667     
   2.0700000000000003E-002     17.244224171811481     
   2.0999999999999998E-002     12.359081180526886     
   2.1299999999999999E-002     7.8985358409428841     
   2.1600000000000001E-002     3.9991241301448781     
   2.1900000000000003E-002    0.74322657599120134     
   2.2200000000000004E-002    -1.8588702322313573     
   2.2500000000000006E-002    -3.8380090743446260     
   2.2800000000000001E-002    -5.2550903633585619     
   2.3100000000000002E-002    -6.2003271279046430     
   2.3400000000000004E-002    -6.7576035104964376     
   2.3699999999999999E-002    -7.0160744730681301     
   2.4000000000000000E-002    -7.0532438633023276     
   2.4300000000000002E-002    -6.9285179731185167     
   2.4599999999999997E-002    -6.6964935266437493     
   2.4900000000000005E-002    -6.3918131070169579     
   2.5200000000000000E-002    -6.0440633534669388     
   2.5499999999999995E-002    -5.6778426922788867     
   2.5800000000000003E-002    -5.3078754862837485     
   2.6099999999999998E-002    -4.9539091337647392     
   2.6400000000000007E-002    -4.6266112906360917     
   2.6700000000000002E-002    -4.3337987797075783     
   2.6999999999999996E-002    -4.0830172152159037     
   2.7300000000000005E-002    -3.8674737967642585     
   2.7600000000000000E-002    -3.6808497585197983     
   2.7900000000000008E-002    -3.5064235667708346     
   2.8200000000000003E-002    -3.3198136566204113     
   2.8499999999999998E-002    -3.1011392999025560     
   2.8800000000000006E-002    -2.8214650520805833     
   2.9100000000000001E-002    -2.4626874263077383     
   2.9400000000000003E-002    -2.0118696704265062     
   2.9700000000000004E-002    -1.4607176982163139     
   3.0000000000000006E-002   -0.82003144254769378     
   3.0300000000000001E-002   -0.10064922243345897     
   3.0600000000000002E-002    0.66986189740877222     
   3.0900000000000004E-002     1.4588514496597185     
   3.1199999999999999E-002     2.2343127101163986     
   3.1500000000000007E-002     2.9527456455072212     
   3.1800000000000002E-002     3.5825879350491476     
   3.2099999999999997E-002     4.0885396188455161     
   3.2400000000000005E-002     4.4415679116021636     
   3.2700000000000000E-002     4.6229677782361307     
   3.3000000000000002E-002     4.6139520295309637     
   3.3300000000000003E-002     4.4116105274833046     
   3.3599999999999998E-002     4.0162095885714280     
   3.3900000000000000E-002     3.4385198952025036     
   3.4200000000000001E-002     2.7032213224498634     
   3.4500000000000003E-002     1.8387578600197116     
   3.4799999999999998E-002    0.88759974423307852     
   3.5099999999999999E-002   -0.10072868095606680     
   3.5400000000000001E-002    -1.0736297668241548     
   3.5699999999999996E-002    -1.9722112706448911     
   3.6000000000000004E-002    -2.7431809357650820     
   3.6299999999999999E-002    -3.3395758528740913     
   3.6600000000000008E-002    -3.7231069155737657     
   3.6900000000000002E-002    -3.8754864495389683     
   3.7199999999999997E-002    -3.7915993090628319     
   3.7500000000000006E-002    -3.4861770946803716     
   3.7800000000000000E-002    -2.9948016578810126     
   3.8100000000000009E-002    -2.3601189565962102     
   3.8400000000000004E-002    -1.6418963234420758     
   3.8699999999999998E-002   -0.89896223183267665     
   3.9000000000000007E-002   -0.18826760684097099     
   3.9300000000000002E-002    0.43445349286400969     
   3.9600000000000003E-002    0.93454203883850262     
   3.9900000000000005E-002     1.2818928311624163     
   4.0200000000000000E-002     1.4669161442594607     
   4.0500000000000001E-002     1.4955926377681052     
   4.0800000000000003E-002     1.3789967863447998     
   4.1100000000000005E-002     1.1469739980894396     
   4.1399999999999999E-002    0.82646086649675432     
   4.1700000000000008E-002    0.45100594188141652     
   4.2000000000000003E-002     5.5262084076147744E-002
   4.2299999999999997E-002   -0.33465174382513041     
   4.2600000000000006E-002   -0.68884626830158524     
   4.2900000000000001E-002   -0.98721788002583111     
   4.3200000000000002E-002    -1.2121050776846047     
   4.3500000000000004E-002    -1.3477037825001190     
   4.3799999999999999E-002    -1.3856780315103308     
   4.4100000000000000E-002    -1.3184392568196728     
   4.4400000000000002E-002    -1.1427785130885653     
   4.4700000000000004E-002   -0.86146413257800702     
   4.4999999999999998E-002   -0.48068728973707842     
   4.5300000000000000E-002    -1.2050019271046319E-002
   4.5600000000000002E-002    0.52528262937073045     
   4.5899999999999996E-002     1.1117950982180460     
   4.6200000000000005E-002     1.7199805408237765     
   4.6500000000000000E-002     2.3214630280326034     
   4.6799999999999994E-002     2.8906719371936447     
   4.7100000000000003E-002     3.3967245503044694     
   4.7399999999999998E-002     3.8205282208329407     
   4.7700000000000006E-002     4.1411774242595243     
   4.8000000000000001E-002     4.3430701867888786     
   4.8300000000000010E-002     4.4216622503689109     
   4.8600000000000004E-002     4.3661544896376938     
   4.8899999999999999E-002     4.1794212730142988     
   4.9200000000000008E-002     3.8617079351084271     
   4.9500000000000002E-002     3.4126214183132362     
   4.9800000000000011E-002     2.8422173003398257     
   5.0100000000000006E-002     2.1518355720938445     
   5.0400000000000000E-002     1.3546695131271846     
   5.0700000000000009E-002    0.46672937171735107     
   5.1000000000000004E-002   -0.49466523535272344     
   5.1299999999999998E-002    -1.4956359172543188     
   5.1600000000000007E-002    -2.5037785369006968     
   5.1900000000000002E-002    -3.4761710502645116     
   5.2200000000000010E-002    -4.3612823492528889     
   5.2500000000000005E-002    -5.1153052187566459     
   5.2800000000000000E-002    -5.6888312181461060     
   5.3099999999999994E-002    -6.0428627803034374     
   5.3400000000000003E-002    -6.1556416602505806     
   5.3699999999999998E-002    -6.0100761745033253     
   5.4000000000000006E-002    -5.6198209013128064     
   5.4300000000000001E-002    -5.0098299150696164     
   5.4599999999999996E-002    -4.2201324822538311     
   5.4900000000000004E-002    -3.3171297834058890     
   5.5199999999999999E-002    -2.3577205685720770     
   5.5499999999999994E-002    -1.4165924479395500     
   5.5800000000000002E-002   -0.55844728858125592     
   5.6099999999999997E-002    0.17082227099110714     
   5.6400000000000006E-002    0.72276870568726359     
   5.6700000000000000E-002     1.0894429380216053     
   5.6999999999999995E-002     1.2685380115096692     
   5.7300000000000004E-002     1.2790805594678076     
   5.7599999999999998E-002     1.1678171629668199     
   5.7900000000000007E-002    0.97147231257918776     
   5.8200000000000002E-002    0.75188335857968269     
   5.8499999999999996E-002    0.55768705828047338     
   5.8800000000000005E-002    0.42720925714685443     
   5.9100000000000000E-002    0.40024197044068588     
   5.9400000000000008E-002    0.48083413135128761     
   5.9700000000000003E-002    0.67114467352292895     
   6.0000000000000012E-002    0.95189122397375137     
   6.0300000000000006E-002     1.2836817211072713     
   6.0600000000000001E-002     1.6325884350755331     
   6.0900000000000010E-002     1.9471392165416077     
   6.1200000000000004E-002     2.1862111143379082     
   6.1500000000000013E-002     2.3197350956735789     
   6.1800000000000008E-002     2.3207981522073169     
   6.2100000000000002E-002     2.1908066036410929     
   6.2399999999999997E-002     1.9418181395216862     
   6.2700000000000006E-002     1.6000879065267952     
   6.3000000000000000E-002     1.2151811859253669     
   6.3300000000000009E-002    0.83179577965778684     
   6.3600000000000004E-002    0.50470609030608671     
   6.3899999999999998E-002    0.28487881461192899     
   6.4199999999999993E-002    0.20102578716234731     
   6.4500000000000002E-002    0.28173392595922842     
   6.4800000000000010E-002    0.52186011905045326     
   6.5100000000000005E-002    0.90028698700931287     
   6.5400000000000000E-002     1.3833975281723525     
   6.5700000000000008E-002     1.9068097804702617     
   6.5999999999999989E-002     2.4142810254848257     
   6.6299999999999998E-002     2.8356145909195973     
   6.6600000000000006E-002     3.1060667480112727     
   6.6900000000000001E-002     3.1826246532553171     
   6.7199999999999996E-002     3.0239480161005758     
   6.7500000000000004E-002     2.6244259018287188     
   6.7800000000000013E-002     1.9927588127635509     
   6.8099999999999994E-002     1.1563160799317842     
   6.8400000000000002E-002    0.16999281202384608     
   6.8700000000000011E-002   -0.91092218882767995     
   6.8999999999999992E-002    -2.0160008529695688     
   6.9300000000000000E-002    -3.0752538705209957     
   6.9600000000000009E-002    -4.0288832837926520     
   6.9900000000000004E-002    -4.8196531272280652     
   7.0199999999999999E-002    -5.4075726206498871     
   7.0500000000000007E-002    -5.7686001865055800     
   7.0800000000000016E-002    -5.8887099864181494     
   7.1099999999999997E-002    -5.7745844485329769     
   7.1400000000000005E-002    -5.4428386086920284     
   7.1700000000000000E-002    -4.9176432007916588     
   7.1999999999999995E-002    -4.2404209699808888     
   7.2300000000000003E-002    -3.4466936893469295     
   7.2600000000000012E-002    -2.5824529735858945     
   7.2900000000000006E-002    -1.6951718256238690     
   7.3200000000000001E-002   -0.82066610046008392     
   7.3499999999999996E-002    -5.8543436166669238E-003
   7.3800000000000004E-002    0.72101265639104994     
   7.4099999999999999E-002     1.3336973789345592     
   7.4400000000000008E-002     1.8095162189376808     
   7.4700000000000003E-002     2.1486796805929984     
   7.5000000000000011E-002     2.3449570857952438     
   7.5299999999999992E-002     2.4131541866496917     
   7.5600000000000001E-002     2.3736284087300561     
   7.5900000000000009E-002     2.2450558950386608     
   7.6200000000000004E-002     2.0637726384642150     
   7.6499999999999999E-002     1.8535087114898161     
   7.6800000000000007E-002     1.6434537309368480     
   7.7099999999999988E-002     1.4598132644568906     
   7.7399999999999997E-002     1.3154844477279397     
   7.7700000000000005E-002     1.2253141878589915     
   7.8000000000000014E-002     1.1917898499561801     
   7.8299999999999995E-002     1.2104032981502044     
   7.8600000000000003E-002     1.2763290065595996     
   7.8900000000000012E-002     1.3760869177355772     
   7.9199999999999993E-002     1.4963562569647522     
   7.9500000000000001E-002     1.6275472387757759     
   7.9800000000000010E-002     1.7525083231693088     
   8.0100000000000018E-002     1.8647913722984271     
   8.0399999999999999E-002     1.9555819042723570     
   8.0700000000000008E-002     2.0133723012474434     
   8.1000000000000003E-002     2.0398572624567350     
   8.1299999999999997E-002     2.0225429931458905     
   8.1600000000000006E-002     1.9594840461661107     
   8.1900000000000014E-002     1.8479351005741620     
   8.2199999999999995E-002     1.6760092360833312     
   8.2500000000000004E-002     1.4490899845348579     
   8.2799999999999999E-002     1.1586696522562399     
   8.3100000000000007E-002    0.80773298824164996     
   8.3400000000000002E-002    0.40421556796718239     
   8.3700000000000011E-002    -5.1440457791986249E-002
   8.4000000000000005E-002   -0.53901883056444255     
   8.4300000000000000E-002    -1.0488584637673526     
   8.4599999999999995E-002    -1.5628939806836044     
   8.4900000000000003E-002    -2.0582282657187250     
   8.5199999999999998E-002    -2.5218165825865526     
   8.5500000000000007E-002    -2.9305742386257521     
   8.5800000000000001E-002    -3.2705668861689787     
   8.6100000000000010E-002    -3.5300956386840738     
   8.6399999999999991E-002    -3.6957146199460880     
   8.6699999999999999E-002    -3.7637642450215054     
   8.7000000000000008E-002    -3.7309364442441790     
   8.7300000000000003E-002    -3.5954560787188257     
   8.7599999999999997E-002    -3.3651606606918421     
   8.7900000000000006E-002    -3.0448961173791957     
   8.8200000000000014E-002    -2.6453087527200552     
   8.8499999999999995E-002    -2.1841695041532034     
   8.8800000000000004E-002    -1.6725919081428344     
   8.9100000000000013E-002    -1.1351971434008021     
   8.9399999999999993E-002   -0.59083762720507949     
   8.9700000000000002E-002    -5.8578656288490905E-002
   9.0000000000000011E-002    0.43403887801374275     
   9.0299999999999991E-002    0.87678680054009206     
   9.0600000000000000E-002     1.2485483191871296     
   9.0900000000000009E-002     1.5402202939119505     
   9.1200000000000017E-002     1.7513832183459215     
   9.1499999999999998E-002     1.8751026632018366     
   9.1800000000000007E-002     1.9263415036313418     
   9.2100000000000001E-002     1.9103712653737617     
   9.2399999999999996E-002     1.8426990716674609     
   9.2700000000000005E-002     1.7438474080941546     
   9.3000000000000013E-002     1.6235498604012619     
   9.3300000000000008E-002     1.5047895740580799     
   9.3600000000000003E-002     1.3959867616914110     
   9.3899999999999997E-002     1.3079717026945374     
   9.4200000000000006E-002     1.2494190773660065     
   9.4500000000000001E-002     1.2193849406670054     
   9.4800000000000009E-002     1.2206303513315504     
   9.5100000000000004E-002     1.2473410832491965     
   9.5399999999999999E-002     1.2945745083198332     
   9.5699999999999993E-002     1.3540432573999865     
   9.6000000000000002E-002     1.4170511523255485     
   9.6300000000000011E-002     1.4733178347489755     
   9.6600000000000005E-002     1.5132236000692529     
   9.6900000000000000E-002     1.5269829933208001     
   9.7200000000000009E-002     1.5034460888568830     
   9.7499999999999989E-002     1.4375945051406802     
   9.7799999999999998E-002     1.3188358096368944     
   9.8100000000000007E-002     1.1454650693636665     
   9.8400000000000015E-002    0.91558188489694814     
   9.8699999999999996E-002    0.62816452739016171     
   9.9000000000000005E-002    0.29232577349447819     
   9.9300000000000013E-002    -8.8471865368032088E-002
   9.9599999999999994E-002   -0.49986320412876140     
   9.9900000000000003E-002   -0.92935832309793298     
  0.10020000000000001         -1.3634713445298914     
  0.10049999999999999         -1.7826117321183688     
  0.10080000000000000         -2.1752406576235188     
  0.10110000000000001         -2.5229644445564787     
  0.10140000000000000         -2.8138748043668613     
  0.10170000000000000         -3.0370464206232555     
  0.10200000000000001         -3.1823234765625870     
  0.10230000000000002         -3.2444231928491263     
  0.10260000000000000         -3.2183089883068732     
  0.10290000000000001         -3.1044082730506659     
  0.10320000000000000         -2.9022747094592773     
  0.10350000000000001         -2.6186576173934952     
  0.10380000000000000         -2.2587864174840888     
  0.10410000000000001         -1.8342098491366130     
  0.10440000000000001         -1.3589677117722374     
  0.10470000000000000        -0.84615811581855027     
  0.10500000000000000        -0.31869383966270348     
  0.10530000000000000         0.20843378519711164     
  0.10560000000000000         0.71140838376951976     
  0.10590000000000001          1.1703903540916158     
  0.10620000000000000          1.5709407505989148     
  0.10650000000000001          1.8920800874447039     
  0.10679999999999999          2.1293414823278809     
  0.10710000000000000          2.2722602398805805     
  0.10740000000000001          2.3208459810097821     
  0.10770000000000000          2.2824464491405223     
  0.10800000000000000          2.1605480976651279     
  0.10830000000000001          1.9744244979287942     
  0.10859999999999999          1.7355138383580027     
  0.10890000000000000          1.4630438146455873     
  0.10920000000000001          1.1765418530379890     
  0.10950000000000001         0.89081709245036933     
  0.10979999999999999         0.62570907795035424     
  0.11009999999999999         0.39272880931606657     
  0.11040000000000001         0.20528516866193680     
  0.11070000000000001          7.1151137679327681E-002
  0.11100000000000000         -3.9522995479880363E-003
  0.11130000000000000         -1.8654300335950058E-002
  0.11160000000000002          2.5820428222230601E-002
  0.11190000000000001         0.12465792710069667     
  0.11220000000000001         0.26668112124079979     
  0.11250000000000000         0.44431657388557433     
  0.11280000000000000         0.63842324069728917     
  0.11309999999999999         0.83620050925242495     
  0.11340000000000001          1.0201279396611298     
  0.11369999999999998          1.1700248066478807     
  0.11400000000000000          1.2765024888722678     
  0.11430000000000000          1.3195731525526497     
  0.11460000000000002          1.2951256522698316     
  0.11489999999999999          1.1964825993557184     
  0.11520000000000001          1.0197218969156161     
  0.11550000000000001         0.77548885419221847     
  0.11580000000000000         0.46409724441125633     
  0.11609999999999999         0.10215749686111408     
  0.11640000000000002        -0.29799483438285623     
  0.11670000000000001        -0.72317427437959481     
  0.11700000000000001         -1.1524044661180994     
  0.11730000000000000         -1.5742848245837351     
  0.11760000000000000         -1.9700722413376255     
  0.11789999999999999         -2.3254581550099545     
  0.11820000000000001         -2.6283121417542503     
  0.11850000000000001         -2.8647592303980645     
  0.11880000000000000         -3.0249854008555985     
  0.11910000000000000         -3.1013996710264848     
  0.11940000000000002         -3.0868661643455226     
  0.11970000000000001         -2.9796464574434651     
  0.12000000000000001         -2.7817859482716472     
  0.12030000000000000         -2.4943804006113908     
  0.12060000000000000         -2.1308203713487188     
  0.12089999999999999         -1.7006627852675109     
  0.12119999999999999         -1.2204052283041733     
  0.12150000000000001        -0.71285148500630768     
  0.12180000000000001        -0.19187242183172515     
  0.12210000000000000         0.31415038140571849     
  0.12239999999999999         0.79031307121239180     
  0.12270000000000002          1.2186603010905230     
  0.12300000000000001          1.5800786096347821     
  0.12330000000000001          1.8718466104712590     
  0.12360000000000000          2.0789994972986179     
  0.12390000000000000          2.2049897134185272     
  0.12419999999999999          2.2500653748598580     
  0.12450000000000001          2.2155326173092647     
  0.12480000000000001          2.1157030125066996     
  0.12509999999999999          1.9531433239105951     
  0.12540000000000001          1.7444572347791762     
  0.12570000000000003          1.4998637210410735     
  0.12600000000000000          1.2318928372742590     
  0.12630000000000002         0.95706302588164505     
  0.12659999999999999         0.68529069212460669     
  0.12690000000000001         0.43309322656493165     
  0.12719999999999998         0.20974911145603681     
  0.12750000000000000          2.7569900983757556E-002
  0.12780000000000002        -0.10702990417212122     
  0.12809999999999999        -0.18819467903790121     
  0.12840000000000001        -0.21367112727360160     
  0.12869999999999998        -0.18798695506701213     
  0.12900000000000000        -0.11224638235878148     
  0.12930000000000003         -1.4472691551603578E-004
  0.12959999999999999         0.14223166178138591     
  0.12990000000000002         0.30052838017639161     
  0.13019999999999998         0.46050085883111791     
  0.13050000000000000         0.61529095778490372     
  0.13080000000000003         0.74670542714166288     
  0.13109999999999999         0.85241110000394471     
  0.13140000000000002         0.92231612402201080     
  0.13169999999999998         0.95056417002782112     
  0.13200000000000001         0.94026543642769767     
  0.13229999999999997         0.88366103893222814     
  0.13260000000000000         0.78790418717415989     
  0.13290000000000002         0.65198622581990406     
  0.13319999999999999         0.47834414286154114     
  0.13350000000000001         0.27507380886223576     
  0.13380000000000003          4.2553677519225785E-002
  0.13410000000000000        -0.20924763720676298     
  0.13440000000000002        -0.47351832619731837     
  0.13469999999999999        -0.74259926301941448     
  0.13500000000000001         -1.0046526748905649     
  0.13529999999999998         -1.2502356660653220     
  0.13560000000000000         -1.4698696775285214     
  0.13590000000000002         -1.6511565970158699     
  0.13619999999999999         -1.7884278389731492     
  0.13650000000000001         -1.8756017040996085     
  0.13680000000000003         -1.9066401915745885     
  0.13710000000000000         -1.8874523973023969     
  0.13740000000000002         -1.8148344613854377     
  0.13769999999999999         -1.6990577798333888     
  0.13800000000000001         -1.5488528025133377     
  0.13829999999999998         -1.3685163936459901     
  0.13860000000000000         -1.1774176245318060     
  0.13890000000000002        -0.97731016756024758     
  0.13919999999999999        -0.78273455764146149     
  0.13950000000000001        -0.60266865553442273     
  0.13979999999999998        -0.43715468195891916     
  0.14010000000000000        -0.30106328435777385     
  0.14040000000000002        -0.18779693115364005     
  0.14069999999999999        -0.10442222394200806     
  0.14100000000000001         -5.0762684900277577E-002
  0.14130000000000004         -1.9359968431955643E-002
  0.14160000000000000         -1.5471563288510959E-002
  0.14189999999999997         -2.5983257326305464E-002
  0.14219999999999999         -4.9952235283685753E-002
  0.14250000000000002         -7.9158788207066011E-002
  0.14279999999999998        -0.10250439095994457     
  0.14310000000000000        -0.11598020095720574     
  0.14339999999999997        -0.10609149670972307     
  0.14369999999999999         -6.8523758133330448E-002
  0.14400000000000002          4.2269365546421245E-003
  0.14429999999999998         0.11608004527522242     
  0.14460000000000001         0.26755293687829074     
  0.14490000000000003         0.45741946730920979     
  0.14520000000000000         0.68037500692025432     
  0.14550000000000002         0.92999045172727079     
  0.14579999999999999          1.1950327143601669     
  0.14610000000000001          1.4675001136725783     
  0.14640000000000003          1.7334191599988813     
  0.14670000000000000          1.9843950546900899     
  0.14699999999999996          2.2111329511457853     
  0.14729999999999999          2.4028924922297250     
  0.14760000000000001          2.5577811628383387     
  0.14789999999999998          2.6660712289992432     
  0.14820000000000000          2.7275683085211995     