  -1.4999999999999999E-002     0.0000000000000000     
  -1.4700000000000000E-002     6.8937581747786784E-030
  -1.4400000000000000E-002    -5.7934510959436054E-025
  -1.4100000000000000E-002    -1.7482121410070705E-021
  -1.3800000000000000E-002    -1.0940018904123013E-019
  -1.3500000000000000E-002    -1.5024006131442947E-019
  -1.3200000000000000E-002     1.1889361109107413E-017
  -1.2899999999999998E-002     2.7710080388074301E-017
  -1.2600000000000000E-002    -3.2944389224632538E-016
  -1.2299999999999998E-002    -7.6084411373554748E-016
  -1.2000000000000000E-002     3.5398562825325186E-015
  -1.1699999999999999E-002     4.3366494996549815E-015
  -1.1399999999999999E-002     5.1553697881073042E-015
  -1.1099999999999999E-002     2.7360167255518533E-014
  -1.0799999999999999E-002    -4.7383502352218598E-013
  -1.0499999999999999E-002    -2.6450780314654213E-013
  -1.0199999999999999E-002     4.8731081753093916E-012
  -9.8999999999999991E-003    -1.8311078130748382E-012
  -9.5999999999999992E-003    -2.0799730674580505E-011
  -9.2999999999999992E-003     2.1167842008426099E-011
  -8.9999999999999993E-003     2.9063835259110318E-011
  -8.6999999999999994E-003    -5.7386882043837824E-011
  -8.3999999999999995E-003     4.9373583267302653E-011
  -8.0999999999999996E-003     1.1725352653780369E-011
  -7.7999999999999988E-003    -1.9202308712618372E-010
  -7.4999999999999997E-003     1.1111517453679875E-010
  -7.1999999999999998E-003     2.1769008097423828E-010
  -6.8999999999999981E-003     3.7161813085311619E-011
  -6.5999999999999982E-003    -2.6527787600763325E-010
  -6.3000000000000000E-003    -8.0794558750531001E-011
  -6.0000000000000001E-003     3.6729967151593352E-010
  -5.6999999999999985E-003    -1.0150910177796173E-009
  -5.3999999999999986E-003    -1.0774284601122619E-009
  -5.1000000000000004E-003     2.7988472957471502E-009
  -4.7999999999999987E-003     6.1900535133272296E-009
  -4.5000000000000005E-003    -5.6511024829295631E-009
  -4.1999999999999989E-003    -1.5414672832531754E-008
  -3.8999999999999990E-003     9.6741602899768152E-009
  -3.5999999999999990E-003     2.2909189681286501E-008
  -3.2999999999999991E-003    -1.5829384996639287E-008
  -2.9999999999999992E-003    -4.8306954674873768E-008
  -2.6999999999999993E-003     5.6125131850271558E-008
  -2.3999999999999994E-003     1.5337413947305137E-007
  -2.0999999999999977E-003    -2.2356608404993436E-007
  -1.7999999999999995E-003    -4.1364748269874779E-007
  -1.4999999999999979E-003     7.0617376100312398E-007
  -1.1999999999999997E-003     9.0972056623451908E-007
  -8.9999999999999976E-004    -1.8246519656424040E-006
  -5.9999999999999810E-004    -2.2377638929928462E-006
  -2.9999999999999992E-004     3.8728360659637137E-006
   0.0000000000000000          7.5211761103450008E-006
   3.0000000000000165E-004    -6.5207341038661207E-006
   5.9999999999999984E-004    -2.6945132360129700E-005
   9.0000000000000149E-004     7.0855824858805376E-006
   1.2000000000000031E-003     1.4808690677263394E-004
   1.5000000000000013E-003     3.7636214324625154E-004
   1.8000000000000030E-003     6.4290155545313962E-004
   2.1000000000000012E-003     9.3576360062998590E-004
   2.3999999999999994E-003     1.3079392061022335E-003
   2.7000000000000010E-003     1.8982558478009143E-003
   2.9999999999999992E-003     2.9116683292553514E-003
   3.3000000000000008E-003     4.5419859733802637E-003
   3.6000000000000025E-003     6.9522360123576710E-003
   3.9000000000000007E-003     1.0380374335070386E-002
   4.2000000000000023E-003     1.5223203374392424E-002
   4.5000000000000005E-003     2.2015365500460238E-002
   4.7999999999999987E-003     3.1411804290338963E-002
   5.1000000000000004E-003     4.4192181654422180E-002
   5.4000000000000020E-003     6.1233220893378348E-002
   5.7000000000000037E-003     8.3478915292846345E-002
   5.9999999999999984E-003    0.11190283500902121     
   6.3000000000000000E-003    0.14741481123916778     
   6.6000000000000017E-003    0.19072012295855156     
   6.9000000000000034E-003    0.24211626724847335     
   7.2000000000000015E-003    0.30122165095883346     
   7.5000000000000032E-003    0.36670366320591086     
   7.8000000000000014E-003    0.43597456238394372     
   8.0999999999999996E-003    0.50485731139894874     
   8.4000000000000012E-003    0.56728771033932190     
   8.7000000000000029E-003    0.61510127859754604     
   9.0000000000000011E-003    0.63804972245575797     
   9.2999999999999992E-003    0.62403343577540582     
   9.6000000000000009E-003    0.55957688929348137     
   9.8999999999999991E-003    0.43056645099017832     
   1.0200000000000001E-002    0.22339946634816243     
   1.0500000000000002E-002    -7.3426011931626123E-002
   1.0800000000000004E-002   -0.46733804298048476     
   1.1099999999999999E-002   -0.95985842233423924     
   1.1400000000000000E-002    -1.5448279675632435     
   1.1700000000000002E-002    -2.2066838928204433     
   1.2000000000000004E-002    -2.9192120914373874     
   1.2300000000000002E-002    -3.6452813689656267     
   1.2600000000000000E-002    -4.3374944021730073     
   1.2900000000000002E-002    -4.9401883061243836     
   1.3200000000000000E-002    -5.3925426976170741     
   1.3500000000000002E-002    -5.6325366877679812     
   1.3800000000000003E-002    -5.6022148740819659     
   1.4100000000000001E-002    -5.2533132315669633     
   1.4400000000000000E-002    -4.5528455041192117     
   1.4700000000000001E-002    -3.4884617228249080     
   1.4999999999999999E-002    -2.0715886073004128     
   1.5300000000000001E-002   -0.34014570319033410     
   1.5600000000000003E-002     1.6418205403884514     
   1.5899999999999997E-002     3.7869079101109548     
   1.6199999999999999E-002     5.9881947186895559     
   1.6500000000000001E-002     8.1267418093704862     
   1.6800000000000002E-002     10.079468420211469     
   1.7100000000000004E-002     11.728081086066538     
   1.7400000000000006E-002     12.967958375289300     
   1.7700000000000000E-002     13.715457261303584     
   1.8000000000000002E-002     13.915046870250819     
   1.8300000000000004E-002     13.542434180286307     
   1.8600000000000005E-002     12.605522549399382     
   1.8900000000000000E-002     11.144265364326827     
   1.9200000000000002E-002     9.2247326753178527     
   1.9500000000000003E-002     6.9351885549628030     
   1.9799999999999998E-002     4.3780258147914282     
   2.0100000000000000E-002     1.6611697528735903     
   2.0400000000000001E-002    -1.1070784102920719     
   2.0700000000000003E-002    -3.8271251133266020     
   2.0999999999999998E-002    -6.4111019553984931     
   2.1299999999999999E-002    -8.7852707525832727     
   2.1600000000000001E-002    -10.894173238823612     
   2.1900000000000003E-002    -12.695955660718710     
   2.2200000000000004E-002    -14.162386162186806     
   2.2500000000000006E-002    -15.275853981302078     
   2.2800000000000001E-002    -16.023284371639249     
   2.3100000000000002E-002    -16.396297246963627     
   2.3400000000000004E-002    -16.385827406691874     
   2.3699999999999999E-002    -15.982506259575473     
   2.4000000000000000E-002    -15.177635949808973     
   2.4300000000000002E-002    -13.963077953584644     
   2.4599999999999997E-002    -12.337458172031845     
   2.4900000000000005E-002    -10.308738663603037     
   2.5200000000000000E-002    -7.8988472038357145     
   2.5499999999999995E-002    -5.1492520413021623     
   2.5800000000000003E-002    -2.1226492246159552     
   2.6099999999999998E-002     1.0950756805059356     
   2.6400000000000007E-002     4.3960569950091894     
   2.6700000000000002E-002     7.6553685258730297     
   2.6999999999999996E-002     10.735412820511499     
   2.7300000000000005E-002     13.496338202200945     
   2.7600000000000000E-002     15.805599762092868     
   2.7900000000000008E-002     17.547391600385026     
   2.8200000000000003E-002     18.634328514351125     
   2.8499999999999998E-002     19.014894722778536     
   2.8800000000000006E-002     18.678489542077500     
   2.9100000000000001E-002     17.658873414966934     
   2.9400000000000003E-002     16.030301371007511     
   2.9700000000000004E-002     13.904622268706788     
   3.0000000000000006E-002     11.420941487034231     
   3.0300000000000001E-002     8.7332307682722075     
   3.0600000000000002E-002     5.9997014380896871     
   3.0900000000000004E-002     3.3658508794217994     
   3.1199999999999999E-002    0.95444630527327945     
   3.1500000000000007E-002    -1.1457192716571445     
   3.1800000000000002E-002    -2.8893680545053257     
   3.2099999999999997E-002    -4.2755445039513233     
   3.2400000000000005E-002    -5.3495717478763822     
   3.2700000000000000E-002    -6.1972440828130573     
   3.3000000000000002E-002    -6.9342208644792152     
   3.3300000000000003E-002    -7.6957553708810167     
   3.3599999999999998E-002    -8.6182613828183889     
   3.3900000000000000E-002    -9.8232225513380627     
   3.4200000000000001E-002    -11.398378139837916     
   3.4500000000000003E-002    -13.380850674698820     
   3.4799999999999998E-002    -15.743860756049344     
   3.5099999999999999E-002    -18.387714350978172     
   3.5400000000000001E-002    -21.136362177424417     
   3.5699999999999996E-002    -23.745040442062930     
   3.6000000000000004E-002    -25.911113681657042     
   3.6299999999999999E-002    -27.297180127068259     
   3.6600000000000008E-002    -27.561859440240198     
   3.6900000000000002E-002    -26.390545089251191     
   3.7199999999999997E-002    -23.535171257150182     
   3.7500000000000006E-002    -18.847874605938159     
   3.7800000000000000E-002    -12.309611157888980     
   3.8100000000000009E-002    -4.0555537986600712     
   3.8400000000000004E-002     5.6233648282865971     
   3.8699999999999998E-002     16.279749063317382     
   3.9000000000000007E-002     27.335080770087302     
   3.9300000000000002E-002     38.117784970036382     
   3.9600000000000003E-002     47.903634458901934     
   3.9900000000000005E-002     55.981182319596542     
   4.0200000000000000E-002     61.704961071114667     
   4.0500000000000001E-002     64.551570771288567     
   4.0800000000000003E-002     64.174368603333676     
   4.1100000000000005E-002     60.428867805443815     
   4.1399999999999999E-002     53.399881921802034     
   4.1700000000000008E-002     43.397937952080611     
   4.2000000000000003E-002     30.936808773799839     
   4.2299999999999997E-002     16.704771873425898     
   4.2600000000000006E-002     1.5080595142670745     
   4.2900000000000001E-002    -13.787387113650571     
   4.3200000000000002E-002    -28.314190998718743     
   4.3500000000000004E-002    -41.274239603140927     
   4.3799999999999999E-002    -51.984258147943819     
   4.4100000000000000E-002    -59.925419111905740     
   4.4400000000000002E-002    -64.771989382892912     
   4.4700000000000004E-002    -66.400146715616643     
   4.4999999999999998E-002    -64.891547800685345     
   4.5300000000000000E-002    -60.510406578507258     
   4.5600000000000002E-002    -53.672761302570791     
   4.5899999999999996E-002    -44.912792190180255     
   4.6200000000000005E-002    -34.828426498138128     
   4.6500000000000000E-002    -24.042341218809952     
   4.6799999999999994E-002    -13.158259114939824     
   4.7100000000000003E-002    -2.7172817193979313     
   4.7399999999999998E-002     6.8205604277705341     
   4.7700000000000006E-002     15.103635587498275     
   4.8000000000000001E-002     21.894702460683334     
   4.8300000000000010E-002     27.065692845833041     
   4.8600000000000004E-002     30.596595403847004     
   4.8899999999999999E-002     32.552341854152701     
   4.9200000000000008E-002     33.067401633363716     
   4.9500000000000002E-002     32.327121329852787     
   4.9800000000000011E-002     30.543713671952219     
   5.0100000000000006E-002     27.941491074770511     
   5.0400000000000000E-002     24.743256847931832     
   5.0700000000000009E-002     21.156782051631041     
   5.1000000000000004E-002     17.371082667660033     
   5.1299999999999998E-002     13.551517927422395     
   5.1600000000000007E-002     9.8363200798017232     
   5.1900000000000002E-002     6.3412848984798735     
   5.2200000000000010E-002     3.1556856797510022     
   5.2500000000000005E-002    0.34611129925078643     
   5.2800000000000000E-002    -2.0407312541095948     
   5.3099999999999994E-002    -3.9829147463742345     
   5.3400000000000003E-002    -5.4731729682249011     
   5.3699999999999998E-002    -6.5246505544817239     
   5.4000000000000006E-002    -7.1664772698243837     
   5.4300000000000001E-002    -7.4376839024431263     
   5.4599999999999996E-002    -7.3915762403667031     
   5.4900000000000004E-002    -7.0828552141933017     
   5.5199999999999999E-002    -6.5711372064793068     
   5.5499999999999994E-002    -5.9159720868094325     
   5.5800000000000002E-002    -5.1693777230964599     
   5.6099999999999997E-002    -4.3831097095677336     
   5.6400000000000006E-002    -3.5981929094695175     
   5.6700000000000000E-002    -2.8508677196999770     
   5.6999999999999995E-002    -2.1723342825603993     
   5.7300000000000004E-002    -1.5847498169978991     
   5.7599999999999998E-002    -1.1090152295206188     
   5.7900000000000007E-002   -0.75843888138049032     
   5.8200000000000002E-002   -0.54172920362897159     
   5.8499999999999996E-002   -0.46320989138586555     
   5.8800000000000005E-002   -0.51798480965778282     
   5.9100000000000000E-002   -0.69619841062641186     
   5.9400000000000008E-002   -0.97915511932047039     
   5.9700000000000003E-002    -1.3405336307391238     
   6.0000000000000012E-002    -1.7502853900752484     
   6.0300000000000006E-002    -2.1722954750758916     
   6.0600000000000001E-002    -2.5699425648280965     
   6.0900000000000010E-002    -2.9101287629560346     
   6.1200000000000004E-002    -3.1615560169957320     
   6.1500000000000013E-002    -3.3029595857061906     
   6.1800000000000008E-002    -3.3202129952037893     
   6.2100000000000002E-002    -3.2068608109053542     
   6.2399999999999997E-002    -2.9682465086985985     
   6.2700000000000006E-002    -2.6124746989768752     
   6.3000000000000000E-002    -2.1563159543363710     
   6.3300000000000009E-002    -1.6186988108534344     
   6.3600000000000004E-002    -1.0179251384056736     
   6.3899999999999998E-002   -0.37754349648712804     
   6.4199999999999993E-002    0.28499952216140656     
   6.4500000000000002E-002    0.94746425168022697     
   6.4800000000000010E-002     1.5894241492808163     
   6.5100000000000005E-002     2.1920193210932268     
   6.5400000000000000E-002     2.7307592215672543     
   6.5700000000000008E-002     3.1866243474268430     
   6.5999999999999989E-002     3.5361140868690200     
   6.6299999999999998E-002     3.7600559658701656     
   6.6600000000000006E-002     3.8454336578570718     
   6.6900000000000001E-002     3.7803083295338666     
   6.7199999999999996E-002     3.5671354462734683     
   6.7500000000000004E-002     3.2123205853268502     
   6.7800000000000013E-002     2.7344005069959536     
   6.8099999999999994E-002     2.1622541609515764     
   6.8400000000000002E-002     1.5268853117329719     
   6.8700000000000011E-002    0.87003705724947444     
   6.8999999999999992E-002    0.22880533988783647     
   6.9300000000000000E-002   -0.35908898540981760     
   6.9600000000000009E-002   -0.85994773218344278     
   6.9900000000000004E-002    -1.2524994584553255     
   7.0199999999999999E-002    -1.5185076080205775     
   7.0500000000000007E-002    -1.6541679106187956     
   7.0800000000000016E-002    -1.6627262298153127     
   7.1099999999999997E-002    -1.5536364199270594     
   7.1400000000000005E-002    -1.3466617026419954     
   7.1700000000000000E-002    -1.0605405437856419     
   7.1999999999999995E-002   -0.71958073250584320     
   7.2300000000000003E-002   -0.34875951771333291     
   7.2600000000000012E-002     3.0893373957361803E-002
   7.2900000000000006E-002    0.39551290855810972     
   7.3200000000000001E-002    0.72705123468554689     
   7.3499999999999996E-002     1.0087233727546447     
   7.3800000000000004E-002     1.2243410433489075     
   7.4099999999999999E-002     1.3659498236663872     
   7.4400000000000008E-002     1.4240338716454097     
   7.4700000000000003E-002     1.3961520494839199     
   7.5000000000000011E-002     1.2854061616059980     
   7.5299999999999992E-002     1.0955904556356462     
   7.5600000000000001E-002    0.84173862204807648     
   7.5900000000000009E-002    0.53815382891186481     
   7.6200000000000004E-002    0.20518817650175247     
   7.6499999999999999E-002   -0.13224317182461975     
   7.6800000000000007E-002   -0.45435475236370237     
   7.7099999999999988E-002   -0.73498173825616497     
   7.7399999999999997E-002   -0.95775816574635364     
   7.7700000000000005E-002    -1.1087131533107666     
   7.8000000000000014E-002    -1.1785393647439584     
   7.8299999999999995E-002    -1.1701550103995189     
   7.8600000000000003E-002    -1.0861571194439463     
   7.8900000000000012E-002   -0.94211103810179964     
   7.9199999999999993E-002   -0.75371589029918695     
   7.9500000000000001E-002   -0.53941085415765500     
   7.9800000000000010E-002   -0.32131611706366670     
   8.0100000000000018E-002   -0.11421805889648162     
   8.0399999999999999E-002     6.5136102782726413E-002
   8.0700000000000008E-002    0.20935495150380667     
   8.1000000000000003E-002    0.31406322097029360     
   8.1299999999999997E-002    0.37944179265477551     
   8.1600000000000006E-002    0.41245870743980895     
   8.1900000000000014E-002    0.41735729272106781     
   8.2199999999999995E-002    0.40411598074541644     
   8.2500000000000004E-002    0.37690121085611850     
   8.2799999999999999E-002    0.33822152700759744     
   8.3100000000000007E-002    0.28796271984132815     
   8.3400000000000002E-002    0.21738136385933515     
   8.3700000000000011E-002    0.11996793663971306     
   8.4000000000000005E-002    -1.9454780968500174E-002
   8.4300000000000000E-002   -0.21108083081674245     
   8.4599999999999995E-002   -0.46275022993267001     
   8.4900000000000003E-002   -0.78099695899242505     
   8.5199999999999998E-002    -1.1563135139536982     
   8.5500000000000007E-002    -1.5778780837032684     
   8.5800000000000001E-002    -2.0182186344674236     
   8.6100000000000010E-002    -2.4411646412221586     
   8.6399999999999991E-002    -2.8081671077225252     
   8.6699999999999999E-002    -3.0675568139645648     
   8.7000000000000008E-002    -3.1775035838445795     
   8.7300000000000003E-002    -3.0970300161190054     
   8.7599999999999997E-002    -2.7965335111257161     
   8.7900000000000006E-002    -2.2691189690160769     
   8.8200000000000014E-002    -1.5182462520711368     
   8.8499999999999995E-002   -0.57737945447057371     
   8.8800000000000004E-002    0.50198840442331694     
   8.9100000000000013E-002     1.6539996567081552     
   8.9399999999999993E-002     2.7908294730559504     
   8.9700000000000002E-002     3.8293988070084737     
   9.0000000000000011E-002     4.6831621786958095     
   9.0299999999999991E-002     5.2759782947789589     
   9.0600000000000000E-002     5.5586667250849011     
   9.0900000000000009E-002     5.4949947256528491     
   9.1200000000000017E-002     5.0883129783172265     
   9.1499999999999998E-002     4.3664466264759838     
   9.1800000000000007E-002     3.3806089672647701     
   9.2100000000000001E-002     2.2149193321676819     
   9.2399999999999996E-002    0.95323321829079788     
   9.2700000000000005E-002   -0.30388014315674639     
   9.3000000000000013E-002    -1.4623773124850246     
   9.3300000000000008E-002    -2.4462864225433449     
   9.3600000000000003E-002    -3.1844336102721762     
   9.3899999999999997E-002    -3.6440169331473840     
   9.4200000000000006E-002    -3.8065416771641871     
   9.4500000000000001E-002    -3.6790776870613087     
   9.4800000000000009E-002    -3.2978011316429132     
   9.5100000000000004E-002    -2.7009611480170221     
   9.5399999999999999E-002    -1.9532793141814722     
   9.5699999999999993E-002    -1.1148556225512962     
   9.6000000000000002E-002   -0.24674561769188585     
   9.6300000000000011E-002    0.58663550907072537     
   9.6600000000000005E-002     1.3426562497463905     
   9.6900000000000000E-002     1.9752071435848109     
   9.7200000000000009E-002     2.4576344414038971     
   9.7499999999999989E-002     2.7740878106279645     
   9.7799999999999998E-002     2.9120903895403849     
   9.8100000000000007E-002     2.8792629640960881     
   9.8400000000000015E-002     2.6815214084668479     
   9.8699999999999996E-002     2.3373931996945920     
   9.9000000000000005E-002     1.8699567078144455     
   9.9300000000000013E-002     1.3016181667680335     
   9.9599999999999994E-002    0.66530082326958251     
   9.9900000000000003E-002    -1.2491959002833397E-002
  0.10020000000000001        -0.70080096482015719     
  0.10049999999999999         -1.3700557586417048     
  0.10080000000000000         -1.9959219358007729     
  0.10110000000000001         -2.5529865796600717     
  0.10140000000000000         -3.0240069051704808     
  0.10170000000000000         -3.3931235300411373     
  0.10200000000000001         -3.6502553878477926     
  0.10230000000000002         -3.7899411334828415     
  0.10260000000000000         -3.8084614355246060     
  0.10290000000000001         -3.7082538832427616     
  0.10320000000000000         -3.4929366381742568     
  0.10350000000000001         -3.1689327305248156     
  0.10380000000000000         -2.7463591444097091     
  0.10410000000000001         -2.2363987792699405     
  0.10440000000000001         -1.6547345584688102     
  0.10470000000000000         -1.0189245378802632     
  0.10500000000000000        -0.34909840039911355     
  0.10530000000000000         0.32995614534982209     
  0.10560000000000000         0.99503453569901978     
  0.10590000000000001          1.6189348984406990     
  0.10620000000000000          2.1767079156617655     
  0.10650000000000001          2.6477671615071330     
  0.10679999999999999          3.0103985145671430     
  0.10710000000000000          3.2551664269878131     
  0.10740000000000001          3.3737807853314621     
  0.10770000000000000          3.3666004170524388     
  0.10800000000000000          3.2437237747843284     
  0.10830000000000001          3.0143418850193200     
  0.10859999999999999          2.7016484898726532     
  0.10890000000000000          2.3246979662654610     
  0.10920000000000001          1.9064815854772021     
  0.10950000000000001          1.4733176156455485     
  0.10979999999999999          1.0416735715245693     
  0.11009999999999999         0.63522424662629007     
  0.11040000000000001         0.26724294994840037     
  0.11070000000000001         -5.0838636248935476E-002
  0.11100000000000000        -0.30761006787445844     
  0.11130000000000000        -0.50288357515808890     
  0.11160000000000002        -0.63128821805948476     
  0.11190000000000001        -0.69618612826510073     
  0.11220000000000001        -0.70310548498992631     
  0.11250000000000000        -0.65542076884692690     
  0.11280000000000000        -0.56621266653509750     
  0.11309999999999999        -0.44362003747620449     
  0.11340000000000001        -0.30015486925534063     
  0.11369999999999998        -0.15076139074287909     
  0.11400000000000000         -5.1051538731503032E-003
  0.11430000000000000         0.12162046949622407     
  0.11460000000000002         0.21941556333153223     
  0.11489999999999999         0.28080794551893540     
  0.11520000000000001         0.29692853726720525     
  0.11550000000000001         0.26665584539842158     
  0.11580000000000000         0.18837891090464742     
  0.11609999999999999          6.2352740930582407E-002
  0.11640000000000002        -0.10452485578042880     
  0.11670000000000001        -0.30972850481401615     
  0.11700000000000001        -0.54451282323768169     
  0.11730000000000000        -0.79973555824065201     
  0.11760000000000000         -1.0698015149545341     
  0.11789999999999999         -1.3392838575353210     
  0.11820000000000001         -1.6009751844505757     
  0.11850000000000001         -1.8416931062512560     
  0.11880000000000000         -2.0458726196794004     
  0.11910000000000000         -2.2051862818551626     
  0.11940000000000002         -2.3013746104595327     
  0.11970000000000001         -2.3271167801123624     
  0.12000000000000001         -2.2727970686932508     
  0.12030000000000000         -2.1304244807455461     
  0.12060000000000000         -1.9047809661770003     
  0.12089999999999999         -1.5948678518913511     
  0.12119999999999999         -1.2143250819853222     
  0.12150000000000001        -0.77741341190191804     
  0.12180000000000001        -0.30039007323180122     
  0.12210000000000000         0.19063959404355124     
  0.12239999999999999         0.67695636690720917     
  0.12270000000000002          1.1335519469022941     
  0.12300000000000001          1.5403906496697104     
  0.12330000000000001          1.8820978476797023     
  0.12360000000000000          2.1430536757527534     
  0.12390000000000000          2.3181488770470509     
  0.12419999999999999          2.4030077680615278     
  0.12450000000000001          2.3990220410131684     
  0.12480000000000001          2.3131444117463360     
  0.12509999999999999          2.1538682521082393     
  0.12540000000000001          1.9343545126907955     
  0.12570000000000003          1.6685139122162198     
  0.12600000000000000          1.3718319319056533     
  0.12630000000000002          1.0605481361046358     
  0.12659999999999999         0.75046336274044378     
  0.12690000000000001         0.45639653709410055     
  0.12719999999999998         0.19129548385514283     
  0.12750000000000000         -3.4322304962986772E-002
  0.12780000000000002        -0.21305805195229510     
  0.12809999999999999        -0.34052164072153879     
  0.12840000000000001        -0.41709559882540681     
  0.12869999999999998        -0.44614262873085053     
  0.12900000000000000        -0.43387537111270902     
  0.12930000000000003        -0.38968442760403299     
  0.12959999999999999        -0.32386388229446972     
  0.12990000000000002        -0.24693661094471864     
  0.13019999999999998        -0.17007028275098790     
  0.13050000000000000        -0.10062350394292130     
  0.13080000000000003         -4.5065882202000473E-002
  0.13109999999999999         -7.9929778784772199E-003
  0.13140000000000002          1.0905478745794228E-002
  0.13169999999999998          9.9558979137771217E-003
  0.13200000000000001         -7.3822199550444001E-003
  0.13229999999999997         -3.8711230172188027E-002
  0.13260000000000000         -8.4250600060883363E-002
  0.13290000000000002        -0.13868600705302825     
  0.13319999999999999        -0.20504166020611247     
  0.13350000000000001        -0.28116382999312783     
  0.13380000000000003        -0.36615734132343114     
  0.13410000000000000        -0.46395898110919731     
  0.13440000000000002        -0.56748473022403800     
  0.13469999999999999        -0.67930797025305978     
  0.13500000000000001        -0.79315853141389780     
  0.13529999999999998        -0.90064752285525174     
  0.13560000000000000         -1.0005024047468716     
  0.13590000000000002         -1.0772608006689097     
  0.13619999999999999         -1.1290413037173863     
  0.13650000000000001         -1.1476176475881275     
  0.13680000000000003         -1.1247888152917085     
  0.13710000000000000         -1.0649210657578223     
  0.13740000000000002        -0.96056414337702378     
  0.13769999999999999        -0.82043586094971488     
  0.13800000000000001        -0.64884823951653914     
  0.13829999999999998        -0.44954819769481880     
  0.13860000000000000        -0.23854458272086365     
  0.13890000000000002         -1.8468164497293160E-002
  0.13919999999999999         0.19702621127814268     
  0.13950000000000001         0.39832180932828010     
  0.13979999999999998         0.58101419406607491     
  0.14010000000000000         0.73157163354573029     
  0.14040000000000002         0.84871633262861934     
  0.14069999999999999         0.92576657997812006     
  0.14100000000000001         0.95773865139145187     
  0.14130000000000004         0.94866094607417395     
  0.14160000000000000         0.89445113192840253     
  0.14189999999999997         0.80251750156285695     
  0.14219999999999999         0.67992831310905189     
  0.14250000000000002         0.53186207739372904     
  0.14279999999999998         0.37483168736938843     
  0.14310000000000000         0.21752769920600379     
  0.14339999999999997          7.3803606935006094E-002
  0.14369999999999999         -4.1927205542256596E-002
  0.14400000000000002        -0.12438325229751557     
  0.14429999999999998        -0.16175119703517826     
  0.14460000000000001        -0.15379642481463374     
  0.14490000000000003        -0.10299153118420712     
  0.14520000000000000         -1.0137307251005812E-002
  0.14550000000000002         0.10992471054549346     
  0.14579999999999999         0.25097630053134878     
  0.14610000000000001         0.39886940756866629     
  0.14640000000000003         0.53907172337023113     
  0.14670000000000000         0.66661949401517973     
  0.14699999999999996         0.76628061815955562     
  0.14729999999999999         0.83757472627956631     
  0.14760000000000001         0.87656901090118922     
  0.14789999999999998         0.88012189258013507     
  0.14820000000000000         0.85537883125046221     