  -1.4999999999999999E-002     0.0000000000000000     
  -1.4700000000000000E-002     0.0000000000000000     
  -1.4400000000000000E-002     0.0000000000000000     
  -1.4100000000000000E-002     0.0000000000000000     
  -1.3800000000000000E-002     0.0000000000000000     
  -1.3500000000000000E-002     0.0000000000000000     
  -1.3200000000000000E-002     0.0000000000000000     
  -1.2899999999999998E-002     0.0000000000000000     
  -1.2600000000000000E-002     0.0000000000000000     
  -1.2299999999999998E-002     0.0000000000000000     
  -1.2000000000000000E-002     0.0000000000000000     
  -1.1699999999999999E-002     0.0000000000000000     
  -1.1399999999999999E-002     0.0000000000000000     
  -1.1099999999999999E-002     0.0000000000000000     
  -1.0799999999999999E-002     0.0000000000000000     
  -1.0499999999999999E-002     0.0000000000000000     
  -1.0199999999999999E-002     0.0000000000000000     
  -9.8999999999999991E-003     0.0000000000000000     
  -9.5999999999999992E-003     0.0000000000000000     
  -9.2999999999999992E-003     0.0000000000000000     
  -8.9999999999999993E-003     0.0000000000000000     
  -8.6999999999999994E-003     0.0000000000000000     
  -8.3999999999999995E-003     0.0000000000000000     
  -8.0999999999999996E-003     0.0000000000000000     
  -7.7999999999999988E-003     0.0000000000000000     
  -7.4999999999999997E-003     0.0000000000000000     
  -7.1999999999999998E-003     0.0000000000000000     
  -6.8999999999999981E-003     0.0000000000000000     
  -6.5999999999999982E-003     0.0000000000000000     
  -6.3000000000000000E-003     0.0000000000000000     
  -6.0000000000000001E-003     0.0000000000000000     
  -5.6999999999999985E-003     0.0000000000000000     
  -5.3999999999999986E-003     0.0000000000000000     
  -5.1000000000000004E-003     0.0000000000000000     
  -4.7999999999999987E-003     0.0000000000000000     
  -4.5000000000000005E-003     0.0000000000000000     
  -4.1999999999999989E-003     0.0000000000000000     
  -3.8999999999999990E-003     0.0000000000000000     
  -3.5999999999999990E-003     0.0000000000000000     
  -3.2999999999999991E-003     0.0000000000000000     
  -2.9999999999999992E-003     0.0000000000000000     
  -2.6999999999999993E-003     0.0000000000000000     
  -2.3999999999999994E-003     0.0000000000000000     
  -2.0999999999999977E-003     0.0000000000000000     
  -1.7999999999999995E-003     0.0000000000000000     
  -1.4999999999999979E-003     0.0000000000000000     
  -1.1999999999999997E-003     0.0000000000000000     
  -8.9999999999999976E-004     0.0000000000000000     
  -5.9999999999999810E-004     0.0000000000000000     
  -2.9999999999999992E-004     0.0000000000000000     
   0.0000000000000000          0.0000000000000000     
   3.0000000000000165E-004     0.0000000000000000     
   5.9999999999999984E-004     0.0000000000000000     
   9.0000000000000149E-004     0.0000000000000000     
   1.2000000000000031E-003     0.0000000000000000     
   1.5000000000000013E-003     0.0000000000000000     
   1.8000000000000030E-003     0.0000000000000000     
   2.1000000000000012E-003     0.0000000000000000     
   2.3999999999999994E-003     0.0000000000000000     
   2.7000000000000010E-003     0.0000000000000000     
   2.9999999999999992E-003     0.0000000000000000     
   3.3000000000000008E-003     0.0000000000000000     
   3.6000000000000025E-003     0.0000000000000000     
   3.9000000000000007E-003     0.0000000000000000     
   4.2000000000000023E-003     0.0000000000000000     
   4.5000000000000005E-003     0.0000000000000000     
   4.7999999999999987E-003     0.0000000000000000     
   5.1000000000000004E-003     0.0000000000000000     
   5.4000000000000020E-003     0.0000000000000000     
   5.7000000000000037E-003    -1.1855084556430858E-036
   5.9999999999999984E-003    -3.4592038657561485E-036
   6.3000000000000000E-003     1.3073655315303550E-035
   6.6000000000000017E-003    -1.6930298455895411E-035
   6.9000000000000034E-003    -4.7619626274639969E-035
   7.2000000000000015E-003     8.0424643034716800E-035
   7.5000000000000032E-003    -3.6131670364678712E-034
   7.8000000000000014E-003    -3.4504682868207489E-034
   8.0999999999999996E-003     4.9927407064108431E-033
   8.4000000000000012E-003    -7.3781813107680962E-033
   8.7000000000000029E-003    -1.4268126920393909E-032
   9.0000000000000011E-003     2.7326755377132119E-032
   9.2999999999999992E-003     5.4940478312658730E-032
   9.6000000000000009E-003     3.7498523698010749E-031
   9.8999999999999991E-003    -3.8413812500125976E-030
   1.0200000000000001E-002     7.5766332276600752E-030
   1.0500000000000002E-002     4.3089254952216501E-029
   1.0800000000000004E-002    -3.5090157104656210E-028
   1.1099999999999999E-002     1.0654878083301892E-027
   1.1400000000000000E-002    -2.5508865076211163E-028
   1.1700000000000002E-002    -1.2569683471144358E-026
   1.2000000000000004E-002     6.4229566430088010E-026
   1.2300000000000002E-002    -1.7809622084299349E-025
   1.2600000000000000E-002     2.6622174610988262E-025
   1.2900000000000002E-002     3.5071547902865065E-026
   1.3200000000000000E-002    -1.1978923843262534E-024
   1.3500000000000002E-002     3.7368490963891321E-024
   1.3800000000000003E-002    -2.0198348026964325E-023
   1.4100000000000001E-002     1.6668156348599398E-022
   1.4400000000000000E-002    -1.0753323729382351E-021
   1.4700000000000001E-002     5.2250798057504830E-021
   1.4999999999999999E-002    -1.9946804543339902E-020
   1.5300000000000001E-002     6.0071432896643549E-020
   1.5600000000000003E-002    -1.3018057327964738E-019
   1.5899999999999997E-002     8.7741244772001739E-020
   1.6199999999999999E-002     9.9636934331005659E-019
   1.6500000000000001E-002    -7.2234448618060825E-018
   1.6800000000000002E-002     3.3078701233089361E-017
   1.7100000000000004E-002    -1.1815593453495257E-016
   1.7400000000000006E-002     3.1870533141795229E-016
   1.7700000000000000E-002    -4.0967150834604182E-016
   1.8000000000000002E-002    -2.0862580309551028E-015
   1.8300000000000004E-002     2.0780584555641496E-014
   1.8600000000000005E-002    -1.0955880571251325E-013
   1.8900000000000000E-002     4.2114201665929829E-013
   1.9200000000000002E-002    -1.1835961898076786E-012
   1.9500000000000003E-002     1.9643102248945166E-012
   1.9799999999999998E-002     1.2923352709151570E-012
   2.0100000000000000E-002    -2.0975313499982384E-011
   2.0400000000000001E-002     6.8048351675731311E-011
   2.0700000000000003E-002    -8.2351708785566302E-011
   2.0999999999999998E-002    -1.7974495503114696E-010
   2.1299999999999999E-002     9.0136031971610464E-010
   2.1600000000000001E-002    -9.2681623486967624E-010
   2.1900000000000003E-002    -2.6728141921950055E-009
   2.2200000000000004E-002     7.2968178166377129E-009
   2.2500000000000006E-002     4.0701961800948538E-009
   2.2800000000000001E-002    -2.9785542920990338E-008
   2.3100000000000002E-002    -1.2217025613381338E-008
   2.3400000000000004E-002     9.0279080211530527E-008
   2.3699999999999999E-002     6.4919554176867678E-008
   2.4000000000000000E-002    -2.2210571160030668E-007
   2.4300000000000002E-002    -2.7877391062247625E-007
   2.4599999999999997E-002     5.5832089174145949E-007
   2.4900000000000005E-002     1.9642282040877035E-006
   2.5200000000000000E-002     2.9319974146346794E-006
   2.5499999999999995E-002     3.5987548017146764E-006
   2.5800000000000003E-002     5.6456997299392242E-006
   2.6099999999999998E-002     1.0243638826068491E-005
   2.6400000000000007E-002     1.6795949704828672E-005
   2.6700000000000002E-002     2.4980321541079320E-005
   2.6999999999999996E-002     3.7024467019364238E-005
   2.7300000000000005E-002     5.6417837186018005E-005
   2.7600000000000000E-002     8.5459578258451074E-005
   2.7900000000000008E-002     1.2617390893865377E-004
   2.8200000000000003E-002     1.8325806013308465E-004
   2.8499999999999998E-002     2.6408067787997425E-004
   2.8800000000000006E-002     3.7591549335047603E-004
   2.9100000000000001E-002     5.2588520338758826E-004
   2.9400000000000003E-002     7.2419806383550167E-004
   2.9700000000000004E-002     9.8471331875771284E-004
   3.0000000000000006E-002     1.3210106408223510E-003
   3.0300000000000001E-002     1.7440841766074300E-003
   3.0600000000000002E-002     2.2648174781352282E-003
   3.0900000000000004E-002     2.8954318258911371E-003
   3.1199999999999999E-002     3.6448601167649031E-003
   3.1500000000000007E-002     4.5132134109735489E-003
   3.1800000000000002E-002     5.4913586936891079E-003
   3.2099999999999997E-002     6.5619330853223801E-003
   3.2400000000000005E-002     7.6967529021203518E-003
   3.2700000000000000E-002     8.8504469022154808E-003
   3.3000000000000002E-002     9.9605247378349304E-003
   3.3300000000000003E-002     1.0952073149383068E-002
   3.3599999999999998E-002     1.1741387657821178E-002
   3.3900000000000000E-002     1.2234250083565712E-002
   3.4200000000000001E-002     1.2332713231444359E-002
   3.4500000000000003E-002     1.1948558501899242E-002
   3.4799999999999998E-002     1.1010648682713509E-002
   3.5099999999999999E-002     9.4778398051857948E-003
   3.5400000000000001E-002     7.3423488065600395E-003
   3.5699999999999996E-002     4.6415366232395172E-003
   3.6000000000000004E-002     1.4763073995709419E-003
   3.6299999999999999E-002    -2.0027200225740671E-003
   3.6600000000000008E-002    -5.5901515297591686E-003
   3.6900000000000002E-002    -9.0300580486655235E-003
   3.7199999999999997E-002    -1.2026269920170307E-002
   3.7500000000000006E-002    -1.4256264083087444E-002
   3.7800000000000000E-002    -1.5395301394164562E-002
   3.8100000000000009E-002    -1.5133707784116268E-002
   3.8400000000000004E-002    -1.3187531381845474E-002
   3.8699999999999998E-002    -9.3190092593431473E-003
   3.9000000000000007E-002    -3.3519302960485220E-003
   3.9300000000000002E-002     4.8199244774878025E-003
   3.9600000000000003E-002     1.5235896222293377E-002
   3.9900000000000005E-002     2.7861544862389565E-002
   4.0200000000000000E-002     4.2583346366882324E-002
   4.0500000000000001E-002     5.9214804321527481E-002
   4.0800000000000003E-002     7.7489025890827179E-002
   4.1100000000000005E-002     9.7051665186882019E-002
   4.1399999999999999E-002    0.11744118481874466     
   4.1700000000000008E-002    0.13808628916740417     
   4.2000000000000003E-002    0.15828251838684082     
   4.2299999999999997E-002    0.17718929052352905     
   4.2600000000000006E-002    0.19383919239044189     
   4.2900000000000001E-002    0.20714494585990906     
   4.3200000000000002E-002    0.21594081819057465     
   4.3500000000000004E-002    0.21904774010181427     
   4.3799999999999999E-002    0.21532458066940308     
   4.4100000000000000E-002    0.20378081500530243     
   4.4400000000000002E-002    0.18366365134716034     
   4.4700000000000004E-002    0.15452846884727478     
   4.4999999999999998E-002    0.11631501466035843     
   4.5300000000000000E-002     6.9404609501361847E-002
   4.5600000000000002E-002     1.4596262946724892E-002
   4.5899999999999996E-002    -4.6913869678974152E-002
   4.6200000000000005E-002   -0.11359289288520813     
   4.6500000000000000E-002   -0.18368600308895111     
   4.6799999999999994E-002   -0.25531253218650818     
   4.7100000000000003E-002   -0.32663628458976746     
   4.7399999999999998E-002   -0.39594390988349915     
   4.7700000000000006E-002   -0.46170589327812195     
   4.8000000000000001E-002   -0.52268987894058228     
   4.8300000000000010E-002   -0.57793724536895752     
   4.8600000000000004E-002   -0.62665665149688721     
   4.8899999999999999E-002   -0.66826623678207397     
   4.9200000000000008E-002   -0.70217448472976685     
   4.9500000000000002E-002   -0.72770166397094727     
   4.9800000000000011E-002   -0.74400347471237183     
   5.0100000000000006E-002   -0.74994105100631714     
   5.0400000000000000E-002   -0.74405527114868164     
   5.0700000000000009E-002   -0.72456341981887817     
   5.1000000000000004E-002   -0.68951344490051270     
   5.1299999999999998E-002   -0.63688772916793823     
   5.1600000000000007E-002   -0.56471931934356689     
   5.1900000000000002E-002   -0.47137764096260071     
   5.2200000000000010E-002   -0.35594001412391663     
   5.2500000000000005E-002   -0.21829040348529816     
   5.2800000000000000E-002    -5.9371851384639740E-002
   5.3099999999999994E-002    0.11844778060913086     
   5.3400000000000003E-002    0.31159138679504395     
   5.3699999999999998E-002    0.51495462656021118     
   5.4000000000000006E-002    0.72203946113586426     
   5.4300000000000001E-002    0.92545193433761597     
   5.4599999999999996E-002     1.1168590784072876     
   5.4900000000000004E-002     1.2876540422439575     
   5.5199999999999999E-002     1.4295026063919067     
   5.5499999999999994E-002     1.5345418453216553     
   5.5800000000000002E-002     1.5965310335159302     
   5.6099999999999997E-002     1.6110144853591919     
   5.6400000000000006E-002     1.5755187273025513     
   5.6700000000000000E-002     1.4905028343200684     
   5.6999999999999995E-002     1.3589161634445190     
   5.7300000000000004E-002     1.1863029003143311     
   5.7599999999999998E-002    0.98072969913482666     
   5.7900000000000007E-002    0.75185948610305786     
   5.8200000000000002E-002    0.51084870100021362     
   5.8499999999999996E-002    0.26948082447052002     
   5.8800000000000005E-002     3.8929466158151627E-002
   5.9100000000000000E-002   -0.17039601504802704     
   5.9400000000000008E-002   -0.34977343678474426     
   5.9700000000000003E-002   -0.49300748109817505     
   6.0000000000000012E-002   -0.59642767906188965     
   6.0300000000000006E-002   -0.65952581167221069     
   6.0600000000000001E-002   -0.68479371070861816     
   6.0900000000000010E-002   -0.67710745334625244     
   6.1200000000000004E-002   -0.64402997493743896     
   6.1500000000000013E-002   -0.59490483999252319     
   6.1800000000000008E-002   -0.53982818126678467     
   6.2100000000000002E-002   -0.48929497599601746     
   6.2399999999999997E-002   -0.45303574204444885     
   6.2700000000000006E-002   -0.43949782848358154     
   6.3000000000000000E-002   -0.45499038696289062     
   6.3300000000000009E-002   -0.50275361537933350     
   6.3600000000000004E-002   -0.58303588628768921     
   6.3899999999999998E-002   -0.69280463457107544     
   6.4199999999999993E-002   -0.82543164491653442     
   6.4500000000000002E-002   -0.97146797180175781     
   6.4800000000000010E-002    -1.1189080476760864     
   6.5100000000000005E-002    -1.2541415691375732     
   6.5400000000000000E-002    -1.3630867004394531     
   6.5700000000000008E-002    -1.4319370985031128     
   6.5999999999999989E-002    -1.4486116170883179     
   6.6299999999999998E-002    -1.4039758443832397     
   6.6600000000000006E-002    -1.2925099134445190     
   6.6900000000000001E-002    -1.1132236719131470     
   6.7199999999999996E-002   -0.87009823322296143     
   6.7500000000000004E-002   -0.57192969322204590     
   6.7800000000000013E-002   -0.23230995237827301     
   6.8099999999999994E-002    0.13129824399948120     
   6.8400000000000002E-002    0.49903047084808350     
   6.8700000000000011E-002    0.84932726621627808     
   6.8999999999999992E-002     1.1606872081756592     
   6.9300000000000000E-002     1.4137283563613892     
   6.9600000000000009E-002     1.5921626091003418     
   6.9900000000000004E-002     1.6843206882476807     
   7.0199999999999999E-002     1.6839798688888550     
   7.0500000000000007E-002     1.5908929109573364     
   7.0800000000000016E-002     1.4113748073577881     
   7.1099999999999997E-002     1.1573617458343506     
   7.1400000000000005E-002    0.84579932689666748     
   7.1700000000000000E-002    0.49765387177467346     
   7.1999999999999995E-002    0.13609297573566437     
   7.2300000000000003E-002   -0.21448658406734467     
   7.2600000000000012E-002   -0.53066283464431763     
   7.2900000000000006E-002   -0.79167354106903076     
   7.3200000000000001E-002   -0.97999465465545654     
   7.3499999999999996E-002    -1.0832980871200562     
   7.3800000000000004E-002    -1.0949795246124268     
   7.4099999999999999E-002    -1.0140420198440552     
   7.4400000000000008E-002   -0.84597432613372803     
   7.4700000000000003E-002   -0.60170578956604004     
   7.5000000000000011E-002   -0.29701006412506104     
   7.5299999999999992E-002     4.8401065170764923E-002
   7.5600000000000001E-002    0.41231280565261841     
   7.5900000000000009E-002    0.77139413356781006     
   7.6200000000000004E-002     1.1024311780929565     
   7.6499999999999999E-002     1.3843175172805786     
   7.6800000000000007E-002     1.5988444089889526     
   7.7099999999999988E-002     1.7320226430892944     
   7.7399999999999997E-002     1.7748587131500244     
   7.7700000000000005E-002     1.7239629030227661     
   7.8000000000000014E-002     1.5816195011138916     
   7.8299999999999995E-002     1.3552824258804321     
   7.8600000000000003E-002     1.0572340488433838     
   7.8900000000000012E-002    0.70396560430526733     
   7.9199999999999993E-002    0.31475469470024109     
   7.9500000000000001E-002    -8.9651107788085938E-002
   7.9800000000000010E-002   -0.48793295025825500     
   8.0100000000000018E-002   -0.85994076728820801     
   8.0399999999999999E-002    -1.1874287128448486     
   8.0700000000000008E-002    -1.4551328420639038     
   8.1000000000000003E-002    -1.6518853902816772     
   8.1299999999999997E-002    -1.7709285020828247     
   8.1600000000000006E-002    -1.8098647594451904     
   8.1900000000000014E-002    -1.7708944082260132     
   8.2199999999999995E-002    -1.6604073047637939     
   8.2500000000000004E-002    -1.4883940219879150     
   8.2799999999999999E-002    -1.2671232223510742     
   8.3100000000000007E-002    -1.0107518434524536     
   8.3400000000000002E-002   -0.73390042781829834     
   8.3700000000000011E-002   -0.45043665170669556     
   8.4000000000000005E-002   -0.17279092967510223     
   8.4300000000000000E-002     8.9140124619007111E-002
   8.4599999999999995E-002    0.32813546061515808     
   8.4900000000000003E-002    0.54015791416168213     
   8.5199999999999998E-002    0.72379124164581299     
   8.5500000000000007E-002    0.87998008728027344     
   8.5800000000000001E-002     1.0114445686340332     
   8.6100000000000010E-002     1.1214017868041992     
   8.6399999999999991E-002     1.2124564647674561     
   8.6699999999999999E-002     1.2863557338714600     
   8.7000000000000008E-002     1.3430503606796265     
   8.7300000000000003E-002     1.3809593915939331     
   8.7599999999999997E-002     1.3959352970123291     
   8.7900000000000006E-002     1.3826736211776733     
   8.8200000000000014E-002     1.3358241319656372     
   8.8499999999999995E-002     1.2499362230300903     
   8.8800000000000004E-002     1.1213936805725098     
   8.9100000000000013E-002    0.94900441169738770     
   8.9399999999999993E-002    0.73442023992538452     
   8.9700000000000002E-002    0.48318842053413391     
   9.0000000000000011E-002    0.20439919829368591     
   9.0299999999999991E-002    -9.0297147631645203E-002
   9.0600000000000000E-002   -0.38702481985092163     
   9.0900000000000009E-002   -0.67088198661804199     
   9.1200000000000017E-002   -0.92727774381637573     
   9.1499999999999998E-002    -1.1435940265655518     
   9.1800000000000007E-002    -1.3098461627960205     
   9.2100000000000001E-002    -1.4195250272750854     
   9.2399999999999996E-002    -1.4704731702804565     
   9.2700000000000005E-002    -1.4644126892089844     
   9.3000000000000013E-002    -1.4067825078964233     
   9.3300000000000008E-002    -1.3062150478363037     
   9.3600000000000003E-002    -1.1734375953674316     
   9.3899999999999997E-002    -1.0198680162429810     
   9.4200000000000006E-002   -0.85717868804931641     
   9.4500000000000001E-002   -0.69591641426086426     
   9.4800000000000009E-002   -0.54509681463241577     
   9.5100000000000004E-002   -0.41168785095214844     
   9.5399999999999999E-002   -0.29991027712821960     
   9.5699999999999993E-002   -0.21204121410846710     
   9.6000000000000002E-002   -0.14845882356166840     
   9.6300000000000011E-002   -0.10739423334598541     
   9.6600000000000005E-002    -8.5915409028530121E-002
   9.6900000000000000E-002    -8.0092094838619232E-002
   9.7200000000000009E-002    -8.5279263556003571E-002
   9.7499999999999989E-002    -9.6475303173065186E-002
   9.7799999999999998E-002   -0.10784988105297089     
   9.8100000000000007E-002   -0.11359477788209915     
   9.8400000000000015E-002   -0.10811689496040344     
   9.8699999999999996E-002    -8.5616774857044220E-002
   9.9000000000000005E-002    -4.0739405900239944E-002
   9.9300000000000013E-002     3.0458260327577591E-002
   9.9599999999999994E-002    0.13069428503513336     
   9.9900000000000003E-002    0.26051115989685059     
  0.10020000000000001         0.41805532574653625     
  0.10049999999999999         0.59860122203826904     
  0.10080000000000000         0.79410541057586670     
  0.10110000000000001         0.99428999423980713     
  0.10140000000000000          1.1868848800659180     
  0.10170000000000000          1.3583484888076782     
  0.10200000000000001          1.4951833486557007     
  0.10230000000000002          1.5853301286697388     
  0.10260000000000000          1.6197726726531982     
  0.10290000000000001          1.5935415029525757     
  0.10320000000000000          1.5054391622543335     
  0.10350000000000001          1.3593155145645142     
  0.10380000000000000          1.1641654968261719     
  0.10410000000000001         0.93229442834854126     
  0.10440000000000001         0.67825490236282349     
  0.10470000000000000         0.41779738664627075     
  0.10500000000000000         0.16595052182674408     
  0.10530000000000000         -6.4729936420917511E-002
  0.10560000000000000        -0.26566728949546814     
  0.10590000000000001        -0.43238696455955505     
  0.10620000000000000        -0.56495118141174316     
  0.10650000000000001        -0.66829299926757812     
  0.10679999999999999        -0.75049352645874023     
  0.10710000000000000        -0.82170671224594116     
  0.10740000000000001        -0.89295560121536255     
  0.10770000000000000        -0.97297036647796631     
  0.10800000000000000         -1.0685524940490723     
  0.10830000000000001         -1.1823290586471558     
  0.10859999999999999         -1.3112382888793945     
  0.10890000000000000         -1.4480317831039429     
  0.10920000000000001         -1.5806709527969360     
  0.10950000000000001         -1.6933528184890747     
  0.10979999999999999         -1.7683722972869873     
  0.11009999999999999         -1.7877547740936279     
  0.11040000000000001         -1.7359950542449951     
  0.11070000000000001         -1.6009135246276855     
  0.11100000000000000         -1.3756448030471802     
  0.11130000000000000         -1.0620508193969727     
  0.11160000000000002        -0.66855216026306152     
  0.11190000000000001        -0.21094323694705963     
  0.11220000000000001         0.28634294867515564     
  0.11250000000000000         0.79308801889419556     
  0.11280000000000000          1.2760465145111084     
  0.11309999999999999          1.7003293037414551     
  0.11340000000000001          2.0332136154174805     
  0.11369999999999998          2.2457029819488525     
  0.11400000000000000          2.3165063858032227     
  0.11430000000000000          2.2353954315185547     
  0.11460000000000002          2.0025308132171631     
  0.11489999999999999          1.6300166845321655     
  0.11520000000000001          1.1422513723373413     
  0.11550000000000001         0.57356673479080200     
  0.11580000000000000         -3.2877117395401001E-002
  0.11609999999999999        -0.63057857751846313     
  0.11640000000000002         -1.1725656986236572     
  0.11670000000000001         -1.6136214733123779     
  0.11700000000000001         -1.9168372154235840     
  0.11730000000000000         -2.0564599037170410     
  0.11760000000000000         -2.0196163654327393     
  0.11789999999999999         -1.8082256317138672     
  0.11820000000000001         -1.4385331869125366     
  0.11850000000000001        -0.94161397218704224     
  0.11880000000000000        -0.36004176735877991     
  0.11910000000000000         0.25726488232612610     
  0.11940000000000002         0.85729062557220459     
  0.11970000000000001          1.3876434564590454     
  0.12000000000000001          1.8022806644439697     
  0.12030000000000000          2.0654413700103760     
  0.12060000000000000          2.1545972824096680     
  0.12089999999999999          2.0626811981201172     
  0.12119999999999999          1.7981116771697998     
  0.12150000000000001          1.3851093053817749     
  0.12180000000000001         0.86135745048522949     
  0.12210000000000000         0.27292263507843018     
  0.12239999999999999        -0.32801914215087891     
  0.12270000000000002        -0.88933581113815308     
  0.12300000000000001         -1.3632175922393799     
  0.12330000000000001         -1.7099047899246216     
  0.12360000000000000         -1.9026010036468506     
  0.12390000000000000         -1.9285706281661987     
  0.12419999999999999         -1.7896752357482910     
  0.12450000000000001         -1.5042190551757812     
  0.12480000000000001         -1.1016825437545776     
  0.12509999999999999        -0.62170517444610596     
  0.12540000000000001        -0.11069663614034653     
  0.12570000000000003         0.38419520854949951     
  0.12600000000000000         0.81831657886505127     
  0.12630000000000002          1.1537497043609619     
  0.12659999999999999          1.3630099296569824     
  0.12690000000000001          1.4302897453308105     
  0.12719999999999998          1.3539967536926270     
  0.12750000000000000          1.1460375785827637     
  0.12780000000000002         0.82926589250564575     
  0.12809999999999999         0.43744680285453796     
  0.12840000000000001          1.1342110112309456E-002
  0.12869999999999998        -0.40598466992378235     
  0.12900000000000000        -0.77164125442504883     
  0.12930000000000003         -1.0468274354934692     
  0.12959999999999999         -1.2003251314163208     
  0.12990000000000002         -1.2097324132919312     
  0.13019999999999998         -1.0655223131179810     
  0.13050000000000000        -0.76982283592224121     
  0.13080000000000003        -0.33602946996688843     
  0.13109999999999999         0.20945939421653748     
  0.13140000000000002         0.83184635639190674     
  0.13169999999999998          1.4888181686401367     
  0.13200000000000001          2.1323089599609375     
  0.13229999999999997          2.7143418788909912     
  0.13260000000000000          3.1871948242187500     
  0.13290000000000002          3.5071005821228027     
  0.13319999999999999          3.6392607688903809     
  0.13350000000000001          3.5574588775634766     
  0.13380000000000003          3.2484269142150879     
  0.13410000000000000          2.7123737335205078     
  0.13440000000000002          1.9625996351242065     
  0.13469999999999999          1.0281736850738525     
  0.13500000000000001         -4.9914497882127762E-002
  0.13529999999999998         -1.2210122346878052     
  0.13560000000000000         -2.4250216484069824     
  0.13590000000000002         -3.5987117290496826     
  0.13619999999999999         -4.6794037818908691     
  0.13650000000000001         -5.6069664955139160     
  0.13680000000000003         -6.3306469917297363     
  0.13710000000000000         -6.8103399276733398     
  0.13740000000000002         -7.0179228782653809     
  0.13769999999999999         -6.9414954185485840     
  0.13800000000000001         -6.5826711654663086     
  0.13829999999999998         -5.9564590454101562     
  0.13860000000000000         -5.0902781486511230     
  0.13890000000000002         -4.0186076164245605     
  0.13919999999999999         -2.7844784259796143     
  0.13950000000000001         -1.4339051246643066     
  0.13979999999999998         -1.2136749923229218E-002
  0.14010000000000000          1.4334931373596191     
  0.14040000000000002          2.8591809272766113     
  0.14069999999999999          4.2241029739379883     
  0.14100000000000001          5.4880695343017578     
  0.14130000000000004          6.6158394813537598     
  0.14160000000000000          7.5735135078430176     
  0.14189999999999997          8.3288240432739258     
  0.14219999999999999          8.8544607162475586     
  0.14250000000000002          9.1256685256958008     
  0.14279999999999998          9.1220750808715820     
  0.14310000000000000          8.8315591812133789     
  0.14339999999999997          8.2492084503173828     
  0.14369999999999999          7.3805084228515625     
  0.14400000000000002          6.2421145439147949     
  0.14429999999999998          4.8614611625671387     
  0.14460000000000001          3.2790596485137939     
  0.14490000000000003          1.5454738140106201     
  0.14520000000000000        -0.28165629506111145     
  0.14550000000000002         -2.1376137733459473     
  0.14579999999999999         -3.9555284976959229     
  0.14610000000000001         -5.6708426475524902     
  0.14640000000000003         -7.2225952148437500     
  0.14670000000000000         -8.5592660903930664     
  0.14699999999999996         -9.6383543014526367     
  0.14729999999999999         -10.429190635681152     
  0.14760000000000001         -10.915832519531250     
  0.14789999999999998         -11.091795921325684     
  0.14820000000000000         -10.961264610290527     