  -1.4999999999999999E-002     0.0000000000000000     
  -1.4700000000000000E-002     0.0000000000000000     
  -1.4400000000000000E-002     0.0000000000000000     
  -1.4100000000000000E-002     0.0000000000000000     
  -1.3800000000000000E-002     1.2659414779493622E-033
  -1.3500000000000000E-002     1.0205573775166752E-031
  -1.3200000000000000E-002    -1.2422856577173657E-030
  -1.2899999999999998E-002    -2.4719777874221686E-028
  -1.2600000000000000E-002    -1.7295455161117429E-028
  -1.2299999999999998E-002     3.9237583973095449E-026
  -1.2000000000000000E-002     1.4723534128126202E-026
  -1.1699999999999999E-002    -1.6677190068141627E-024
  -1.1399999999999999E-002    -1.0987351717809595E-023
  -1.1099999999999999E-002     1.9656360195399143E-022
  -1.0799999999999999E-002    -6.9855574386236163E-022
  -1.0499999999999999E-002    -5.3118097737560246E-021
  -1.0199999999999999E-002     7.5102325677800682E-020
  -9.8999999999999991E-003    -3.6099599158128439E-019
  -9.5999999999999992E-003     5.0905144675971399E-019
  -9.2999999999999992E-003     2.7491087096306921E-018
  -8.9999999999999993E-003    -1.7420982874460849E-017
  -8.6999999999999994E-003     5.1573943569072826E-017
  -8.3999999999999995E-003    -1.0853682986258572E-016
  -8.0999999999999996E-003     1.8177323077610345E-016
  -7.7999999999999988E-003    -2.0607991322363947E-016
  -7.4999999999999997E-003     1.6777075707147520E-018
  -7.1999999999999998E-003     7.4040679872759371E-016
  -6.8999999999999981E-003    -2.2164476302227992E-015
  -6.5999999999999982E-003     1.9661309713425506E-015
  -6.3000000000000000E-003     7.3965652870665137E-015
  -6.0000000000000001E-003    -1.8952441815912012E-014
  -5.6999999999999985E-003    -2.8310195848832084E-014
  -5.3999999999999986E-003     2.1268287153132504E-013
  -5.1000000000000004E-003    -4.4016927689544127E-013
  -4.7999999999999987E-003     2.6574453900439499E-013
  -4.5000000000000005E-003     9.4740404757431840E-013
  -4.1999999999999989E-003    -3.2108981272427339E-012
  -3.8999999999999990E-003     4.6623230449960307E-012
  -3.5999999999999990E-003    -1.8251108090117096E-012
  -3.2999999999999991E-003    -6.6628590665585019E-012
  -2.9999999999999992E-003     1.5736596054027885E-011
  -2.6999999999999993E-003    -1.5647823314868248E-011
  -2.3999999999999994E-003     1.1204585436547232E-012
  -2.0999999999999977E-003     2.1370264932651928E-011
  -1.7999999999999995E-003    -3.6256365965048332E-011
  -1.4999999999999979E-003     2.2147627481983179E-011
  -1.1999999999999997E-003     3.8875618002531809E-011
  -8.9999999999999976E-004    -1.1350688444711210E-010
  -5.9999999999999810E-004     9.8829153194479602E-011
  -2.9999999999999992E-004     4.7803670744084314E-011
   0.0000000000000000         -2.2423390921844089E-010
   3.0000000000000165E-004     4.5239484380843464E-010
   5.9999999999999984E-004    -1.0868139721509351E-009
   9.0000000000000149E-004     1.9028509878893374E-009
   1.2000000000000031E-003    -1.0652795312537933E-010
   1.5000000000000013E-003    -9.1169534144341924E-009
   1.8000000000000030E-003     2.3698721207665585E-008
   2.1000000000000012E-003    -2.1057367405319383E-008
   2.3999999999999994E-003    -3.6413581483429880E-008
   2.7000000000000010E-003     1.5039816503303882E-007
   2.9999999999999992E-003    -1.9054594702083705E-007
   3.3000000000000008E-003    -1.6060529617334396E-007
   3.6000000000000025E-003     9.8628152045421302E-007
   3.9000000000000007E-003    -8.5442911768041085E-007
   4.2000000000000023E-003    -2.5830900085566100E-006
   4.5000000000000005E-003     4.5038773350825068E-006
   4.7999999999999987E-003     6.4606224441376980E-006
   5.1000000000000004E-003    -1.2779741155100055E-005
   5.4000000000000020E-003    -2.2736378014087677E-005
   5.7000000000000037E-003     2.8404958356986754E-005
   5.9999999999999984E-003     1.5593208081554621E-004
   6.3000000000000000E-003     3.4045038046315312E-004
   6.6000000000000017E-003     5.6698353728279471E-004
   6.9000000000000034E-003     8.4559101378545165E-004
   7.2000000000000015E-003     1.2378627434372902E-003
   7.5000000000000032E-003     1.8778995145112276E-003
   7.8000000000000014E-003     2.9255163390189409E-003
   8.0999999999999996E-003     4.5389761216938496E-003
   8.4000000000000012E-003     6.9199842400848866E-003
   8.7000000000000029E-003     1.0352348908782005E-002
   9.0000000000000011E-003     1.5254385769367218E-002
   9.2999999999999992E-003     2.2214019671082497E-002
   9.6000000000000009E-003     3.1947724521160126E-002
   9.8999999999999991E-003     4.5281559228897095E-002
   1.0200000000000001E-002     6.3202820718288422E-002
   1.0500000000000002E-002     8.6908109486103058E-002
   1.0800000000000004E-002    0.11770337074995041     
   1.1099999999999999E-002    0.15689931809902191     
   1.1400000000000000E-002    0.20578913390636444     
   1.1700000000000002E-002    0.26544505357742310     
   1.2000000000000004E-002    0.33649945259094238     
   1.2300000000000002E-002    0.41888919472694397     
   1.2600000000000000E-002    0.51152384281158447     
   1.2900000000000002E-002    0.61204469203948975     
   1.3200000000000000E-002    0.71643781661987305     
   1.3500000000000002E-002    0.81871986389160156     
   1.3800000000000003E-002    0.91087824106216431     
   1.4100000000000001E-002    0.98280405998229980     
   1.4400000000000000E-002     1.0224598646163940     
   1.4700000000000001E-002     1.0164135694503784     
   1.4999999999999999E-002    0.95064765214920044     
   1.5300000000000001E-002    0.81178075075149536     
   1.5600000000000003E-002    0.58835667371749878     
   1.5899999999999997E-002    0.27235493063926697     
   1.6199999999999999E-002   -0.13901001214981079     
   1.6500000000000001E-002   -0.64159274101257324     
   1.6800000000000002E-002    -1.2232122421264648     
   1.7100000000000004E-002    -1.8625741004943848     
   1.7400000000000006E-002    -2.5293753147125244     
   1.7700000000000000E-002    -3.1851017475128174     
   1.8000000000000002E-002    -3.7846727371215820     
   1.8300000000000004E-002    -4.2792844772338867     
   1.8600000000000005E-002    -4.6196398735046387     
   1.8900000000000000E-002    -4.7603883743286133     
   1.9200000000000002E-002    -4.6643438339233398     
   1.9500000000000003E-002    -4.3066229820251465     
   1.9799999999999998E-002    -3.6783545017242432     
   2.0100000000000000E-002    -2.7887694835662842     
   2.0400000000000001E-002    -1.6668512821197510     
   2.0700000000000003E-002   -0.36017078161239624     
   2.0999999999999998E-002     1.0669565200805664     
   2.1299999999999999E-002     2.5379309654235840     
   2.1600000000000001E-002     3.9687159061431885     
   2.1900000000000003E-002     5.2736277580261230     
   2.2200000000000004E-002     6.3726325035095215     
   2.2500000000000006E-002     7.1959552764892578     
   2.2800000000000001E-002     7.6912126541137695     
   2.3100000000000002E-002     7.8256855010986328     
   2.3400000000000004E-002     7.5899667739868164     
   2.3699999999999999E-002     6.9979701042175293     
   2.4000000000000000E-002     6.0851693153381348     
   2.4300000000000002E-002     4.9072546958923340     
   2.4599999999999997E-002     3.5343604087829590     
   2.4900000000000005E-002     2.0474836826324463     
   2.5200000000000000E-002    0.53234243392944336     
   2.5499999999999995E-002   -0.92626976966857910     
   2.5800000000000003E-002    -2.2490313053131104     
   2.6099999999999998E-002    -3.3682277202606201     
   2.6400000000000007E-002    -4.2295632362365723     
   2.6700000000000002E-002    -4.7967128753662109     
   2.6999999999999996E-002    -5.0518765449523926     
   2.7300000000000005E-002    -4.9967427253723145     
   2.7600000000000000E-002    -4.6525402069091797     
   2.7900000000000008E-002    -4.0567269325256348     
   2.8200000000000003E-002    -3.2629156112670898     
   2.8499999999999998E-002    -2.3344967365264893     
   2.8800000000000006E-002    -1.3425503969192505     
   2.9100000000000001E-002   -0.36132952570915222     
   2.9400000000000003E-002    0.53812038898468018     
   2.9700000000000004E-002     1.2896059751510620     
   3.0000000000000006E-002     1.8391306400299072     
   3.0300000000000001E-002     2.1453292369842529     
   3.0600000000000002E-002     2.1833701133728027     
   3.0900000000000004E-002     1.9462331533432007     
   3.1199999999999999E-002     1.4425294399261475     
   3.1500000000000007E-002    0.69868457317352295     
   3.1800000000000002E-002   -0.24768668413162231     
   3.2099999999999997E-002    -1.3470784425735474     
   3.2400000000000005E-002    -2.5434486865997314     
   3.2700000000000000E-002    -3.7785522937774658     
   3.3000000000000002E-002    -4.9930167198181152     
   3.3300000000000003E-002    -6.1321096420288086     
   3.3599999999999998E-002    -7.1450328826904297     
   3.3900000000000000E-002    -7.9878597259521484     
   3.4200000000000001E-002    -8.6236801147460938     
   3.4500000000000003E-002    -9.0213518142700195     
   3.4799999999999998E-002    -9.1558284759521484     
   3.5099999999999999E-002    -9.0066118240356445     
   3.5400000000000001E-002    -8.5578908920288086     
   3.5699999999999996E-002    -7.7976512908935547     
   3.6000000000000004E-002    -6.7185587882995605     
   3.6299999999999999E-002    -5.3196444511413574     
   3.6600000000000008E-002    -3.6088347434997559     
   3.6900000000000002E-002    -1.6059381961822510     
   3.7199999999999997E-002    0.65714764595031738     
   3.7500000000000006E-002     3.1309783458709717     
   3.7800000000000000E-002     5.7496309280395508     
   3.8100000000000009E-002     8.4299726486206055     
   3.8400000000000004E-002     11.072093963623047     
   3.8699999999999998E-002     13.566371917724609     
   3.9000000000000007E-002     15.794122695922852     
   3.9300000000000002E-002     17.639144897460938     
   3.9600000000000003E-002     18.992658615112305     
   3.9900000000000005E-002     19.761629104614258     
   4.0200000000000000E-002     19.877977371215820     
   4.0500000000000001E-002     19.301834106445312     
   4.0800000000000003E-002     18.029897689819336     
   4.1100000000000005E-002     16.095561981201172     
   4.1399999999999999E-002     13.566914558410645     
   4.1700000000000008E-002     10.547976493835449     
   4.2000000000000003E-002     7.1683697700500488     
   4.2299999999999997E-002     3.5798749923706055     
   4.2600000000000006E-002    -5.4924532771110535E-002
   4.2900000000000001E-002    -3.5719873905181885     
   4.3200000000000002E-002    -6.8147439956665039     
   4.3500000000000004E-002    -9.6453342437744141     
   4.3799999999999999E-002    -11.951577186584473     
   4.4100000000000000E-002    -13.653744697570801     
   4.4400000000000002E-002    -14.709942817687988     
   4.4700000000000004E-002    -15.117360115051270     
   4.4999999999999998E-002    -14.911423683166504     
   4.5300000000000000E-002    -14.164879798889160     
   4.5600000000000002E-002    -12.978422164916992     
   4.5899999999999996E-002    -11.476851463317871     
   4.6200000000000005E-002    -9.7972536087036133     
   4.6500000000000000E-002    -8.0773801803588867     
   4.6799999999999994E-002    -6.4505248069763184     
   4.7100000000000003E-002    -5.0268516540527344     
   4.7399999999999998E-002    -3.8919825553894043     
   4.7700000000000006E-002    -3.0988388061523438     
   4.8000000000000001E-002    -2.6603214740753174     
   4.8300000000000010E-002    -2.5569007396697998     
   4.8600000000000004E-002    -2.7319464683532715     
   4.8899999999999999E-002    -3.1036193370819092     
   4.9200000000000008E-002    -3.5735273361206055     
   4.9500000000000002E-002    -4.0330481529235840     
   4.9800000000000011E-002    -4.3820109367370605     
   5.0100000000000006E-002    -4.5311007499694824     
   5.0400000000000000E-002    -4.4168272018432617     
   5.0700000000000009E-002    -4.0056748390197754     
   5.1000000000000004E-002    -3.2939400672912598     
   5.1299999999999998E-002    -2.3116679191589355     
   5.1600000000000007E-002    -1.1123274564743042     
   5.1900000000000002E-002    0.22892034053802490     
   5.2200000000000010E-002     1.6294672489166260     
   5.2500000000000005E-002     3.0061624050140381     
   5.2800000000000000E-002     4.2860321998596191     
   5.3099999999999994E-002     5.4130749702453613     
   5.3400000000000003E-002     6.3526763916015625     
   5.3699999999999998E-002     7.0963425636291504     
   5.4000000000000006E-002     7.6541676521301270     
   5.4300000000000001E-002     8.0583972930908203     
   5.4599999999999996E-002     8.3495588302612305     
   5.4900000000000004E-002     8.5734758377075195     
   5.5199999999999999E-002     8.7768373489379883     
   5.5499999999999994E-002     8.9927663803100586     
   5.5800000000000002E-002     9.2494525909423828     
   5.6099999999999997E-002     9.5571870803833008     
   5.6400000000000006E-002     9.9161853790283203     
   5.6700000000000000E-002     10.318443298339844     
   5.6999999999999995E-002     10.743050575256348     
   5.7300000000000004E-002     11.170084953308105     
   5.7599999999999998E-002     11.569727897644043     
   5.7900000000000007E-002     11.909077644348145     
   5.8200000000000002E-002     12.146357536315918     
   5.8499999999999996E-002     12.225181579589844     
   5.8800000000000005E-002     12.076354026794434     
   5.9100000000000000E-002     11.607404708862305     
   5.9400000000000008E-002     10.708878517150879     
   5.9700000000000003E-002     9.2580680847167969     
   6.0000000000000012E-002     7.1265549659729004     
   6.0300000000000006E-002     4.1974835395812988     
   6.0600000000000001E-002    0.38525748252868652     
   6.0900000000000010E-002    -4.3455071449279785     
   6.1200000000000004E-002    -9.9586811065673828     
   6.1500000000000013E-002    -16.323717117309570     
   6.1800000000000008E-002    -23.215309143066406     
   6.2100000000000002E-002    -30.303310394287109     
   6.2399999999999997E-002    -37.167407989501953     
   6.2700000000000006E-002    -43.322753906250000     
   6.3000000000000000E-002    -48.245056152343750     
   6.3300000000000009E-002    -51.427040100097656     
   6.3600000000000004E-002    -52.410049438476562     
   6.3899999999999998E-002    -50.843955993652344     
   6.4199999999999993E-002    -46.527873992919922     
   6.4500000000000002E-002    -39.434993743896484     
   6.4800000000000010E-002    -29.747053146362305     
   6.5100000000000005E-002    -17.838922500610352     
   6.5400000000000000E-002    -4.2767033576965332     
   6.5700000000000008E-002     10.221070289611816     
   6.5999999999999989E-002     24.838237762451172     
   6.6299999999999998E-002     38.704650878906250     
   6.6600000000000006E-002     50.982776641845703     
   6.6900000000000001E-002     60.911640167236328     
   6.7199999999999996E-002     67.879058837890625     
   6.7500000000000004E-002     71.465232849121094     
   6.7800000000000013E-002     71.467849731445312     
   6.8099999999999994E-002     67.926101684570312     
   6.8400000000000002E-002     61.103046417236328     
   6.8700000000000011E-002     51.468276977539062     
   6.8999999999999992E-002     39.653308868408203     
   6.9300000000000000E-002     26.402378082275391     
   6.9600000000000009E-002     12.514571189880371     
   6.9900000000000004E-002    -1.2168781757354736     
   7.0199999999999999E-002    -14.056332588195801     
   7.0500000000000007E-002    -25.374553680419922     
   7.0800000000000016E-002    -34.682487487792969     
   7.1099999999999997E-002    -41.651756286621094     
   7.1400000000000005E-002    -46.123989105224609     
   7.1700000000000000E-002    -48.100177764892578     
   7.1999999999999995E-002    -47.730529785156250     
   7.2300000000000003E-002    -45.278991699218750     
   7.2600000000000012E-002    -41.101516723632812     
   7.2900000000000006E-002    -35.609313964843750     
   7.3200000000000001E-002    -29.231437683105469     
   7.3499999999999996E-002    -22.397277832031250     
   7.3800000000000004E-002    -15.494958877563477     
   7.4099999999999999E-002    -8.8706617355346680     
   7.4400000000000008E-002    -2.8023231029510498     
   7.4700000000000003E-002     2.5030167102813721     
   7.5000000000000011E-002     6.9040756225585938     
   7.5299999999999992E-002     10.337347984313965     
   7.5600000000000001E-002     12.792841911315918     
   7.5900000000000009E-002     14.318697929382324     
   7.6200000000000004E-002     15.005216598510742     
   7.6499999999999999E-002     14.970998764038086     
   7.6800000000000007E-002     14.356240272521973     
   7.7099999999999988E-002     13.305820465087891     
   7.7399999999999997E-002     11.965875625610352     
   7.7700000000000005E-002     10.468427658081055     
   7.8000000000000014E-002     8.9293794631958008     
   7.8299999999999995E-002     7.4409894943237305     
   7.8600000000000003E-002     6.0714783668518066     
   7.8900000000000012E-002     4.8663573265075684     
   7.9199999999999993E-002     3.8451809883117676     
   7.9500000000000001E-002     3.0125224590301514     
   7.9800000000000010E-002     2.3537626266479492     
   8.0100000000000018E-002     1.8505216836929321     
   8.0399999999999999E-002     1.4774503707885742     
   8.0700000000000008E-002     1.2062858343124390     
   8.1000000000000003E-002     1.0163850784301758     
   8.1299999999999997E-002    0.88234293460845947     
   8.1600000000000006E-002    0.79059374332427979     
   8.1900000000000014E-002    0.72556817531585693     
   8.2199999999999995E-002    0.67416083812713623     
   8.2500000000000004E-002    0.62716519832611084     
   8.2799999999999999E-002    0.56783092021942139     
   8.3100000000000007E-002    0.48610270023345947     
   8.3400000000000002E-002    0.36497408151626587     
   8.3700000000000011E-002    0.19216822087764740     
   8.4000000000000005E-002    -4.1015595197677612E-002
   8.4300000000000000E-002   -0.34217104315757751     
   8.4599999999999995E-002   -0.70908629894256592     
   8.4900000000000003E-002    -1.1362076997756958     
   8.5199999999999998E-002    -1.6063594818115234     
   8.5500000000000007E-002    -2.0974278450012207     
   8.5800000000000001E-002    -2.5819456577301025     
   8.6100000000000010E-002    -3.0299899578094482     
   8.6399999999999991E-002    -3.4130823612213135     
   8.6699999999999999E-002    -3.7032039165496826     
   8.7000000000000008E-002    -3.8824687004089355     
   8.7300000000000003E-002    -3.9354872703552246     
   8.7599999999999997E-002    -3.8585643768310547     
   8.7900000000000006E-002    -3.6544396877288818     
   8.8200000000000014E-002    -3.3338637351989746     
   8.8499999999999995E-002    -2.9168367385864258     
   8.8800000000000004E-002    -2.4212760925292969     
   8.9100000000000013E-002    -1.8750573396682739     
   8.9399999999999993E-002    -1.3011600971221924     
   8.9700000000000002E-002   -0.72541660070419312     
   9.0000000000000011E-002   -0.17415265738964081     
   9.0299999999999991E-002    0.33430257439613342     
   9.0600000000000000E-002    0.77668297290802002     
   9.0900000000000009E-002     1.1407849788665771     
   9.1200000000000017E-002     1.4113361835479736     
   9.1499999999999998E-002     1.5809617042541504     
   9.1800000000000007E-002     1.6483949422836304     
   9.2100000000000001E-002     1.6121371984481812     
   9.2399999999999996E-002     1.4843666553497314     
   9.2700000000000005E-002     1.2751392126083374     
   9.3000000000000013E-002     1.0052230358123779     
   9.3300000000000008E-002    0.69689559936523438     
   9.3600000000000003E-002    0.37280556559562683     
   9.3899999999999997E-002     6.1695132404565811E-002
   9.4200000000000006E-002   -0.21701562404632568     
   9.4500000000000001E-002   -0.44037532806396484     
   9.4800000000000009E-002   -0.59486091136932373     
   9.5100000000000004E-002   -0.67238903045654297     
   9.5399999999999999E-002   -0.66981774568557739     
   9.5699999999999993E-002   -0.59405869245529175     
   9.6000000000000002E-002   -0.45216026902198792     
   9.6300000000000011E-002   -0.25999674201011658     
   9.6600000000000005E-002    -3.0025731772184372E-002
   9.6900000000000000E-002    0.22283157706260681     
   9.7200000000000009E-002    0.48290526866912842     
   9.7499999999999989E-002    0.74175107479095459     
   9.7799999999999998E-002    0.98956471681594849     
   9.8100000000000007E-002     1.2236175537109375     
   9.8400000000000015E-002     1.4389426708221436     
   9.8699999999999996E-002     1.6338387727737427     
   9.9000000000000005E-002     1.8049343824386597     
   9.9300000000000013E-002     1.9459768533706665     
   9.9599999999999994E-002     2.0527820587158203     
   9.9900000000000003E-002     2.1118290424346924     
  0.10020000000000001          2.1123518943786621     
  0.10049999999999999          2.0405354499816895     
  0.10080000000000000          1.8846486806869507     
  0.10110000000000001          1.6370352506637573     
  0.10140000000000000          1.2920607328414917     
  0.10170000000000000         0.85752403736114502     
  0.10200000000000001         0.34396514296531677     
  0.10230000000000002        -0.22431120276451111     
  0.10260000000000000        -0.81684374809265137     
  0.10290000000000001         -1.3980736732482910     
  0.10320000000000000         -1.9261506795883179     
  0.10350000000000001         -2.3646700382232666     
  0.10380000000000000         -2.6770682334899902     
  0.10410000000000001         -2.8393571376800537     
  0.10440000000000001         -2.8360319137573242     
  0.10470000000000000         -2.6663861274719238     
  0.10500000000000000         -2.3461501598358154     
  0.10530000000000000         -1.8990054130554199     
  0.10560000000000000         -1.3645467758178711     
  0.10590000000000001        -0.78355371952056885     
  0.10620000000000000        -0.20295256376266479     
  0.10650000000000001         0.33444157242774963     
  0.10679999999999999         0.79472053050994873     
  0.10710000000000000          1.1492937803268433     
  0.10740000000000001          1.3888093233108521     
  0.10770000000000000          1.5099852085113525     
  0.10800000000000000          1.5260033607482910     
  0.10830000000000001          1.4565573930740356     
  0.10859999999999999          1.3247369527816772     
  0.10890000000000000          1.1585935354232788     
  0.10920000000000001         0.97568589448928833     
  0.10950000000000001         0.79508256912231445     
  0.10979999999999999         0.62053745985031128     
  0.11009999999999999         0.44766044616699219     
  0.11040000000000001         0.26717692613601685     
  0.11070000000000001          5.8870580047369003E-002
  0.11100000000000000        -0.19210885465145111     
  0.11130000000000000        -0.50287252664566040     
  0.11160000000000002        -0.87872648239135742     
  0.11190000000000001         -1.3142625093460083     
  0.11220000000000001         -1.7926765680313110     
  0.11250000000000000         -2.2792000770568848     
  0.11280000000000000         -2.7326154708862305     
  0.11309999999999999         -3.1006653308868408     
  0.11340000000000001         -3.3302159309387207     
  0.11369999999999998         -3.3741412162780762     
  0.11400000000000000         -3.1958198547363281     
  0.11430000000000000         -2.7772178649902344     
  0.11460000000000002         -2.1196265220642090     
  0.11489999999999999         -1.2498966455459595     
  0.11520000000000001        -0.21502234041690826     
  0.11550000000000001         0.91726511716842651     
  0.11580000000000000          2.0685296058654785     
  0.11609999999999999          3.1520912647247314     
  0.11640000000000002          4.0836601257324219     
  0.11670000000000001          4.7922916412353516     
  0.11700000000000001          5.2186660766601562     
  0.11730000000000000          5.3316726684570312     
  0.11760000000000000          5.1198773384094238     
  0.11789999999999999          4.5992403030395508     
  0.11820000000000001          3.8115608692169189     
  0.11850000000000001          2.8122463226318359     
  0.11880000000000000          1.6779929399490356     
  0.11910000000000000         0.48489382863044739     
  0.11940000000000002        -0.68413746356964111     
  0.11970000000000001         -1.7521946430206299     
  0.12000000000000001         -2.6574990749359131     
  0.12030000000000000         -3.3461019992828369     
  0.12060000000000000         -3.7883048057556152     
  0.12089999999999999         -3.9661307334899902     
  0.12119999999999999         -3.8831055164337158     
  0.12150000000000001         -3.5594053268432617     
  0.12180000000000001         -3.0255746841430664     
  0.12210000000000000         -2.3297202587127686     
  0.12239999999999999         -1.5203605890274048     
  0.12270000000000002        -0.65580320358276367     
  0.12300000000000001         0.20880457758903503     
  0.12330000000000001          1.0192134380340576     
  0.12360000000000000          1.7265868186950684     
  0.12390000000000000          2.2933430671691895     
  0.12419999999999999          2.6870303153991699     
  0.12450000000000001          2.8944833278656006     
  0.12480000000000001          2.9086079597473145     
  0.12509999999999999          2.7383050918579102     
  0.12540000000000001          2.4040811061859131     
  0.12570000000000003          1.9325163364410400     
  0.12600000000000000          1.3646678924560547     
  0.12630000000000002         0.73719465732574463     
  0.12659999999999999          9.5638051629066467E-002
  0.12690000000000001        -0.52056246995925903     
  0.12719999999999998         -1.0773249864578247     
  0.12750000000000000         -1.5419647693634033     
  0.12780000000000002         -1.9005573987960815     
  0.12809999999999999         -2.1381216049194336     
  0.12840000000000001         -2.2567903995513916     
  0.12869999999999998         -2.2644021511077881     
  0.12900000000000000         -2.1719746589660645     
  0.12930000000000003         -2.0038409233093262     
  0.12959999999999999         -1.7761877775192261     
  0.12990000000000002         -1.5146260261535645     
  0.13019999999999998         -1.2378133535385132     
  0.13050000000000000        -0.96138834953308105     
  0.13080000000000003        -0.70167458057403564     
  0.13109999999999999        -0.46301507949829102     
  0.13140000000000002        -0.25418058037757874     
  0.13169999999999998         -7.4276424944400787E-002
  0.13200000000000001          7.6960459351539612E-002
  0.13229999999999997         0.20093283057212830     
  0.13260000000000000         0.30401805043220520     
  0.13290000000000002         0.38705497980117798     
  0.13319999999999999         0.45459377765655518     
  0.13350000000000001         0.50795894861221313     
  0.13380000000000003         0.54910045862197876     
  0.13410000000000000         0.57905590534210205     
  0.13440000000000002         0.59977686405181885     
  0.13469999999999999         0.61184626817703247     
  0.13500000000000001         0.61647564172744751     
  0.13529999999999998         0.61697196960449219     
  0.13560000000000000         0.61236518621444702     
  0.13590000000000002         0.60877168178558350     
  0.13619999999999999         0.60568302869796753     
  0.13650000000000001         0.60706394910812378     
  0.13680000000000003         0.61583900451660156     
  0.13710000000000000         0.62962275743484497     
  0.13740000000000002         0.65450471639633179     
  0.13769999999999999         0.68500298261642456     
  0.13800000000000001         0.72403538227081299     
  0.13829999999999998         0.77003407478332520     
  0.13860000000000000         0.81697219610214233     
  0.13890000000000002         0.86776727437973022     
  0.13919999999999999         0.91083139181137085     
  0.13950000000000001         0.94647473096847534     
  0.13979999999999998         0.96789216995239258     
  0.14010000000000000         0.96571648120880127     
  0.14040000000000002         0.93921947479248047     
  0.14069999999999999         0.87502276897430420     
  0.14100000000000001         0.77293109893798828     
  0.14130000000000004         0.62741446495056152     
  0.14160000000000000         0.43618568778038025     
  0.14189999999999997         0.20574757456779480     
  0.14219999999999999         -6.4017333090305328E-002
  0.14250000000000002        -0.35979196429252625     
  0.14279999999999998        -0.66981005668640137     
  0.14310000000000000        -0.97854793071746826     
  0.14339999999999997         -1.2657921314239502     
  0.14369999999999999         -1.5169777870178223     
  0.14400000000000002         -1.7138304710388184     
  0.14429999999999998         -1.8430907726287842     
  0.14460000000000001         -1.8964534997940063     
  0.14490000000000003         -1.8684357404708862     
  0.14520000000000000         -1.7618814706802368     
  0.14550000000000002         -1.5855180025100708     
  0.14579999999999999         -1.3509550094604492     
  0.14610000000000001         -1.0754308700561523     
  0.14640000000000003        -0.77810311317443848     
  0.14670000000000000        -0.47580406069755554     
  0.14699999999999996        -0.18860036134719849     
  0.14729999999999999          7.0109210908412933E-002
  0.14760000000000001         0.28871020674705505     
  0.14789999999999998         0.45915052294731140     
  0.14820000000000000         0.58141630887985229     