  -1.4999999999999999E-002     0.0000000000000000     
  -1.4700000000000000E-002     0.0000000000000000     
  -1.4400000000000000E-002     0.0000000000000000     
  -1.4100000000000000E-002     0.0000000000000000     
  -1.3800000000000000E-002     0.0000000000000000     
  -1.3500000000000000E-002     0.0000000000000000     
  -1.3200000000000000E-002     0.0000000000000000     
  -1.2899999999999998E-002     0.0000000000000000     
  -1.2600000000000000E-002     0.0000000000000000     
  -1.2299999999999998E-002     0.0000000000000000     
  -1.2000000000000000E-002     0.0000000000000000     
  -1.1699999999999999E-002     0.0000000000000000     
  -1.1399999999999999E-002     0.0000000000000000     
  -1.1099999999999999E-002     0.0000000000000000     
  -1.0799999999999999E-002     0.0000000000000000     
  -1.0499999999999999E-002     0.0000000000000000     
  -1.0199999999999999E-002     0.0000000000000000     
  -9.8999999999999991E-003     0.0000000000000000     
  -9.5999999999999992E-003     0.0000000000000000     
  -9.2999999999999992E-003     0.0000000000000000     
  -8.9999999999999993E-003     0.0000000000000000     
  -8.6999999999999994E-003     0.0000000000000000     
  -8.3999999999999995E-003     0.0000000000000000     
  -8.0999999999999996E-003     0.0000000000000000     
  -7.7999999999999988E-003     0.0000000000000000     
  -7.4999999999999997E-003     0.0000000000000000     
  -7.1999999999999998E-003     0.0000000000000000     
  -6.8999999999999981E-003     0.0000000000000000     
  -6.5999999999999982E-003     0.0000000000000000     
  -6.3000000000000000E-003     0.0000000000000000     
  -6.0000000000000001E-003    -6.3307486473278147E-038
  -5.6999999999999985E-003     1.7975727556692281E-036
  -5.3999999999999986E-003     1.1341259036342184E-034
  -5.1000000000000004E-003    -7.7710792772709068E-034
  -4.7999999999999987E-003    -2.0625214695978241E-033
  -4.5000000000000005E-003     3.2311976960459531E-032
  -4.1999999999999989E-003    -9.1912743769255498E-032
  -3.8999999999999990E-003    -6.1647966627885785E-032
  -3.5999999999999990E-003     9.5135089992839759E-031
  -3.2999999999999991E-003    -1.6014745075715752E-030
  -2.9999999999999992E-003    -4.9923406827445224E-030
  -2.6999999999999993E-003     2.9040950177403762E-029
  -2.3999999999999994E-003    -3.6193255147015873E-029
  -2.0999999999999977E-003    -1.6181618855611592E-028
  -1.7999999999999995E-003     8.4354065634759035E-028
  -1.4999999999999979E-003    -1.5764734226520718E-027
  -1.1999999999999997E-003    -2.9960122511927553E-028
  -8.9999999999999976E-004     1.0707969423706837E-026
  -5.9999999999999810E-004    -4.0418089665855405E-026
  -2.9999999999999992E-004     1.1025510744035978E-025
   0.0000000000000000         -2.3851411614964255E-025
   3.0000000000000165E-004     3.2185187201942234E-025
   5.9999999999999984E-004     2.0829909180215749E-025
   9.0000000000000149E-004    -2.8051347503482314E-024
   1.2000000000000031E-003     9.2003916520058446E-024
   1.5000000000000013E-003    -1.7164291166732066E-023
   1.8000000000000030E-003     1.0213424738385322E-023
   2.1000000000000012E-003     5.4519098549361424E-023
   2.3999999999999994E-003    -2.4089100888290637E-022
   2.7000000000000010E-003     5.7793545308786044E-022
   2.9999999999999992E-003    -9.3419972963116821E-022
   3.3000000000000008E-003     8.7202385878331026E-022
   3.6000000000000025E-003     3.4167830151464368E-022
   3.9000000000000007E-003    -3.2862387279665104E-021
   4.2000000000000023E-003     7.3293388306898047E-021
   4.5000000000000005E-003    -9.3135892160460975E-021
   4.7999999999999987E-003     3.1818956290272713E-021
   5.1000000000000004E-003     1.7501907453051772E-020
   5.4000000000000020E-003    -5.1162238872701415E-020
   5.7000000000000037E-003     6.6636700794991574E-020
   5.9999999999999984E-003     5.1255965544687063E-020
   6.3000000000000000E-003    -6.1595652762000871E-019
   6.6000000000000017E-003     2.2410473463654158E-018
   6.9000000000000034E-003    -5.3314838639599892E-018
   7.2000000000000015E-003     6.9088341604470514E-018
   7.5000000000000032E-003     9.1766383180867199E-018
   7.8000000000000014E-003    -8.9049837676820576E-017
   8.0999999999999996E-003     3.0495618673900208E-016
   8.4000000000000012E-003    -6.2132333664561808E-016
   8.7000000000000029E-003     4.1702806890228422E-016
   9.0000000000000011E-003     2.3507413158781795E-015
   9.2999999999999992E-003    -1.0896004828649455E-014
   9.6000000000000009E-003     2.2975607758012918E-014
   9.8999999999999991E-003    -8.8774702582008862E-015
   1.0200000000000001E-002    -1.2315991867843656E-013
   1.0500000000000002E-002     5.1104422343212219E-013
   1.0800000000000004E-002    -1.0905266490182641E-012
   1.1099999999999999E-002     8.9570180699521940E-013
   1.1400000000000000E-002     2.8717280289858316E-012
   1.1700000000000002E-002    -1.4531236457171470E-011
   1.2000000000000004E-002     3.5110928053860846E-011
   1.2300000000000002E-002    -4.7230989952407043E-011
   1.2600000000000000E-002    -2.0060657995868425E-011
   1.2900000000000002E-002     3.2715480324796431E-010
   1.3200000000000000E-002    -9.3565688530361513E-010
   1.3500000000000002E-002     8.7162804751628187E-010
   1.3800000000000003E-002     2.8681510499950491E-009
   1.4100000000000001E-002    -1.0153160090453639E-008
   1.4400000000000000E-002     2.4603021842040107E-009
   1.4700000000000001E-002     4.1052356181126015E-008
   1.4999999999999999E-002    -4.1625060731576013E-008
   1.5300000000000001E-002    -1.5342466497259011E-007
   1.5600000000000003E-002     1.1892368689814248E-007
   1.5899999999999997E-002     5.1163436864953837E-007
   1.6199999999999999E-002    -1.3723038705393265E-007
   1.6500000000000001E-002    -1.4961301531002391E-006
   1.6800000000000002E-002    -7.2464615641365526E-008
   1.7100000000000004E-002     7.0917330958764069E-006
   1.7400000000000006E-002     1.8072449165629223E-005
   1.7700000000000000E-002     2.9930828532087617E-005
   1.8000000000000002E-002     4.6601235226262361E-005
   1.8300000000000004E-002     7.8032171586528420E-005
   1.8600000000000005E-002     1.3168055738788098E-004
   1.8900000000000000E-002     2.1138037845958024E-004
   1.9200000000000002E-002     3.2754550920799375E-004
   1.9500000000000003E-002     5.0427461974322796E-004
   1.9799999999999998E-002     7.7407161006703973E-004
   2.0100000000000000E-002     1.1725152144208550E-003
   2.0400000000000001E-002     1.7467738362029195E-003
   2.0700000000000003E-002     2.5688828900456429E-003
   2.0999999999999998E-002     3.7367576733231544E-003
   2.1299999999999999E-002     5.3672590292990208E-003
   2.1600000000000001E-002     7.6017370447516441E-003
   2.1900000000000003E-002     1.0622895322740078E-002
   2.2200000000000004E-002     1.4657531864941120E-002
   2.2500000000000006E-002     1.9961630925536156E-002
   2.2800000000000001E-002     2.6812408119440079E-002
   2.3100000000000002E-002     3.5515710711479187E-002
   2.3400000000000004E-002     4.6402622014284134E-002
   2.3699999999999999E-002     5.9792805463075638E-002
   2.4000000000000000E-002     7.5954347848892212E-002
   2.4300000000000002E-002     9.5081612467765808E-002
   2.4599999999999997E-002    0.11726863682270050     
   2.4900000000000005E-002    0.14245089888572693     
   2.5200000000000000E-002    0.17033790051937103     
   2.5499999999999995E-002    0.20039513707160950     
   2.5800000000000003E-002    0.23181575536727905     
   2.6099999999999998E-002    0.26348125934600830     
   2.6400000000000007E-002    0.29395639896392822     
   2.6700000000000002E-002    0.32151156663894653     
   2.6999999999999996E-002    0.34420031309127808     
   2.7300000000000005E-002    0.35995939373970032     
   2.7600000000000000E-002    0.36667919158935547     
   2.7900000000000008E-002    0.36233028769493103     
   2.8200000000000003E-002    0.34521871805191040     
   2.8499999999999998E-002    0.31411218643188477     
   2.8800000000000006E-002    0.26832744479179382     
   2.9100000000000001E-002    0.20793518424034119     
   2.9400000000000003E-002    0.13381442427635193     
   2.9700000000000004E-002     4.7709282487630844E-002
   3.0000000000000006E-002    -4.7785561531782150E-002
   3.0300000000000001E-002   -0.14947299659252167     
   3.0600000000000002E-002   -0.25362831354141235     
   3.0900000000000004E-002   -0.35620561242103577     
   3.1199999999999999E-002   -0.45327973365783691     
   3.1500000000000007E-002   -0.54112124443054199     
   3.1800000000000002E-002   -0.61669200658798218     
   3.2099999999999997E-002   -0.67796701192855835     
   3.2400000000000005E-002   -0.72383034229278564     
   3.2700000000000000E-002   -0.75448614358901978     
   3.3000000000000002E-002   -0.77147817611694336     
   3.3300000000000003E-002   -0.77728766202926636     
   3.3599999999999998E-002   -0.77543163299560547     
   3.3900000000000000E-002   -0.77009594440460205     
   3.4200000000000001E-002   -0.76556807756423950     
   3.4500000000000003E-002   -0.76606321334838867     
   3.4799999999999998E-002   -0.77477771043777466     
   3.5099999999999999E-002   -0.79391521215438843     
   3.5400000000000001E-002   -0.82407879829406738     
   3.5699999999999996E-002   -0.86370301246643066     
   3.6000000000000004E-002   -0.90921658277511597     
   3.6299999999999999E-002   -0.95497083663940430     
   3.6600000000000008E-002   -0.99306112527847290     
   3.6900000000000002E-002    -1.0142114162445068     
   3.7199999999999997E-002    -1.0081493854522705     
   3.7500000000000006E-002   -0.96423500776290894     
   3.7800000000000000E-002   -0.87261182069778442     
   3.8100000000000009E-002   -0.72510457038879395     
   3.8400000000000004E-002   -0.51617801189422607     
   3.8699999999999998E-002   -0.24391470849514008     
   3.9000000000000007E-002     8.9383386075496674E-002
   3.9300000000000002E-002    0.47642585635185242     
   3.9600000000000003E-002    0.90518712997436523     
   3.9900000000000005E-002     1.3591837882995605     
   4.0200000000000000E-002     1.8174934387207031     
   4.0500000000000001E-002     2.2566723823547363     
   4.0800000000000003E-002     2.6517360210418701     
   4.1100000000000005E-002     2.9776244163513184     
   4.1399999999999999E-002     3.2113814353942871     
   4.1700000000000008E-002     3.3336803913116455     
   4.2000000000000003E-002     3.3306133747100830     
   4.2299999999999997E-002     3.1948421001434326     
   4.2600000000000006E-002     2.9263997077941895     
   4.2900000000000001E-002     2.5335083007812500     
   4.3200000000000002E-002     2.0320463180541992     
   4.3500000000000004E-002     1.4447448253631592     
   4.3799999999999999E-002    0.80031758546829224     
   4.4100000000000000E-002    0.13128243386745453     
   4.4400000000000002E-002   -0.52795141935348511     
   4.4700000000000004E-002    -1.1430160999298096     
   4.4999999999999998E-002    -1.6820423603057861     
   4.5300000000000000E-002    -2.1176159381866455     
   4.5600000000000002E-002    -2.4286599159240723     
   4.5899999999999996E-002    -2.6014599800109863     
   4.6200000000000005E-002    -2.6302917003631592     
   4.6500000000000000E-002    -2.5184376239776611     
   4.6799999999999994E-002    -2.2766842842102051     
   4.7100000000000003E-002    -1.9231982231140137     
   4.7399999999999998E-002    -1.4824776649475098     
   4.7700000000000006E-002   -0.98292124271392822     
   4.8000000000000001E-002   -0.45554867386817932     
   4.8300000000000010E-002     6.8065956234931946E-002
   4.8600000000000004E-002    0.55772238969802856     
   4.8899999999999999E-002    0.98595851659774780     
   4.9200000000000008E-002     1.3303937911987305     
   4.9500000000000002E-002     1.5744314193725586     
   4.9800000000000011E-002     1.7076796293258667     
   5.0100000000000006E-002     1.7272814512252808     
   5.0400000000000000E-002     1.6369173526763916     
   5.0700000000000009E-002     1.4468502998352051     
   5.1000000000000004E-002     1.1734009981155396     
   5.1299999999999998E-002    0.83664429187774658     
   5.1600000000000007E-002    0.45962691307067871     
   5.1900000000000002E-002     6.7086502909660339E-002
   5.2200000000000010E-002   -0.31714540719985962     
   5.2500000000000005E-002   -0.67095774412155151     
   5.2800000000000000E-002   -0.97571438550949097     
   5.3099999999999994E-002    -1.2170162200927734     
   5.3400000000000003E-002    -1.3852256536483765     
   5.3699999999999998E-002    -1.4764529466629028     
   5.4000000000000006E-002    -1.4917099475860596     
   5.4300000000000001E-002    -1.4359834194183350     
   5.4599999999999996E-002    -1.3183245658874512     
   5.4900000000000004E-002    -1.1502592563629150     
   5.5199999999999999E-002   -0.94496470689773560     
   5.5499999999999994E-002   -0.71645826101303101     
   5.5800000000000002E-002   -0.47822412848472595     
   5.6099999999999997E-002   -0.24336138367652893     
   5.6400000000000006E-002    -2.4105660617351532E-002
   5.6700000000000000E-002    0.16873174905776978     
   5.6999999999999995E-002    0.32543897628784180     
   5.7300000000000004E-002    0.43670055270195007     
   5.7599999999999998E-002    0.49458503723144531     
   5.7900000000000007E-002    0.49196392297744751     
   5.8200000000000002E-002    0.42309835553169250     
   5.8499999999999996E-002    0.28418678045272827     
   5.8800000000000005E-002     7.3764257133007050E-002
   5.9100000000000000E-002   -0.20553489029407501     
   5.9400000000000008E-002   -0.54670500755310059     
   5.9700000000000003E-002   -0.93777394294738770     
   6.0000000000000012E-002    -1.3604893684387207     
   6.0300000000000006E-002    -1.7910945415496826     
   6.0600000000000001E-002    -2.2012717723846436     
   6.0900000000000010E-002    -2.5584933757781982     
   6.1200000000000004E-002    -2.8291234970092773     
   6.1500000000000013E-002    -2.9809150695800781     
   6.1800000000000008E-002    -2.9854657649993896     
   6.2100000000000002E-002    -2.8212075233459473     
   6.2399999999999997E-002    -2.4769175052642822     
   6.2700000000000006E-002    -1.9534448385238647     
   6.3000000000000000E-002    -1.2649993896484375     
   6.3300000000000009E-002   -0.43918624520301819     
   6.3600000000000004E-002    0.48363602161407471     
   6.3899999999999998E-002     1.4527850151062012     
   6.4199999999999993E-002     2.4109611511230469     
   6.4500000000000002E-002     3.2979459762573242     
   6.4800000000000010E-002     4.0555148124694824     
   6.5100000000000005E-002     4.6324768066406250     
   6.5400000000000000E-002     4.9887237548828125     
   6.5700000000000008E-002     5.0987663269042969     
   6.5999999999999989E-002     4.9545307159423828     
   6.6299999999999998E-002     4.5655117034912109     
   6.6600000000000006E-002     3.9589221477508545     
   6.6900000000000001E-002     3.1770606040954590     
   6.7199999999999996E-002     2.2740888595581055     
   6.7500000000000004E-002     1.3114813566207886     
   6.7800000000000013E-002    0.35301423072814941     
   6.8099999999999994E-002   -0.54125118255615234     
   6.8400000000000002E-002    -1.3184481859207153     
   6.8700000000000011E-002    -1.9381048679351807     
   6.8999999999999992E-002    -2.3748538494110107     
   6.9300000000000000E-002    -2.6192467212677002     
   6.9600000000000009E-002    -2.6790587902069092     
   6.9900000000000004E-002    -2.5763711929321289     
   7.0199999999999999E-002    -2.3445940017700195     
   7.0500000000000007E-002    -2.0262868404388428     
   7.0800000000000016E-002    -1.6669093370437622     
   7.1099999999999997E-002    -1.3104983568191528     
   7.1400000000000005E-002   -0.99581134319305420     
   7.1700000000000000E-002   -0.75203216075897217     
   7.1999999999999995E-002   -0.59699934720993042     
   7.2300000000000003E-002   -0.53484070301055908     
   7.2600000000000012E-002   -0.55666184425354004     
   7.2900000000000006E-002   -0.64194154739379883     
   7.3200000000000001E-002   -0.76026368141174316     
   7.3499999999999996E-002   -0.87555289268493652     
   7.3800000000000004E-002   -0.94961565732955933     
   7.4099999999999999E-002   -0.94521194696426392     
   7.4400000000000008E-002   -0.83103221654891968     
   7.4700000000000003E-002   -0.58423525094985962     
   7.5000000000000011E-002   -0.19259494543075562     
   7.5299999999999992E-002    0.34364718198776245     
   7.5600000000000001E-002     1.0117982625961304     
   7.5900000000000009E-002     1.7873362302780151     
   7.6200000000000004E-002     2.6340880393981934     
   7.6499999999999999E-002     3.5083479881286621     
   7.6800000000000007E-002     4.3610095977783203     
   7.7099999999999988E-002     5.1393728256225586     
   7.7399999999999997E-002     5.7917757034301758     
   7.7700000000000005E-002     6.2703957557678223     
   7.8000000000000014E-002     6.5338926315307617     
   7.8299999999999995E-002     6.5505704879760742     
   7.8600000000000003E-002     6.2999973297119141     
   7.8900000000000012E-002     5.7749171257019043     
   7.9199999999999993E-002     4.9818797111511230     
   7.9500000000000001E-002     3.9406642913818359     
   7.9800000000000010E-002     2.6846249103546143     
   8.0100000000000018E-002     1.2574043273925781     
   8.0399999999999999E-002   -0.28812649846076965     
   8.0700000000000008E-002    -1.8936334848403931     
   8.1000000000000003E-002    -3.4995417594909668     
   8.1299999999999997E-002    -5.0470499992370605     
   8.1600000000000006E-002    -6.4825820922851562     
   8.1900000000000014E-002    -7.7610502243041992     
   8.2199999999999995E-002    -8.8459424972534180     
   8.2500000000000004E-002    -9.7122211456298828     
   8.2799999999999999E-002    -10.346228599548340     
   8.3100000000000007E-002    -10.742713928222656     
   8.3400000000000002E-002    -10.904414176940918     
   8.3700000000000011E-002    -10.839765548706055     
   8.4000000000000005E-002    -10.558386802673340     
   8.4300000000000000E-002    -10.070837974548340     
   8.4599999999999995E-002    -9.3852672576904297     
   8.4900000000000003E-002    -8.5067462921142578     
   8.5199999999999998E-002    -7.4393892288208008     
   8.5500000000000007E-002    -6.1850075721740723     
   8.5800000000000001E-002    -4.7473897933959961     
   8.6100000000000010E-002    -3.1351191997528076     
   8.6399999999999991E-002    -1.3629872798919678     
   8.6699999999999999E-002    0.54234302043914795     
   8.7000000000000008E-002     2.5434038639068604     
   8.7300000000000003E-002     4.5911984443664551     
   8.7599999999999997E-002     6.6232948303222656     
   8.7900000000000006E-002     8.5698366165161133     
   8.8200000000000014E-002     10.356098175048828     
   8.8499999999999995E-002     11.906572341918945     
   8.8800000000000004E-002     13.152617454528809     
   8.9100000000000013E-002     14.035749435424805     
   8.9399999999999993E-002     14.513123512268066     
   8.9700000000000002E-002     14.561603546142578     
   9.0000000000000011E-002     14.178719520568848     
   9.0299999999999991E-002     13.383024215698242     
   9.0600000000000000E-002     12.211269378662109     
   9.0900000000000009E-002     10.715916633605957     
   9.1200000000000017E-002     8.9618310928344727     
   9.1499999999999998E-002     7.0184040069580078     
   9.1800000000000007E-002     4.9552159309387207     
   9.2100000000000001E-002     2.8412797451019287     
   9.2399999999999996E-002    0.73810738325119019     
   9.2700000000000005E-002    -1.3020977973937988     
   9.3000000000000013E-002    -3.2336132526397705     
   9.3300000000000008E-002    -5.0189228057861328     
   9.3600000000000003E-002    -6.6257424354553223     
   9.3899999999999997E-002    -8.0246229171752930     
   9.4200000000000006E-002    -9.1891489028930664     
   9.4500000000000001E-002    -10.092477798461914     
   9.4800000000000009E-002    -10.708182334899902     
   9.5100000000000004E-002    -11.012137413024902     
   9.5399999999999999E-002    -10.983789443969727     
   9.5699999999999993E-002    -10.611033439636230     
   9.6000000000000002E-002    -9.8940467834472656     
   9.6300000000000011E-002    -8.8472537994384766     
   9.6600000000000005E-002    -7.5037860870361328     
   9.6900000000000000E-002    -5.9161548614501953     
   9.7200000000000009E-002    -4.1553697586059570     
   9.7499999999999989E-002    -2.3088212013244629     
   9.7799999999999998E-002   -0.47446393966674805     
   9.8100000000000007E-002     1.2456120252609253     
   9.8400000000000015E-002     2.7522826194763184     
   9.8699999999999996E-002     3.9577283859252930     
   9.9000000000000005E-002     4.7930293083190918     
   9.9300000000000013E-002     5.2147593498229980     
   9.9599999999999994E-002     5.2095847129821777     
   9.9900000000000003E-002     4.7940278053283691     
  0.10020000000000001          4.0151329040527344     
  0.10049999999999999          2.9487519264221191     
  0.10080000000000000          1.6897541284561157     
  0.10110000000000001         0.34560453891754150     
  0.10140000000000000        -0.96980392932891846     
  0.10170000000000000         -2.1478643417358398     
  0.10200000000000001         -3.0933918952941895     
  0.10230000000000002         -3.7306287288665771     
  0.10260000000000000         -4.0097007751464844     
  0.10290000000000001         -3.9089152812957764     
  0.10320000000000000         -3.4364445209503174     
  0.10350000000000001         -2.6286988258361816     
  0.10380000000000000         -1.5457818508148193     
  0.10410000000000001        -0.26741319894790649     
  0.10440000000000001          1.1140106916427612     
  0.10470000000000000          2.5021286010742188     
  0.10500000000000000          3.8009827136993408     
  0.10530000000000000          4.9245395660400391     
  0.10560000000000000          5.8015718460083008     
  0.10590000000000001          6.3786473274230957     
  0.10620000000000000          6.6267647743225098     
  0.10650000000000001          6.5407347679138184     
  0.10679999999999999          6.1357364654541016     
  0.10710000000000000          5.4496679306030273     
  0.10740000000000001          4.5377545356750488     
  0.10770000000000000          3.4675135612487793     
  0.10800000000000000          2.3126616477966309     
  0.10830000000000001          1.1477963924407959     
  0.10859999999999999          4.4488810002803802E-002
  0.10890000000000000        -0.93594646453857422     
  0.10920000000000001         -1.7465846538543701     
  0.10950000000000001         -2.3549799919128418     
  0.10979999999999999         -2.7473058700561523     
  0.11009999999999999         -2.9267988204956055     
  0.11040000000000001         -2.9120781421661377     
  0.11070000000000001         -2.7348599433898926     
  0.11100000000000000         -2.4353735446929932     
  0.11130000000000000         -2.0589780807495117     
  0.11160000000000002         -1.6513025760650635     
  0.11190000000000001         -1.2543526887893677     
  0.11220000000000001        -0.90400475263595581     
  0.11250000000000000        -0.62646108865737915     
  0.11280000000000000        -0.43736025691032410     
  0.11309999999999999        -0.34274277091026306     
  0.11340000000000001        -0.33813095092773438     
  0.11369999999999998        -0.41195788979530334     
  0.11400000000000000        -0.54789131879806519     
  0.11430000000000000        -0.72514331340789795     
  0.11460000000000002        -0.92265701293945312     
  0.11489999999999999         -1.1219942569732666     
  0.11520000000000001         -1.3081099987030029     
  0.11550000000000001         -1.4695863723754883     
  0.11580000000000000         -1.5979748964309692     
  0.11609999999999999         -1.6917709112167358     
  0.11640000000000002         -1.7527570724487305     
  0.11670000000000001         -1.7819994688034058     
  0.11700000000000001         -1.7837398052215576     
  0.11730000000000000         -1.7627875804901123     
  0.11760000000000000         -1.7216488122940063     
  0.11789999999999999         -1.6615444421768188     
  0.11820000000000001         -1.5815112590789795     
  0.11850000000000001         -1.4799385070800781     
  0.11880000000000000         -1.3537629842758179     
  0.11910000000000000         -1.1988619565963745     
  0.11940000000000002         -1.0131051540374756     
  0.11970000000000001        -0.79551887512207031     
  0.12000000000000001        -0.54655539989471436     
  0.12030000000000000        -0.26971879601478577     
  0.12060000000000000          2.8373751789331436E-002
  0.12089999999999999         0.33979159593582153     
  0.12119999999999999         0.65435200929641724     
  0.12150000000000001         0.96186894178390503     
  0.12180000000000001          1.2520319223403931     
  0.12210000000000000          1.5142838954925537     
  0.12239999999999999          1.7423872947692871     
  0.12270000000000002          1.9316492080688477     
  0.12300000000000001          2.0778787136077881     
  0.12330000000000001          2.1824021339416504     
  0.12360000000000000          2.2468469142913818     
  0.12390000000000000          2.2744381427764893     
  0.12419999999999999          2.2703201770782471     
  0.12450000000000001          2.2384123802185059     
  0.12480000000000001          2.1842014789581299     
  0.12509999999999999          2.1121666431427002     
  0.12540000000000001          2.0262048244476318     
  0.12570000000000003          1.9310435056686401     
  0.12600000000000000          1.8290603160858154     
  0.12630000000000002          1.7240319252014160     
  0.12659999999999999          1.6203898191452026     
  0.12690000000000001          1.5188263654708862     
  0.12719999999999998          1.4216432571411133     
  0.12750000000000000          1.3318697214126587     
  0.12780000000000002          1.2487477064132690     
  0.12809999999999999          1.1723269224166870     
  0.12840000000000001          1.1032906770706177     
  0.12869999999999998          1.0394256114959717     
  0.12900000000000000         0.98076117038726807     
  0.12930000000000003         0.92715781927108765     
  0.12959999999999999         0.87789469957351685     
  0.12990000000000002         0.83366465568542480     
  0.13019999999999998         0.79241126775741577     
  0.13050000000000000         0.75300025939941406     
  0.13080000000000003         0.71184080839157104     
  0.13109999999999999         0.65843319892883301     
  0.13140000000000002         0.58358162641525269     
  0.13169999999999998         0.47344696521759033     
  0.13200000000000001         0.30969992280006409     
  0.13229999999999997          7.8007191419601440E-002
  0.13260000000000000        -0.23582138121128082     
  0.13290000000000002        -0.64079385995864868     
  0.13319999999999999         -1.1366097927093506     
  0.13350000000000001         -1.7155820131301880     
  0.13380000000000003         -2.3579084873199463     
  0.13410000000000000         -3.0361886024475098     
  0.13440000000000002         -3.7174832820892334     
  0.13469999999999999         -4.3627934455871582     
  0.13500000000000001         -4.9372301101684570     
  0.13529999999999998         -5.4121356010437012     
  0.13560000000000000         -5.7651634216308594     
  0.13590000000000002         -5.9885077476501465     
  0.13619999999999999         -6.0872526168823242     
  0.13650000000000001         -6.0735063552856445     
  0.13680000000000003         -5.9705104827880859     
  0.13710000000000000         -5.8027920722961426     
  0.13740000000000002         -5.5907196998596191     
  0.13769999999999999         -5.3507728576660156     
  0.13800000000000001         -5.0860457420349121     
  0.13829999999999998         -4.7869491577148438     
  0.13860000000000000         -4.4346618652343750     
  0.13890000000000002         -3.9981412887573242     
  0.13919999999999999         -3.4452819824218750     
  0.13950000000000001         -2.7455484867095947     
  0.13979999999999998         -1.8756569623947144     
  0.14010000000000000        -0.83116948604583740     
  0.14040000000000002         0.37692326307296753     
  0.14069999999999999          1.7178343534469604     
  0.14100000000000001          3.1380226612091064     
  0.14130000000000004          4.5732288360595703     
  0.14160000000000000          5.9516491889953613     
  0.14189999999999997          7.2007207870483398     
  0.14219999999999999          8.2617874145507812     
  0.14250000000000002          9.0943803787231445     
  0.14279999999999998          9.6856107711791992     
  0.14310000000000000          10.054252624511719     
  0.14339999999999997          10.244809150695801     
  0.14369999999999999          10.329339981079102     
  0.14400000000000002          10.395442962646484     
  0.14429999999999998          10.527970314025879     
  0.14460000000000001          10.803098678588867     
  0.14490000000000003          11.266596794128418     
  0.14520000000000000          11.919566154479980     
  0.14550000000000002          12.715879440307617     
  0.14579999999999999          13.550356864929199     
  0.14610000000000001          14.266589164733887     
  0.14640000000000003          14.669902801513672     
  0.14670000000000000          14.538878440856934     
  0.14699999999999996          13.656034469604492     
  0.14729999999999999          11.832056999206543     
  0.14760000000000001          8.9302091598510742     
  0.14789999999999998          4.8960542678833008     
  0.14820000000000000        -0.22806200385093689     