  -1.4999999999999999E-002     0.0000000000000000     
  -1.4700000000000000E-002    -7.3339613201629648E-017
  -1.4400000000000000E-002    -8.0028479231952082E-014
  -1.4100000000000000E-002    -1.2489413800040317E-012
  -1.3800000000000000E-002     1.1336331179334636E-011
  -1.3500000000000000E-002     4.5246299762435882E-011
  -1.3200000000000000E-002    -1.1857037574003471E-010
  -1.2899999999999998E-002    -4.5313947039105074E-010
  -1.2600000000000000E-002    -7.6074913035739655E-010
  -1.2299999999999998E-002     2.5668718262039647E-009
  -1.2000000000000000E-002     9.1533722823555763E-009
  -1.1699999999999999E-002     1.3580548907654588E-009
  -1.1399999999999999E-002    -4.3009283245964980E-008
  -1.1099999999999999E-002    -6.8274516706878785E-008
  -1.0799999999999999E-002     1.3491298034296051E-007
  -1.0499999999999999E-002     2.5780536816455424E-007
  -1.0199999999999999E-002    -2.4725244429646409E-007
  -9.8999999999999991E-003    -3.8896658338671841E-007
  -9.5999999999999992E-003     2.0839149783569155E-007
  -9.2999999999999992E-003     1.3776032758983092E-008
  -8.9999999999999993E-003    -1.4254531777169177E-007
  -8.6999999999999994E-003     7.0786495598440524E-007
  -8.3999999999999995E-003     8.1971631971100578E-007
  -8.0999999999999996E-003    -3.8943593949625210E-007
  -7.7999999999999988E-003    -1.6278205521302880E-006
  -7.4999999999999997E-003    -1.8628379621077329E-006
  -7.1999999999999998E-003    -7.4534773375489749E-007
  -6.8999999999999981E-003     3.7123274978512200E-006
  -6.5999999999999982E-003     6.1489445215556771E-006
  -6.3000000000000000E-003    -1.3399946965364506E-006
  -6.0000000000000001E-003    -8.2462947830208577E-006
  -5.6999999999999985E-003    -4.6778368414379656E-006
  -5.3999999999999986E-003     4.5671436055272352E-006
  -5.1000000000000004E-003     1.0574641237326432E-005
  -4.7999999999999987E-003    -4.4185521801409777E-006
  -4.5000000000000005E-003    -3.2219737477134913E-005
  -4.1999999999999989E-003    -1.4221736819308717E-006
  -3.8999999999999990E-003     1.4925003051757812E-004
  -3.5999999999999990E-003     3.8806907832622528E-004
  -3.2999999999999991E-003     6.5551768057048321E-004
  -2.9999999999999992E-003     9.6200156258419156E-004
  -2.6999999999999993E-003     1.3692036736756563E-003
  -2.3999999999999994E-003     1.9796001724898815E-003
  -2.0999999999999977E-003     2.9785612132400274E-003
  -1.7999999999999995E-003     4.5801247470080853E-003
  -1.4999999999999979E-003     6.9844955578446388E-003
  -1.1999999999999997E-003     1.0479829274117947E-002
  -8.9999999999999976E-004     1.5449693426489830E-002
  -5.9999999999999810E-004     2.2342463955283165E-002
  -2.9999999999999992E-004     3.1795307993888855E-002
   0.0000000000000000          4.4611383229494095E-002
   3.0000000000000165E-004     6.1630215495824814E-002
   5.9999999999999984E-004     8.3742357790470123E-002
   9.0000000000000149E-004    0.11189093440771103     
   1.2000000000000031E-003    0.14691117405891418     
   1.5000000000000013E-003    0.18924438953399658     
   1.8000000000000030E-003    0.23876450955867767     
   2.1000000000000012E-003    0.29470375180244446     
   2.3999999999999994E-003    0.35535725951194763     
   2.7000000000000010E-003    0.41757273674011230     
   2.9999999999999992E-003    0.47641766071319580     
   3.3000000000000008E-003    0.52495098114013672     
   3.6000000000000025E-003    0.55391794443130493     
   3.9000000000000007E-003    0.55184912681579590     
   4.2000000000000023E-003    0.50576639175415039     
   4.5000000000000005E-003    0.40165197849273682     
   4.7999999999999987E-003    0.22493737936019897     
   5.1000000000000004E-003    -3.7806458771228790E-002
   5.4000000000000020E-003   -0.39699873328208923     
   5.7000000000000037E-003   -0.85856795310974121     
   5.9999999999999984E-003    -1.4216049909591675     
   6.3000000000000000E-003    -2.0757887363433838     
   6.6000000000000017E-003    -2.7997086048126221     
   6.9000000000000034E-003    -3.5609235763549805     
   7.2000000000000015E-003    -4.3158631324768066     
   7.5000000000000032E-003    -5.0103473663330078     
   7.8000000000000014E-003    -5.5827288627624512     
   8.0999999999999996E-003    -5.9674096107482910     
   8.4000000000000012E-003    -6.0999951362609863     
   8.7000000000000029E-003    -5.9246892929077148     
   9.0000000000000011E-003    -5.4002566337585449     
   9.2999999999999992E-003    -4.5058255195617676     
   9.6000000000000009E-003    -3.2461905479431152     
   9.8999999999999991E-003    -1.6553159952163696     
   1.0200000000000001E-002    0.20147371292114258     
   1.0500000000000002E-002     2.2301175594329834     
   1.0800000000000004E-002     4.3115267753601074     
   1.1099999999999999E-002     6.3096694946289062     
   1.1400000000000000E-002     8.0821151733398438     
   1.1700000000000002E-002     9.4903869628906250     
   1.2000000000000004E-002     10.413791656494141     
   1.2300000000000002E-002     10.760265350341797     
   1.2600000000000000E-002     10.477076530456543     
   1.2900000000000002E-002     9.5585470199584961     
   1.3200000000000000E-002     8.0490245819091797     
   1.3500000000000002E-002     6.0459365844726562     
   1.3800000000000003E-002     3.6926834583282471     
   1.4100000000000001E-002     1.1721200942993164     
   1.4400000000000000E-002    -1.3060377836227417     
   1.4700000000000001E-002    -3.5206089019775391     
   1.4999999999999999E-002    -5.2527375221252441     
   1.5300000000000001E-002    -6.3057270050048828     
   1.5600000000000003E-002    -6.5184588432312012     
   1.5899999999999997E-002    -5.7822432518005371     
   1.6199999999999999E-002    -4.0536746978759766     
   1.6500000000000001E-002    -1.3619917631149292     
   1.6800000000000002E-002     2.1842305660247803     
   1.7100000000000004E-002     6.3989043235778809     
   1.7400000000000006E-002     11.021594047546387     
   1.7700000000000000E-002     15.729673385620117     
   1.8000000000000002E-002     20.152355194091797     
   1.8300000000000004E-002     23.892547607421875     
   1.8600000000000005E-002     26.552343368530273     
   1.8900000000000000E-002     27.761867523193359     
   1.9200000000000002E-002     27.210214614868164     
   1.9500000000000003E-002     24.675243377685547     
   1.9799999999999998E-002     20.051294326782227     
   2.0100000000000000E-002     13.370232582092285     
   2.0400000000000001E-002     4.8166646957397461     
   2.0700000000000003E-002    -5.2721385955810547     
   2.0999999999999998E-002    -16.410028457641602     
   2.1299999999999999E-002    -27.991943359375000     
   2.1600000000000001E-002    -39.323047637939453     
   2.1900000000000003E-002    -49.663448333740234     
   2.2200000000000004E-002    -58.290416717529297     
   2.2500000000000006E-002    -64.540710449218750     
   2.2800000000000001E-002    -67.879020690917969     
   2.3100000000000002E-002    -67.935615539550781     
   2.3400000000000004E-002    -64.546165466308594     
   2.3699999999999999E-002    -57.777000427246094     
   2.4000000000000000E-002    -47.916332244873047     
   2.4300000000000002E-002    -35.471298217773438     
   2.4599999999999997E-002    -21.121677398681641     
   2.4900000000000005E-002    -5.6782183647155762     
   2.5200000000000000E-002     9.9782867431640625     
   2.5499999999999995E-002     24.967519760131836     
   2.5800000000000003E-002     38.462909698486328     
   2.6099999999999998E-002     49.764888763427734     
   2.6400000000000007E-002     58.330142974853516     
   2.6700000000000002E-002     63.817504882812500     
   2.6999999999999996E-002     66.096992492675781     
   2.7300000000000005E-002     65.243301391601562     
   2.7600000000000000E-002     61.528133392333984     
   2.7900000000000008E-002     55.371448516845703     
   2.8200000000000003E-002     47.314929962158203     
   2.8499999999999998E-002     37.967697143554688     
   2.8800000000000006E-002     27.953603744506836     
   2.9100000000000001E-002     17.879201889038086     
   2.9400000000000003E-002     8.2772073745727539     
   2.9700000000000004E-002   -0.40379858016967773     
   3.0000000000000006E-002    -7.8331780433654785     
   3.0300000000000001E-002    -13.799406051635742     
   3.0600000000000002E-002    -18.207061767578125     
   3.0900000000000004E-002    -21.073297500610352     
   3.1199999999999999E-002    -22.501619338989258     
   3.1500000000000007E-002    -22.671264648437500     
   3.1800000000000002E-002    -21.806602478027344     
   3.2099999999999997E-002    -20.157951354980469     
   3.2400000000000005E-002    -17.981084823608398     
   3.2700000000000000E-002    -15.519262313842773     
   3.3000000000000002E-002    -12.989305496215820     
   3.3300000000000003E-002    -10.571947097778320     
   3.3599999999999998E-002    -8.4086723327636719     
   3.3900000000000000E-002    -6.5911898612976074     
   3.4200000000000001E-002    -5.1778006553649902     
   3.4500000000000003E-002    -4.1785826683044434     
   3.4799999999999998E-002    -3.5730583667755127     
   3.5099999999999999E-002    -3.3150091171264648     
   3.5400000000000001E-002    -3.3294572830200195     
   3.5699999999999996E-002    -3.5410645008087158     
   3.6000000000000004E-002    -3.8545892238616943     
   3.6299999999999999E-002    -4.1863126754760742     
   3.6600000000000008E-002    -4.4597296714782715     
   3.6900000000000002E-002    -4.6041226387023926     
   3.7199999999999997E-002    -4.5802507400512695     
   3.7500000000000006E-002    -4.3540043830871582     
   3.7800000000000000E-002    -3.9251060485839844     
   3.8100000000000009E-002    -3.3063232898712158     
   3.8400000000000004E-002    -2.5265474319458008     
   3.8699999999999998E-002    -1.6366250514984131     
   3.9000000000000007E-002   -0.68294197320938110     
   3.9300000000000002E-002    0.27216657996177673     
   3.9600000000000003E-002     1.1776280403137207     
   3.9900000000000005E-002     1.9866355657577515     
   4.0200000000000000E-002     2.6601088047027588     
   4.0500000000000001E-002     3.1769235134124756     
   4.0800000000000003E-002     3.5204670429229736     
   4.1100000000000005E-002     3.6964571475982666     
   4.1399999999999999E-002     3.7133703231811523     
   4.1700000000000008E-002     3.5919902324676514     
   4.2000000000000003E-002     3.3601479530334473     
   4.2299999999999997E-002     3.0433833599090576     
   4.2600000000000006E-002     2.6763796806335449     
   4.2900000000000001E-002     2.2831945419311523     
   4.3200000000000002E-002     1.8943319320678711     
   4.3500000000000004E-002     1.5327391624450684     
   4.3799999999999999E-002     1.2189080715179443     
   4.4100000000000000E-002    0.97440242767333984     
   4.4400000000000002E-002    0.80884742736816406     
   4.4700000000000004E-002    0.73805516958236694     
   4.4999999999999998E-002    0.76629614830017090     
   4.5300000000000000E-002    0.89738428592681885     
   4.5600000000000002E-002     1.1297447681427002     
   4.5899999999999996E-002     1.4523904323577881     
   4.6200000000000005E-002     1.8558822870254517     
   4.6500000000000000E-002     2.3175294399261475     
   4.6799999999999994E-002     2.8146827220916748     
   4.7100000000000003E-002     3.3183743953704834     
   4.7399999999999998E-002     3.7980971336364746     
   4.7700000000000006E-002     4.2239651679992676     
   4.8000000000000001E-002     4.5647740364074707     
   4.8300000000000010E-002     4.7942900657653809     
   4.8600000000000004E-002     4.8866252899169922     
   4.8899999999999999E-002     4.8279190063476562     
   4.9200000000000008E-002     4.6033635139465332     
   4.9500000000000002E-002     4.2102169990539551     
   4.9800000000000011E-002     3.6508018970489502     
   5.0100000000000006E-002     2.9319932460784912     
   5.0400000000000000E-002     2.0764186382293701     
   5.0700000000000009E-002     1.1003174781799316     
   5.1000000000000004E-002     3.9768297225236893E-002
   5.1299999999999998E-002    -1.0723567008972168     
   5.1600000000000007E-002    -2.1969685554504395     
   5.1900000000000002E-002    -3.2838275432586670     
   5.2200000000000010E-002    -4.2978153228759766     
   5.2500000000000005E-002    -5.1866340637207031     
   5.2800000000000000E-002    -5.9158539772033691     
   5.3099999999999994E-002    -6.4529128074645996     
   5.3400000000000003E-002    -6.7677879333496094     
   5.3699999999999998E-002    -6.8564052581787109     
   5.4000000000000006E-002    -6.7098712921142578     
   5.4300000000000001E-002    -6.3468804359436035     
   5.4599999999999996E-002    -5.7916989326477051     
   5.4900000000000004E-002    -5.0764036178588867     
   5.5199999999999999E-002    -4.2506513595581055     
   5.5499999999999994E-002    -3.3566844463348389     
   5.5800000000000002E-002    -2.4492139816284180     
   5.6099999999999997E-002    -1.5745559930801392     
   5.6400000000000006E-002   -0.77388131618499756     
   5.6700000000000000E-002    -8.3640187978744507E-002
   5.6999999999999995E-002    0.47527557611465454     
   5.7300000000000004E-002    0.88836127519607544     
   5.7599999999999998E-002     1.1545919179916382     
   5.7900000000000007E-002     1.2799184322357178     
   5.8200000000000002E-002     1.2820919752120972     
   5.8499999999999996E-002     1.1798812150955200     
   5.8800000000000005E-002     1.0023601055145264     
   5.9100000000000000E-002    0.77634710073471069     
   5.9400000000000008E-002    0.52703028917312622     
   5.9700000000000003E-002    0.28406131267547607     
   6.0000000000000012E-002     6.3779145479202271E-002
   6.0300000000000006E-002   -0.10883692651987076     
   6.0600000000000001E-002   -0.22036983072757721     
   6.0900000000000010E-002   -0.26050788164138794     
   6.1200000000000004E-002   -0.21423466503620148     
   6.1500000000000013E-002    -8.5519850254058838E-002
   6.1800000000000008E-002    0.13511228561401367     
   6.2100000000000002E-002    0.44124573469161987     
   6.2399999999999997E-002    0.82569789886474609     
   6.2700000000000006E-002     1.2828149795532227     
   6.3000000000000000E-002     1.7883375883102417     
   6.3300000000000009E-002     2.3281905651092529     
   6.3600000000000004E-002     2.8703267574310303     
   6.3899999999999998E-002     3.3844959735870361     
   6.4199999999999993E-002     3.8419601917266846     
   6.4500000000000002E-002     4.2044973373413086     
   6.4800000000000010E-002     4.4476423263549805     
   6.5100000000000005E-002     4.5429949760437012     
   6.5400000000000000E-002     4.4776334762573242     
   6.5700000000000008E-002     4.2458529472351074     
   6.5999999999999989E-002     3.8548936843872070     
   6.6299999999999998E-002     3.3250219821929932     
   6.6600000000000006E-002     2.6850247383117676     
   6.6900000000000001E-002     1.9731231927871704     
   6.7199999999999996E-002     1.2276763916015625     
   6.7500000000000004E-002    0.49270093441009521     
   6.7800000000000013E-002   -0.20022627711296082     
   6.8099999999999994E-002   -0.82010000944137573     
   6.8400000000000002E-002    -1.3519983291625977     
   6.8700000000000011E-002    -1.7961620092391968     
   6.8999999999999992E-002    -2.1551871299743652     
   6.9300000000000000E-002    -2.4547076225280762     
   6.9600000000000009E-002    -2.7117984294891357     
   6.9900000000000004E-002    -2.9546697139739990     
   7.0199999999999999E-002    -3.2060143947601318     
   7.0500000000000007E-002    -3.4725637435913086     
   7.0800000000000016E-002    -3.7637727260589600     
   7.1099999999999997E-002    -4.0598077774047852     
   7.1400000000000005E-002    -4.3400645256042480     
   7.1700000000000000E-002    -4.5693087577819824     
   7.1999999999999995E-002    -4.6999435424804688     
   7.2300000000000003E-002    -4.6966905593872070     
   7.2600000000000012E-002    -4.5153365135192871     
   7.2900000000000006E-002    -4.1349539756774902     
   7.3200000000000001E-002    -3.5443882942199707     
   7.3499999999999996E-002    -2.7512588500976562     
   7.3800000000000004E-002    -1.7889848947525024     
   7.4099999999999999E-002   -0.70194548368453979     
   7.4400000000000008E-002    0.44224521517753601     
   7.4700000000000003E-002     1.5721844434738159     
   7.5000000000000011E-002     2.6127638816833496     
   7.5299999999999992E-002     3.4946560859680176     
   7.5600000000000001E-002     4.1600313186645508     
   7.5900000000000009E-002     4.5689449310302734     
   7.6200000000000004E-002     4.7039327621459961     
   7.6499999999999999E-002     4.5661730766296387     
   7.6800000000000007E-002     4.1854572296142578     
   7.7099999999999988E-002     3.6022713184356689     
   7.7399999999999997E-002     2.8763709068298340     
   7.7700000000000005E-002     2.0722239017486572     
   7.8000000000000014E-002     1.2533456087112427     
   7.8299999999999995E-002    0.48577177524566650     
   7.8600000000000003E-002   -0.18526184558868408     
   7.8900000000000012E-002   -0.71497619152069092     
   7.9199999999999993E-002    -1.0822201967239380     
   7.9500000000000001E-002    -1.2785015106201172     
   7.9800000000000010E-002    -1.3034243583679199     
   8.0100000000000018E-002    -1.1803230047225952     
   8.0399999999999999E-002   -0.92740923166275024     
   8.0700000000000008E-002   -0.58095705509185791     
   8.1000000000000003E-002   -0.17363889515399933     
   8.1299999999999997E-002    0.26182806491851807     
   8.1600000000000006E-002    0.68482494354248047     
   8.1900000000000014E-002     1.0704243183135986     
   8.2199999999999995E-002     1.3847501277923584     
   8.2500000000000004E-002     1.6090651750564575     
   8.2799999999999999E-002     1.7264156341552734     
   8.3100000000000007E-002     1.7228361368179321     
   8.3400000000000002E-002     1.5996245145797729     
   8.3700000000000011E-002     1.3557523488998413     
   8.4000000000000005E-002     1.0052374601364136     
   8.4300000000000000E-002    0.56489115953445435     
   8.4599999999999995E-002     5.8528851717710495E-002
   8.4900000000000003E-002   -0.48393398523330688     
   8.5199999999999998E-002    -1.0332928895950317     
   8.5500000000000007E-002    -1.5558211803436279     
   8.5800000000000001E-002    -2.0227396488189697     
   8.6100000000000010E-002    -2.4057686328887939     
   8.6399999999999991E-002    -2.6860103607177734     
   8.6699999999999999E-002    -2.8469572067260742     
   8.7000000000000008E-002    -2.8852441310882568     
   8.7300000000000003E-002    -2.8018271923065186     
   8.7599999999999997E-002    -2.6034624576568604     
   8.7900000000000006E-002    -2.3092350959777832     
   8.8200000000000014E-002    -1.9332311153411865     
   8.8499999999999995E-002    -1.5023642778396606     
   8.8800000000000004E-002    -1.0374621152877808     
   8.9100000000000013E-002   -0.56084585189819336     
   8.9399999999999993E-002    -9.8625630140304565E-002
   8.9700000000000002E-002    0.33810189366340637     
   9.0000000000000011E-002    0.72473305463790894     
   9.0299999999999991E-002     1.0538214445114136     
   9.0600000000000000E-002     1.3155745267868042     
   9.0900000000000009E-002     1.4999828338623047     
   9.1200000000000017E-002     1.6130919456481934     
   9.1499999999999998E-002     1.6475795507431030     
   9.1800000000000007E-002     1.6154571771621704     
   9.2100000000000001E-002     1.5230203866958618     
   9.2399999999999996E-002     1.3786350488662720     
   9.2700000000000005E-002     1.2035923004150391     
   9.3000000000000013E-002     1.0058702230453491     
   9.3300000000000008E-002    0.80760878324508667     
   9.3600000000000003E-002    0.62181532382965088     
   9.3899999999999997E-002    0.46169456839561462     
   9.4200000000000006E-002    0.34236833453178406     
   9.4500000000000001E-002    0.26717594265937805     
   9.4800000000000009E-002    0.24177396297454834     
   9.5100000000000004E-002    0.26389664411544800     
   9.5399999999999999E-002    0.32696136832237244     
   9.5699999999999993E-002    0.42210710048675537     
   9.6000000000000002E-002    0.53694909811019897     
   9.6300000000000011E-002    0.65698516368865967     
   9.6600000000000005E-002    0.76950138807296753     
   9.6900000000000000E-002    0.86021894216537476     
   9.7200000000000009E-002    0.91611039638519287     
   9.7499999999999989E-002    0.93252676725387573     
   9.7799999999999998E-002    0.89706027507781982     
   9.8100000000000007E-002    0.81212007999420166     
   9.8400000000000015E-002    0.67512434720993042     
   9.8699999999999996E-002    0.48511400818824768     
   9.9000000000000005E-002    0.25260728597640991     
   9.9300000000000013E-002    -2.4620898067951202E-002
   9.9599999999999994E-002   -0.33281907439231873     
   9.9900000000000003E-002   -0.66626054048538208     
  0.10020000000000001         -1.0166219472885132     
  0.10049999999999999         -1.3657264709472656     
  0.10080000000000000         -1.7100735902786255     
  0.10110000000000001         -2.0291125774383545     
  0.10140000000000000         -2.3108522891998291     
  0.10170000000000000         -2.5421581268310547     
  0.10200000000000001         -2.7046289443969727     
  0.10230000000000002         -2.7913794517517090     
  0.10260000000000000         -2.7888395786285400     
  0.10290000000000001         -2.6925208568572998     
  0.10320000000000000         -2.5013296604156494     
  0.10350000000000001         -2.2165515422821045     
  0.10380000000000000         -1.8482708930969238     
  0.10410000000000001         -1.4082062244415283     
  0.10440000000000001        -0.91262322664260864     
  0.10470000000000000        -0.38192862272262573     
  0.10500000000000000         0.16034448146820068     
  0.10530000000000000         0.69528198242187500     
  0.10560000000000000          1.1968425512313843     
  0.10590000000000001          1.6489390134811401     
  0.10620000000000000          2.0340321063995361     
  0.10650000000000001          2.3351659774780273     
  0.10679999999999999          2.5508534908294678     
  0.10710000000000000          2.6675591468811035     
  0.10740000000000001          2.6914417743682861     
  0.10770000000000000          2.6250512599945068     
  0.10800000000000000          2.4719836711883545     
  0.10830000000000001          2.2523977756500244     
  0.10859999999999999          1.9695531129837036     
  0.10890000000000000          1.6471505165100098     
  0.10920000000000001          1.3002295494079590     
  0.10950000000000001         0.94363564252853394     
  0.10979999999999999         0.60339957475662231     
  0.11009999999999999         0.28729814291000366     
  0.11040000000000001          1.6164809465408325E-002
  0.11070000000000001        -0.20055997371673584     
  0.11100000000000000        -0.35613873600959778     
  0.11130000000000000        -0.44272246956825256     
  0.11160000000000002        -0.46504661440849304     
  0.11190000000000001        -0.42536520957946777     
  0.11220000000000001        -0.33376163244247437     
  0.11250000000000000        -0.20332314074039459     
  0.11280000000000000         -4.9062270671129227E-002
  0.11309999999999999         0.11426348984241486     
  0.11340000000000001         0.26845026016235352     
  0.11369999999999998         0.39951592683792114     
  0.11400000000000000         0.49507150053977966     
  0.11430000000000000         0.54089611768722534     
  0.11460000000000002         0.53686684370040894     
  0.11489999999999999         0.47256591916084290     
  0.11520000000000001         0.35209956765174866     
  0.11550000000000001         0.17900295555591583     
  0.11580000000000000         -4.7066856175661087E-002
  0.11609999999999999        -0.30915135145187378     
  0.11640000000000002        -0.60707288980484009     
  0.11670000000000001        -0.92483884096145630     
  0.11700000000000001         -1.2507715225219727     
  0.11730000000000000         -1.5777919292449951     
  0.11760000000000000         -1.8843044042587280     
  0.11789999999999999         -2.1657462120056152     
  0.11820000000000001         -2.4027948379516602     
  0.11850000000000001         -2.5832612514495850     
  0.11880000000000000         -2.6988039016723633     
  0.11910000000000000         -2.7337999343872070     
  0.11940000000000002         -2.6854536533355713     
  0.11970000000000001         -2.5478136539459229     
  0.12000000000000001         -2.3211419582366943     
  0.12030000000000000         -2.0106937885284424     
  0.12060000000000000         -1.6242725849151611     
  0.12089999999999999         -1.1752516031265259     
  0.12119999999999999        -0.68140155076980591     
  0.12150000000000001        -0.16176360845565796     
  0.12180000000000001         0.36547428369522095     
  0.12210000000000000         0.87538337707519531     
  0.12239999999999999          1.3542673587799072     
  0.12270000000000002          1.7799510955810547     
  0.12300000000000001          2.1388223171234131     
  0.12330000000000001          2.4244947433471680     
  0.12360000000000000          2.6216568946838379     
  0.12390000000000000          2.7375431060791016     
  0.12419999999999999          2.7639315128326416     
  0.12450000000000001          2.7076506614685059     
  0.12480000000000001          2.5802488327026367     
  0.12509999999999999          2.3800842761993408     
  0.12540000000000001          2.1309556961059570     
  0.12570000000000003          1.8359262943267822     
  0.12600000000000000          1.5128155946731567     
  0.12630000000000002          1.1791812181472778     
  0.12659999999999999         0.84155660867691040     
  0.12690000000000001         0.52321112155914307     
  0.12719999999999998         0.22918702661991119     
  0.12750000000000000         -2.6503376662731171E-002
  0.12780000000000002        -0.23465329408645630     
  0.12809999999999999        -0.39404582977294922     
  0.12840000000000001        -0.49919432401657104     
  0.12869999999999998        -0.55385500192642212     
  0.12900000000000000        -0.56217169761657715     
  0.12930000000000003        -0.53182297945022583     
  0.12959999999999999        -0.47040092945098877     
  0.12990000000000002        -0.39082574844360352     
  0.13019999999999998        -0.29934412240982056     
  0.13050000000000000        -0.20842628180980682     
  0.13080000000000003        -0.12632386386394501     
  0.13109999999999999         -5.5385667830705643E-002
  0.13140000000000002         -9.3022463843226433E-003
  0.13169999999999998          1.8466902896761894E-002
  0.13200000000000001          1.9386501982808113E-002
  0.13229999999999997         -6.8252971395850182E-003
  0.13260000000000000         -5.4275672882795334E-002
  0.13290000000000002        -0.13337320089340210     
  0.13319999999999999        -0.23105819523334503     
  0.13350000000000001        -0.35369247198104858     
  0.13380000000000003        -0.49732333421707153     
  0.13410000000000000        -0.65228879451751709     
  0.13440000000000002        -0.82374191284179688     
  0.13469999999999999        -0.99451112747192383     
  0.13500000000000001         -1.1639987230300903     
  0.13529999999999998         -1.3211898803710938     
  0.13560000000000000         -1.4536900520324707     
  0.13590000000000002         -1.5579307079315186     
  0.13619999999999999         -1.6196280717849731     
  0.13650000000000001         -1.6363040208816528     
  0.13680000000000003         -1.6021990776062012     
  0.13710000000000000         -1.5163602828979492     
  0.13740000000000002         -1.3808494806289673     
  0.13769999999999999         -1.2007027864456177     
  0.13800000000000001        -0.98275488615036011     
  0.13829999999999998        -0.73675376176834106     
  0.13860000000000000        -0.47552901506423950     
  0.13890000000000002        -0.20491077005863190     
  0.13919999999999999          5.6115619838237762E-002
  0.13950000000000001         0.30493050813674927     
  0.13979999999999998         0.52915018796920776     
  0.14010000000000000         0.71905416250228882     
  0.14040000000000002         0.87821280956268311     
  0.14069999999999999         0.99114435911178589     
  0.14100000000000001          1.0678976774215698     
  0.14130000000000004          1.1025652885437012     
  0.14160000000000000          1.0960094928741455     
  0.14189999999999997          1.0612123012542725     
  0.14219999999999999         0.99078828096389771     
  0.14250000000000002         0.90490496158599854     
  0.14279999999999998         0.80379033088684082     
  0.14310000000000000         0.69714760780334473     
  0.14339999999999997         0.59962743520736694     
  0.14369999999999999         0.51094585657119751     
  0.14400000000000002         0.44816637039184570     
  0.14429999999999998         0.41006749868392944     
  0.14460000000000001         0.40324625372886658     
  0.14490000000000003         0.42851024866104126     
  0.14520000000000000         0.48133993148803711     
  0.14550000000000002         0.56074035167694092     
  0.14579999999999999         0.65648621320724487     
  0.14610000000000001         0.76471853256225586     
  0.14640000000000003         0.87183052301406860     
  0.14670000000000000         0.97433876991271973     
  0.14699999999999996          1.0602627992630005     
  0.14729999999999999          1.1247196197509766     
  0.14760000000000001          1.1656079292297363     
  0.14789999999999998          1.1724331378936768     
  0.14820000000000000          1.1542583703994751     