  -1.4999999999999999E-002     0.0000000000000000     
  -1.4700000000000000E-002    -1.4272577920675406E-039
  -1.4400000000000000E-002    -3.3351578422175234E-031
  -1.4100000000000000E-002    -3.1274840935635383E-027
  -1.3800000000000000E-002    -5.5727260039771346E-025
  -1.3500000000000000E-002     4.7326169041726008E-023
  -1.3200000000000000E-002     1.5130919276530249E-021
  -1.2899999999999998E-002    -1.3848529676941375E-020
  -1.2600000000000000E-002    -1.3527806554164597E-019
  -1.2299999999999998E-002     7.2524985417964027E-019
  -1.2000000000000000E-002     3.8509977463131335E-018
  -1.1699999999999999E-002    -1.1077671384051183E-017
  -1.1399999999999999E-002    -4.8954178297421610E-017
  -1.1099999999999999E-002    -1.1697770730959353E-016
  -1.0799999999999999E-002     7.4847891986294418E-016
  -1.0499999999999999E-002     5.6888527201373758E-015
  -1.0199999999999999E-002    -2.4599098336971227E-014
  -9.8999999999999991E-003    -1.8040241231560550E-014
  -9.5999999999999992E-003     2.3310031469018530E-013
  -9.2999999999999992E-003    -4.1464096861824876E-013
  -8.9999999999999993E-003     6.5581923333459378E-014
  -8.6999999999999994E-003     1.3344639712492588E-012
  -8.3999999999999995E-003    -4.5773520712888050E-012
  -8.0999999999999996E-003     6.7934202436315156E-012
  -7.7999999999999988E-003     1.2929845546152948E-012
  -7.4999999999999997E-003    -1.6507993323508274E-011
  -7.1999999999999998E-003     1.7801443487950614E-011
  -6.8999999999999981E-003    -1.2734195504372541E-011
  -6.5999999999999982E-003     2.7021709132602789E-011
  -6.3000000000000000E-003    -2.4829669146039296E-011
  -6.0000000000000001E-003    -6.0785043906489467E-011
  -5.6999999999999985E-003     2.1801608947466999E-010
  -5.3999999999999986E-003    -1.8785087420729420E-010
  -5.1000000000000004E-003    -4.0213935504472497E-010
  -4.7999999999999987E-003     9.7272485411466336E-010
  -4.5000000000000005E-003    -4.3678614704235917E-012
  -4.1999999999999989E-003    -2.2578048328676776E-009
  -3.8999999999999990E-003     2.5569917611639447E-009
  -3.5999999999999990E-003     1.9250130411939319E-009
  -3.2999999999999991E-003    -7.0024289443634348E-009
  -2.9999999999999992E-003     1.9774052569605257E-009
  -2.6999999999999993E-003     1.0447742794212581E-008
  -2.3999999999999994E-003    -6.8058565842285762E-009
  -2.0999999999999977E-003    -1.6734838655927533E-008
  -1.7999999999999995E-003     2.0556904853809488E-008
  -1.4999999999999979E-003     2.6990346976779168E-008
  -1.1999999999999997E-003    -7.7247186380465141E-008
  -8.9999999999999976E-004     4.6939631334139893E-010
  -5.9999999999999810E-004     2.2161758420499465E-007
  -2.9999999999999992E-004    -2.0435044284501184E-007
   0.0000000000000000         -4.9922718092251983E-007
   3.0000000000000165E-004     9.7380804813781509E-007
   5.9999999999999984E-004     9.7560522562477767E-007
   9.0000000000000149E-004    -3.4508320726424249E-006
   1.2000000000000031E-003    -2.1915182409630081E-006
   1.5000000000000013E-003     1.0219535649879762E-005
   1.8000000000000030E-003     6.8555729908644807E-006
   2.1000000000000012E-003    -2.6135973334463368E-005
   2.3999999999999994E-003    -2.5719898393175068E-005
   2.7000000000000010E-003     7.4140837925856188E-005
   2.9999999999999992E-003     2.2237828023554426E-004
   3.3000000000000008E-003     3.2372045905024833E-004
   3.6000000000000025E-003     4.1096582461922198E-004
   3.9000000000000007E-003     6.2616850492863002E-004
   4.2000000000000023E-003     1.0509927347399518E-003
   4.5000000000000005E-003     1.6768263296363800E-003
   4.7999999999999987E-003     2.5502666830688053E-003
   5.1000000000000004E-003     3.8387811084121259E-003
   5.4000000000000020E-003     5.7605597626805144E-003
   5.7000000000000037E-003     8.5657354612221209E-003
   5.9999999999999984E-003     1.2586871624109292E-002
   6.3000000000000000E-003     1.8241039720963359E-002
   6.6000000000000017E-003     2.6004960033404689E-002
   6.9000000000000034E-003     3.6480100654603609E-002
   7.2000000000000015E-003     5.0462384738860999E-002
   7.5000000000000032E-003     6.8838841124674310E-002
   7.8000000000000014E-003     9.2459496447879763E-002
   8.0999999999999996E-003    0.12216252499893443     
   8.4000000000000012E-003    0.15878575974887132     
   8.7000000000000029E-003    0.20296628652542426     
   9.0000000000000011E-003    0.25484644078744267     
   9.2999999999999992E-003    0.31397082177283675     
   9.6000000000000009E-003    0.37922430526981366     
   9.8999999999999991E-003    0.44850698986193294     
   1.0200000000000001E-002    0.51840103329314502     
   1.0500000000000002E-002    0.58404593666527127     
   1.0800000000000004E-002    0.63913934571913522     
   1.1099999999999999E-002    0.67598097892154030     
   1.1400000000000000E-002    0.68565883664359717     
   1.1700000000000002E-002    0.65847089155087346     
   1.2000000000000004E-002    0.58441735319347643     
   1.2300000000000002E-002    0.45397481146801510     
   1.2600000000000000E-002    0.25929588507176593     
   1.2900000000000002E-002    -4.6648090498608852E-003
   1.3200000000000000E-002   -0.33915385713101287     
   1.3500000000000002E-002   -0.74072046818524218     
   1.3800000000000003E-002    -1.2004442734324652     
   1.4100000000000001E-002    -1.7034252746376879     
   1.4400000000000000E-002    -2.2288719407249289     
   1.4700000000000001E-002    -2.7507556220887253     
   1.4999999999999999E-002    -3.2391473932227157     
   1.5300000000000001E-002    -3.6621241487416398     
   1.5600000000000003E-002    -3.9879304213294944     
   1.5899999999999997E-002    -4.1877054079509861     
   1.6199999999999999E-002    -4.2381726973174096     
   1.6500000000000001E-002    -4.1238044958657554     
   1.6800000000000002E-002    -3.8385772212463394     
   1.7100000000000004E-002    -3.3871838531490397     
   1.7400000000000006E-002    -2.7851069602391334     
   1.7700000000000000E-002    -2.0577605269026478     
   1.8000000000000002E-002    -1.2383663451775675     
   1.8300000000000004E-002   -0.36550432655526777     
   1.8600000000000005E-002    0.52012475035282435     
   1.8900000000000000E-002     1.3793404941176437     
   1.9200000000000002E-002     2.1776310314933234     
   1.9500000000000003E-002     2.8879610715400830     
   1.9799999999999998E-002     3.4925488913380178     
   2.0100000000000000E-002     3.9836216801634947     
   2.0400000000000001E-002     4.3634525147111844     
   2.0700000000000003E-002     4.6429464393748106     
   2.0999999999999998E-002     4.8393189637979503     
   2.1299999999999999E-002     4.9734372533975773     
   2.1600000000000001E-002     5.0670215818067561     
   2.1900000000000003E-002     5.1400975948782843     
   2.2200000000000004E-002     5.2083154286509057     
   2.2500000000000006E-002     5.2811316573634031     
   2.2800000000000001E-002     5.3612529291598321     
   2.3100000000000002E-002     5.4445748280496886     
   2.3400000000000004E-002     5.5205499264298439     
   2.3699999999999999E-002     5.5725938755266782     
   2.4000000000000000E-002     5.5795178446925036     
   2.4300000000000002E-002     5.5174115898763887     
   2.4599999999999997E-002     5.3607921909923846     
   2.4900000000000005E-002     5.0829932394436241     
   2.5200000000000000E-002     4.6577915980869875     
   2.5499999999999995E-002     4.0618220426241862     
   2.5800000000000003E-002     3.2756862325748273     
   2.6099999999999998E-002     2.2851390162225371     
   2.6400000000000007E-002     1.0840645175054204     
   2.6700000000000002E-002   -0.32228028852939872     
   2.6999999999999996E-002    -1.9153457464661443     
   2.7300000000000005E-002    -3.6607193375192821     
   2.7600000000000000E-002    -5.5072501465521668     
   2.7900000000000008E-002    -7.3866434156237801     
   2.8200000000000003E-002    -9.2145418539504647     
   2.8499999999999998E-002    -10.895037632369579     
   2.8800000000000006E-002    -12.326598677039414     
   2.9100000000000001E-002    -13.408610483843376     
   2.9400000000000003E-002    -14.049860531050342     
   2.9700000000000004E-002    -14.178178772925207     
   3.0000000000000006E-002    -13.748885379391595     
   3.0300000000000001E-002    -12.750530539038778     
   3.0600000000000002E-002    -11.209122082351655     
   3.0900000000000004E-002    -9.1894804589701380     
   3.1199999999999999E-002    -6.7923316560491003     
   3.1500000000000007E-002    -4.1472331513344187     
   3.1800000000000002E-002    -1.4037704382127423     
   3.2099999999999997E-002     1.2799549824917591     
   3.2400000000000005E-002     3.7502396833519924     
   3.2700000000000000E-002     5.8700290544089455     
   3.3000000000000002E-002     7.5295690736287924     
   3.3300000000000003E-002     8.6544067241229925     
   3.3599999999999998E-002     9.2104587017858535     
   3.3900000000000000E-002     9.2044377074439012     
   3.4200000000000001E-002     8.6812033658892176     
   3.4500000000000003E-002     7.7185667032672995     
   3.4799999999999998E-002     6.4180488770901434     
   3.5099999999999999E-002     4.8960140524550724     
   3.5400000000000001E-002     3.2723913130367634     
   3.5699999999999996E-002     1.6621396010356904     
   3.6000000000000004E-002    0.16782935884443972     
   3.6299999999999999E-002    -1.1277179757056075     
   3.6600000000000008E-002    -2.1656944449000122     
   3.6900000000000002E-002    -2.9107828977507779     
   3.7199999999999997E-002    -3.3512427619824692     
   3.7500000000000006E-002    -3.4976877965676509     
   3.7800000000000000E-002    -3.3781809792866113     
   3.8100000000000009E-002    -3.0335717354289500     
   3.8400000000000004E-002    -2.5116673362441091     
   3.8699999999999998E-002    -1.8619524571574146     
   3.9000000000000007E-002    -1.1301761280261085     
   3.9300000000000002E-002   -0.35320615329092320     
   3.9600000000000003E-002    0.44478066958154727     
   3.9900000000000005E-002     1.2554530830518189     
   4.0200000000000000E-002     2.0873419459660028     
   4.0500000000000001E-002     2.9626214042210961     
   4.0800000000000003E-002     3.9150346470818818     
   4.1100000000000005E-002     4.9843579795814748     
   4.1399999999999999E-002     6.2058244155580731     
   4.1700000000000008E-002     7.6017290884632303     
   4.2000000000000003E-002     9.1719590110699158     
   4.2299999999999997E-002     10.882487957007072     
   4.2600000000000006E-002     12.660049204155939     
   4.2900000000000001E-002     14.389332331469234     
   4.3200000000000002E-002     15.913135590569624     
   4.3500000000000004E-002     17.041706629532655     
   4.3799999999999999E-002     17.565726870527840     
   4.4100000000000000E-002     17.275861976193028     
   4.4400000000000002E-002     15.986169180273293     
   4.4700000000000004E-002     13.556646434399454     
   4.4999999999999998E-002     9.9188419102567309     
   4.5300000000000000E-002     5.0944031731594350     
   4.5600000000000002E-002   -0.79396948647436716     
   4.5899999999999996E-002    -7.5164358524536965     
   4.6200000000000005E-002    -14.745290104012724     
   4.6500000000000000E-002    -22.071928587270236     
   4.6799999999999994E-002    -29.032846248099020     
   4.7100000000000003E-002    -35.147278609791641     
   4.7399999999999998E-002    -39.955496702338394     
   4.7700000000000006E-002    -43.056718361249722     
   4.8000000000000001E-002    -44.148473548167374     
   4.8300000000000010E-002    -43.055278951133232     
   4.8600000000000004E-002    -39.746784773012223     
   4.8899999999999999E-002    -34.345829568234421     
   4.9200000000000008E-002    -27.121119416137617     
   4.9500000000000002E-002    -18.469400563036970     
   4.9800000000000011E-002    -8.8847065956410773     
   5.0100000000000006E-002     1.0796901657373610     
   5.0400000000000000E-002     10.850743449567744     
   5.0700000000000009E-002     19.882423106381452     
   5.1000000000000004E-002     27.694048727799327     
   5.1299999999999998E-002     33.898699342319219     
   5.1600000000000007E-002     38.230839838309635     
   5.1900000000000002E-002     40.558411532184437     
   5.2200000000000010E-002     40.882737008389498     
   5.2500000000000005E-002     39.328844767026681     
   5.2800000000000000E-002     36.125931621698783     
   5.3099999999999994E-002     31.585398666223568     
   5.3400000000000003E-002     26.069729404881514     
   5.3699999999999998E-002     19.960758594915887     
   5.4000000000000006E-002     13.634478970938602     
   5.4300000000000001E-002     7.4350794611002726     
   5.4599999999999996E-002     1.6551128826269377     
   5.4900000000000004E-002    -3.4749741434148973     
   5.5199999999999999E-002    -7.7951574256247227     
   5.5499999999999994E-002    -11.213343707851948     
   5.5800000000000002E-002    -13.701401721461650     
   5.6099999999999997E-002    -15.287334422235574     
   5.6400000000000006E-002    -16.041031989369174     
   5.6700000000000000E-002    -16.064798227490400     
   5.6999999999999995E-002    -15.480686246071969     
   5.7300000000000004E-002    -14.418953165450716     
   5.7599999999999998E-002    -13.011079521996407     
   5.7900000000000007E-002    -11.381030691245201     
   5.8200000000000002E-002    -9.6400094370164027     
   5.8499999999999996E-002    -7.8857215257805251     
   5.8800000000000005E-002    -6.1991756874885766     
   5.9100000000000000E-002    -4.6435167154235586     
   5.9400000000000008E-002    -3.2641940556162865     
   5.9700000000000003E-002    -2.0912090504274516     
   6.0000000000000012E-002    -1.1393168754387126     
   6.0300000000000006E-002   -0.40920169878680235     
   6.0600000000000001E-002    0.11104228470879463     
   6.0900000000000010E-002    0.44240726781902850     
   6.1200000000000004E-002    0.61290475060531335     
   6.1500000000000013E-002    0.65729121887823538     
   6.1800000000000008E-002    0.61138449685395102     
   6.2100000000000002E-002    0.51127457329831216     
   6.2399999999999997E-002    0.39182118228162843     
   6.2700000000000006E-002    0.28262091207823481     
   6.3000000000000000E-002    0.20947402536475934     
   6.3300000000000009E-002    0.19163057162490027     
   6.3600000000000004E-002    0.24129833340201401     
   6.3899999999999998E-002    0.36570075376647537     
   6.4199999999999993E-002    0.56450391468080596     
   6.4500000000000002E-002    0.83266132168048301     
   6.4800000000000010E-002     1.1604727232083647     
   6.5100000000000005E-002     1.5318042238251977     
   6.5400000000000000E-002     1.9280671629793176     
   6.5700000000000008E-002     2.3274925451216717     
   6.5999999999999989E-002     2.7057992512110047     
   6.6299999999999998E-002     3.0384008608419180     
   6.6600000000000006E-002     3.3007773798984914     
   6.6900000000000001E-002     3.4714713338545380     
   6.7199999999999996E-002     3.5339342162440346     
   6.7500000000000004E-002     3.4767682684915258     
   6.7800000000000013E-002     3.2963139058281570     
   6.8099999999999994E-002     2.9969951159432497     
   6.8400000000000002E-002     2.5916059623226602     
   6.8700000000000011E-002     2.1002856905673326     
   6.8999999999999992E-002     1.5481154186974990     
   6.9300000000000000E-002    0.96439161995206035     
   6.9600000000000009E-002    0.38008335547456973     
   6.9900000000000004E-002   -0.17664023120982186     
   7.0199999999999999E-002   -0.68164276209916963     
   7.0500000000000007E-002    -1.1158610991162874     
   7.0800000000000016E-002    -1.4672367569418761     
   7.1099999999999997E-002    -1.7311540696617840     
   7.1400000000000005E-002    -1.9093913887333329     
   7.1700000000000000E-002    -2.0083748674717867     
   7.1999999999999995E-002    -2.0373835397096443     
   7.2300000000000003E-002    -2.0073774426952227     
   7.2600000000000012E-002    -1.9278952715877224     
   7.2900000000000006E-002    -1.8067494096355787     
   7.3200000000000001E-002    -1.6492871826185151     
   7.3499999999999996E-002    -1.4564580565485201     
   7.3800000000000004E-002    -1.2282254448907075     
   7.4099999999999999E-002   -0.96390067468104945     
   7.4400000000000008E-002   -0.66169942408527405     
   7.4700000000000003E-002   -0.32296289698074609     
   7.5000000000000011E-002     4.7209702111145058E-002
   7.5299999999999992E-002    0.43983168786528992     
   7.5600000000000001E-002    0.84156814316810724     
   7.5900000000000009E-002     1.2341708654458046     
   7.6200000000000004E-002     1.5952051768764690     
   7.6499999999999999E-002     1.9017118912731945     
   7.6800000000000007E-002     2.1311443798686724     
   7.7099999999999988E-002     2.2617437530914515     
   7.7399999999999997E-002     2.2767760573394042     
   7.7700000000000005E-002     2.1657780597907532     
   7.8000000000000014E-002     1.9250027226772559     
   7.8299999999999995E-002     1.5593690533775160     
   7.8600000000000003E-002     1.0818946026938008     
   7.8900000000000012E-002    0.51265586638944782     
   7.9199999999999993E-002   -0.12075247355688190     
   7.9500000000000001E-002   -0.78532697673810503     
   7.9800000000000010E-002    -1.4464560984488912     
   8.0100000000000018E-002    -2.0678090069855699     
   8.0399999999999999E-002    -2.6140479236194807     
   8.0700000000000008E-002    -3.0532358418266057     
   8.1000000000000003E-002    -3.3595285542935187     
   8.1299999999999997E-002    -3.5150882653820616     
   8.1600000000000006E-002    -3.5089546467117430     
   8.1900000000000014E-002    -3.3400334953016966     
   8.2199999999999995E-002    -3.0178819133750352     
   8.2500000000000004E-002    -2.5593399911993231     
   8.2799999999999999E-002    -1.9904400799796989     
   8.3100000000000007E-002    -1.3437108915926146     
   8.3400000000000002E-002   -0.65518031064760152     
   8.3700000000000011E-002     3.5596950079918699E-002
   8.4000000000000005E-002    0.69075214592593115     
   8.4300000000000000E-002     1.2752532210511305     
   8.4599999999999995E-002     1.7588321262954949     
   8.4900000000000003E-002     2.1201373575069127     
   8.5199999999999998E-002     2.3459932331293558     
   8.5500000000000007E-002     2.4328707709083233     
   8.5800000000000001E-002     2.3878787353785498     
   8.6100000000000010E-002     2.2258427531644429     
   8.6399999999999991E-002     1.9699468478505082     
   8.6699999999999999E-002     1.6475991310446574     
   8.7000000000000008E-002     1.2877243789986395     
   8.7300000000000003E-002    0.92019504160519006     
   8.7599999999999997E-002    0.57069486079490162     
   8.7900000000000006E-002    0.25913352439533988     
   8.8200000000000014E-002    -9.8389279970712007E-004
   8.8499999999999995E-002   -0.20392417077833880     
   8.8800000000000004E-002   -0.35032381475537289     
   8.9100000000000013E-002   -0.44697062690119438     
   8.9399999999999993E-002   -0.50526006983584537     
   8.9700000000000002E-002   -0.53647359141133322     
   9.0000000000000011E-002   -0.55044515742363487     
   9.0299999999999991E-002   -0.55503660727434934     
   9.0600000000000000E-002   -0.55267112688127185     
   9.0900000000000009E-002   -0.53915789443466267     
   9.1200000000000017E-002   -0.50564170493725857     
   9.1499999999999998E-002   -0.43967418322694307     
   9.1800000000000007E-002   -0.32709810013968088     
   9.2100000000000001E-002   -0.15520788927220597     
   9.2399999999999996E-002     8.4667633316816371E-002
   9.2700000000000005E-002    0.39308194244180150     
   9.3000000000000013E-002    0.76174995326664785     
   9.3300000000000008E-002     1.1724535062961507     
   9.3600000000000003E-002     1.5957535897730395     
   9.3899999999999997E-002     1.9958650127887196     
   9.4200000000000006E-002     2.3317823653903815     
   9.4500000000000001E-002     2.5607934852378662     
   9.4800000000000009E-002     2.6466887834273649     
   9.5100000000000004E-002     2.5609247582595671     
   9.5399999999999999E-002     2.2885786172323037     
   9.5699999999999993E-002     1.8319999897255386     
   9.6000000000000002E-002     1.2096647638012605     
   9.6300000000000011E-002    0.45818179280575078     
   9.6600000000000005E-002   -0.37231140140093189     
   9.6900000000000000E-002    -1.2211954121628104     
   9.7200000000000009E-002    -2.0227228384417799     
   9.7499999999999989E-002    -2.7154884582960053     
   9.7799999999999998E-002    -3.2452201588245124     
   9.8100000000000007E-002    -3.5708166253252429     
   9.8400000000000015E-002    -3.6709318285235000     
   9.8699999999999996E-002    -3.5438242344977482     
   9.9000000000000005E-002    -3.2074471974856067     
   9.9300000000000013E-002    -2.6978086492925826     
   9.9599999999999994E-002    -2.0662452107899085     
   9.9900000000000003E-002    -1.3719294671246338     
  0.10020000000000001        -0.67581769580684536     
  0.10049999999999999         -3.6185035559768153E-002
  0.10080000000000000         0.49755476234517815     
  0.10110000000000001         0.89004923167243177     
  0.10140000000000000          1.1227444078743289     
  0.10170000000000000          1.1918706449536636     
  0.10200000000000001          1.1101933487804416     
  0.10230000000000002         0.90582830359525346     
  0.10260000000000000         0.61442414148944113     
  0.10290000000000001         0.27746026709237892     
  0.10320000000000000         -6.1726292935158966E-002
  0.10350000000000001        -0.36392628280142247     
  0.10380000000000000        -0.59571529942981272     
  0.10410000000000001        -0.73431134438560264     
  0.10440000000000001        -0.76644959638955612     
  0.10470000000000000        -0.69041826054462874     
  0.10500000000000000        -0.51611738137330576     
  0.10530000000000000        -0.25996339448675965     
  0.10560000000000000          5.3058719045049330E-002
  0.10590000000000001         0.39329366950567035     
  0.10620000000000000         0.73150319138929731     
  0.10650000000000001          1.0386249363192910     
  0.10679999999999999          1.2891957892397166     
  0.10710000000000000          1.4628386250533385     
  0.10740000000000001          1.5465128046018561     
  0.10770000000000000          1.5360446535325054     
  0.10800000000000000          1.4332058334258635     
  0.10830000000000001          1.2484789461284436     
  0.10859999999999999         0.99897490297308877     
  0.10890000000000000         0.70666610004554542     
  0.10920000000000001         0.39656741843719701     
  0.10950000000000001          9.4022599616934599E-002
  0.10979999999999999        -0.17579100863184927     
  0.11009999999999999        -0.39200217576202157     
  0.11040000000000001        -0.53865534132777348     
  0.11070000000000001        -0.60585727770447217     
  0.11100000000000000        -0.59165214411381639     
  0.11130000000000000        -0.50035181942271745     
  0.11160000000000002        -0.34386045177256541     
  0.11190000000000001        -0.13809838601858182     
  0.11220000000000001          9.7242417052874508E-002
  0.11250000000000000         0.33949562152590751     
  0.11280000000000000         0.56851435951930185     
  0.11309999999999999         0.76500984100292868     
  0.11340000000000001         0.91386791952463753     
  0.11369999999999998          1.0052073646618851     
  0.11400000000000000          1.0328233942320395     
  0.11430000000000000         0.99711431345226487     
  0.11460000000000002         0.90202971251606456     
  0.11489999999999999         0.75513273193503849     
  0.11520000000000001         0.56649173678061615     
  0.11550000000000001         0.34624224643845736     
  0.11580000000000000         0.10606187044485127     
  0.11609999999999999        -0.14390395578712178     
  0.11640000000000002        -0.39538912180002050     
  0.11670000000000001        -0.64077213951158640     
  0.11700000000000001        -0.87442416110060606     
  0.11730000000000000         -1.0916280686120174     
  0.11760000000000000         -1.2885767411263487     
  0.11789999999999999         -1.4619361946580369     
  0.11820000000000001         -1.6087013492163038     
  0.11850000000000001         -1.7253266123873630     
  0.11880000000000000         -1.8076919175103825     
  0.11910000000000000         -1.8523471812089412     
  0.11940000000000002         -1.8554071432848218     
  0.11970000000000001         -1.8138127646395006     
  0.12000000000000001         -1.7246653414117716     
  0.12030000000000000         -1.5863799614870260     
  0.12060000000000000         -1.3999304962370331     
  0.12089999999999999         -1.1668232441753830     
  0.12119999999999999        -0.89091809466638239     
  0.12150000000000001        -0.57866325517484185     
  0.12180000000000001        -0.23779317542515521     
  0.12210000000000000         0.12082426267821189     
  0.12239999999999999         0.48593215942271684     
  0.12270000000000002         0.84520636410169914     
  0.12300000000000001          1.1839308131600887     
  0.12330000000000001          1.4889216035332282     
  0.12360000000000000          1.7473879097131118     
  0.12390000000000000          1.9482934800462743     
  0.12419999999999999          2.0826754675169212     
  0.12450000000000001          2.1440639222456497     
  0.12480000000000001          2.1303564353107021     
  0.12509999999999999          2.0431215006482404     
  0.12540000000000001          1.8875699409819546     
  0.12570000000000003          1.6730481049087444     
  0.12600000000000000          1.4115771653456619     
  0.12630000000000002          1.1178043935292692     
  0.12659999999999999         0.80747525259114283     
  0.12690000000000001         0.49673183517865738     
  0.12719999999999998         0.19981765467961576     
  0.12750000000000000         -7.0667941967536008E-002
  0.12780000000000002        -0.30458938686652104     
  0.12809999999999999        -0.49634995970366447     
  0.12840000000000001        -0.64296341862932493     
  0.12869999999999998        -0.74621335668711453     
  0.12900000000000000        -0.80959504090955292     
  0.12930000000000003        -0.83814569961545260     
  0.12959999999999999        -0.83969571511840613     
  0.12990000000000002        -0.82013763017093311     
  0.13019999999999998        -0.78483649548623191     
  0.13050000000000000        -0.73781072794253788     
  0.13080000000000003        -0.68065910577801247     
  0.13109999999999999        -0.61384079448396989     
  0.13140000000000002        -0.53513455260524800     
  0.13169999999999998        -0.44179052317835144     
  0.13200000000000001        -0.33239631161867145     
  0.13229999999999997        -0.20582212634781172     
  0.13260000000000000         -6.2878278287760381E-002
  0.13290000000000002          9.2861917004874339E-002
  0.13319999999999999         0.25447748360873135     
  0.13350000000000001         0.41307213108165186     
  0.13380000000000003         0.55710801522319642     
  0.13410000000000000         0.67455586057839056     
  0.13440000000000002         0.75289603559738794     
  0.13469999999999999         0.78055030315402973     
  0.13500000000000001         0.75025425920382105     
  0.13529999999999998         0.65664437170193324     
  0.13560000000000000         0.49940370355504982     
  0.13590000000000002         0.28351709093154120     
  0.13619999999999999          1.6965190500227711E-002
  0.13650000000000001        -0.28665630206523485     
  0.13680000000000003        -0.61088079802645723     
  0.13710000000000000        -0.93769258927024524     
  0.13740000000000002         -1.2467195491612060     
  0.13769999999999999         -1.5194051349632218     
  0.13800000000000001         -1.7375978507306300     
  0.13829999999999998         -1.8856808971161740     
  0.13860000000000000         -1.9529220628425819     
  0.13890000000000002         -1.9313445734495573     
  0.13919999999999999         -1.8182592181528108     
  0.13950000000000001         -1.6171018569836662     
  0.13979999999999998         -1.3351259001029518     
  0.14010000000000000        -0.98441777530099372     
  0.14040000000000002        -0.58197465757353584     
  0.14069999999999999        -0.14715422860766925     
  0.14100000000000001         0.29805184683748287     
  0.14130000000000004         0.73144888817298792     
  0.14160000000000000          1.1318154218799421     
  0.14189999999999997          1.4790811713159400     
  0.14219999999999999          1.7577149231132196     
  0.14250000000000002          1.9567376468512307     
  0.14279999999999998          2.0687133290638116     
  0.14310000000000000          2.0936073990022379     
  0.14339999999999997          2.0355285346016814     
  0.14369999999999999          1.9023162658267481     
  0.14400000000000002          1.7073510959406377     
  0.14429999999999998          1.4643170869002304     
  0.14460000000000001          1.1887786080812646     
  0.14490000000000003         0.89644378648637968     
  0.14520000000000000         0.60013999709374843     
  0.14550000000000002         0.31294620521996386     
  0.14579999999999999          4.3841361214700392E-002
  0.14610000000000001        -0.20119196732372080     
  0.14640000000000003        -0.41629680735593766     
  0.14670000000000000        -0.59949688442460314     
  0.14699999999999996        -0.74948853900639634     
  0.14729999999999999        -0.86569328289175829     
  0.14760000000000001        -0.94810056277435351     
  0.14789999999999998        -0.99570067649077032     
  0.14820000000000000         -1.0082028329907544     