  -1.4999999999999999E-002     0.0000000000000000     
  -1.4700000000000000E-002     0.0000000000000000     
  -1.4400000000000000E-002     0.0000000000000000     
  -1.4100000000000000E-002     0.0000000000000000     
  -1.3800000000000000E-002     0.0000000000000000     
  -1.3500000000000000E-002     0.0000000000000000     
  -1.3200000000000000E-002     0.0000000000000000     
  -1.2899999999999998E-002     0.0000000000000000     
  -1.2600000000000000E-002     0.0000000000000000     
  -1.2299999999999998E-002     0.0000000000000000     
  -1.2000000000000000E-002     0.0000000000000000     
  -1.1699999999999999E-002     0.0000000000000000     
  -1.1399999999999999E-002     0.0000000000000000     
  -1.1099999999999999E-002     0.0000000000000000     
  -1.0799999999999999E-002     0.0000000000000000     
  -1.0499999999999999E-002     0.0000000000000000     
  -1.0199999999999999E-002     0.0000000000000000     
  -9.8999999999999991E-003     0.0000000000000000     
  -9.5999999999999992E-003     0.0000000000000000     
  -9.2999999999999992E-003     0.0000000000000000     
  -8.9999999999999993E-003     0.0000000000000000     
  -8.6999999999999994E-003     0.0000000000000000     
  -8.3999999999999995E-003     0.0000000000000000     
  -8.0999999999999996E-003     0.0000000000000000     
  -7.7999999999999988E-003     0.0000000000000000     
  -7.4999999999999997E-003     0.0000000000000000     
  -7.1999999999999998E-003     0.0000000000000000     
  -6.8999999999999981E-003     0.0000000000000000     
  -6.5999999999999982E-003     0.0000000000000000     
  -6.3000000000000000E-003     0.0000000000000000     
  -6.0000000000000001E-003     0.0000000000000000     
  -5.6999999999999985E-003     0.0000000000000000     
  -5.3999999999999986E-003     0.0000000000000000     
  -5.1000000000000004E-003     0.0000000000000000     
  -4.7999999999999987E-003     0.0000000000000000     
  -4.5000000000000005E-003     0.0000000000000000     
  -4.1999999999999989E-003     0.0000000000000000     
  -3.8999999999999990E-003     0.0000000000000000     
  -3.5999999999999990E-003     0.0000000000000000     
  -3.2999999999999991E-003     0.0000000000000000     
  -2.9999999999999992E-003     0.0000000000000000     
  -2.6999999999999993E-003     0.0000000000000000     
  -2.3999999999999994E-003     0.0000000000000000     
  -2.0999999999999977E-003     0.0000000000000000     
  -1.7999999999999995E-003     0.0000000000000000     
  -1.4999999999999979E-003     0.0000000000000000     
  -1.1999999999999997E-003     0.0000000000000000     
  -8.9999999999999976E-004     0.0000000000000000     
  -5.9999999999999810E-004     0.0000000000000000     
  -2.9999999999999992E-004     0.0000000000000000     
   0.0000000000000000          0.0000000000000000     
   3.0000000000000165E-004     0.0000000000000000     
   5.9999999999999984E-004     0.0000000000000000     
   9.0000000000000149E-004     0.0000000000000000     
   1.2000000000000031E-003     0.0000000000000000     
   1.5000000000000013E-003     0.0000000000000000     
   1.8000000000000030E-003     0.0000000000000000     
   2.1000000000000012E-003     0.0000000000000000     
   2.3999999999999994E-003     0.0000000000000000     
   2.7000000000000010E-003     0.0000000000000000     
   2.9999999999999992E-003     0.0000000000000000     
   3.3000000000000008E-003    -6.4391643769806203E-038
   3.6000000000000025E-003     1.6567234349610143E-037
   3.9000000000000007E-003    -3.7542963477075410E-037
   4.2000000000000023E-003    -2.8468636544094106E-036
   4.5000000000000005E-003     2.9314049595361287E-035
   4.7999999999999987E-003     2.0475433247115391E-035
   5.1000000000000004E-003    -5.3650554226005239E-034
   5.4000000000000020E-003     4.6572884347843325E-034
   5.7000000000000037E-003     2.9530556661021060E-033
   5.9999999999999984E-003    -8.4144265182897265E-033
   6.3000000000000000E-003     1.0696055072130230E-033
   6.6000000000000017E-003     3.4934138708085287E-032
   6.9000000000000034E-003    -9.0291109834487018E-032
   7.2000000000000015E-003     8.1728685518093188E-032
   7.5000000000000032E-003     2.3688901856323608E-031
   7.8000000000000014E-003    -1.0016958441253128E-030
   8.0999999999999996E-003     1.0970974267680702E-030
   8.4000000000000012E-003     2.0989647325315073E-030
   8.7000000000000029E-003    -7.0040066969562956E-030
   9.0000000000000011E-003    -8.0571280232128278E-030
   9.2999999999999992E-003     1.0373634172114570E-028
   9.6000000000000009E-003    -3.0743909020808165E-028
   9.8999999999999991E-003    -1.9069995580289981E-029
   1.0200000000000001E-002     4.3105527876142070E-027
   1.0500000000000002E-002    -2.0955643402739769E-026
   1.0800000000000004E-002     5.0528998907463058E-026
   1.1099999999999999E-002    -1.6376661937912585E-026
   1.1400000000000000E-002    -3.8685615023201288E-025
   1.1700000000000002E-002     1.7091854718252579E-024
   1.2000000000000004E-002    -3.8258477697154762E-024
   1.2300000000000002E-002     3.3320960895110755E-024
   1.2600000000000000E-002     8.1561058048552785E-024
   1.2900000000000002E-002    -4.3762457103665013E-023
   1.3200000000000000E-002     2.2601718865276195E-022
   1.3500000000000002E-002    -1.8635902391291228E-021
   1.3800000000000003E-002     1.4056223654994861E-020
   1.4100000000000001E-002    -8.5564630067841678E-020
   1.4400000000000000E-002     4.4000596173412870E-019
   1.4700000000000001E-002    -2.0143333084854831E-018
   1.4999999999999999E-002     8.5607074686542171E-018
   1.5300000000000001E-002    -3.4855761252139243E-017
   1.5600000000000003E-002     1.3866645104020263E-016
   1.5899999999999997E-002    -5.4165956135233921E-016
   1.6199999999999999E-002     2.0539204629943243E-015
   1.6500000000000001E-002    -7.3588491886608047E-015
   1.6800000000000002E-002     2.3840630213740994E-014
   1.7100000000000004E-002    -6.4708463423027495E-014
   1.7400000000000006E-002     1.2074184391966755E-013
   1.7700000000000000E-002     7.2615528406151633E-015
   1.8000000000000002E-002    -1.2409209000347824E-012
   1.8300000000000004E-002     5.9395709638201787E-012
   1.8600000000000005E-002    -1.5741465888043090E-011
   1.8900000000000000E-002     1.7073536358163723E-011
   1.9200000000000002E-002     4.8043641339857906E-011
   1.9500000000000003E-002    -2.4967321726729046E-010
   1.9799999999999998E-002     3.7167219237945933E-010
   2.0100000000000000E-002     5.0282861006649314E-010
   2.0400000000000001E-002    -2.6880758829243601E-009
   2.0700000000000003E-002     1.4694644107090051E-009
   2.0999999999999998E-002     9.6762346579641707E-009
   2.1299999999999999E-002    -1.2565653115235464E-008
   2.1600000000000001E-002    -3.2913794305351242E-008
   2.1900000000000003E-002     3.8813183464327812E-008
   2.2200000000000004E-002     1.0673620042695394E-007
   2.2500000000000006E-002    -6.6931725673470326E-008
   2.2800000000000001E-002    -3.1509451974907261E-007
   2.3100000000000002E-002     4.1345006527011961E-008
   2.3400000000000004E-002     1.2639462544115675E-006
   2.3699999999999999E-002     2.6009486317636865E-006
   2.4000000000000000E-002     3.4538893816277069E-006
   2.4300000000000002E-002     4.7492885234031720E-006
   2.4599999999999997E-002     8.0660990781803799E-006
   2.4900000000000005E-002     1.3752872052147358E-005
   2.5200000000000000E-002     2.1293589490369415E-005
   2.5499999999999995E-002     3.1612340450331102E-005
   2.5800000000000003E-002     4.7656094367158923E-005
   2.6099999999999998E-002     7.2411976250427376E-005
   2.6400000000000007E-002     1.0803577793608733E-004
   2.6700000000000002E-002     1.5793227783109315E-004
   2.6999999999999996E-002     2.2838961080103286E-004
   2.7300000000000005E-002     3.2709637384381943E-004
   2.7600000000000000E-002     4.6149341191709797E-004
   2.7900000000000008E-002     6.4033216355924988E-004
   2.8200000000000003E-002     8.7588104931564381E-004
   2.8499999999999998E-002     1.1825009246947751E-003
   2.8800000000000006E-002     1.5732765337901009E-003
   2.9100000000000001E-002     2.0597418597161007E-003
   2.9400000000000003E-002     2.6539543666119630E-003
   2.9700000000000004E-002     3.3675173429117966E-003
   3.0000000000000006E-002     4.2069976055350983E-003
   3.0300000000000001E-002     5.1706485720521278E-003
   3.0600000000000002E-002     6.2484765586915958E-003
   3.0900000000000004E-002     7.4222719481406296E-003
   3.1199999999999999E-002     8.6620939886309922E-003
   3.1500000000000007E-002     9.9240285635048830E-003
   3.1800000000000002E-002     1.1153324978035117E-002
   3.2099999999999997E-002     1.2288888227693362E-002
   3.2400000000000005E-002     1.3265409684728557E-002
   3.2700000000000000E-002     1.4018113444390801E-002
   3.3000000000000002E-002     1.4492184612930559E-002
   3.3300000000000003E-002     1.4655447299232960E-002
   3.3599999999999998E-002     1.4506808676990668E-002
   3.3900000000000000E-002     1.4081073989217985E-002
   3.4200000000000001E-002     1.3457564514132325E-002
   3.4500000000000003E-002     1.2769053656621066E-002
   3.4799999999999998E-002     1.2198628776405540E-002
   3.5099999999999999E-002     1.1969199922858775E-002
   3.5400000000000001E-002     1.2332887402596138E-002
   3.5699999999999996E-002     1.3557963877047774E-002
   3.6000000000000004E-002     1.5904390651185152E-002
   3.6299999999999999E-002     1.9596757584287083E-002
   3.6600000000000008E-002     2.4799203566207795E-002
   3.6900000000000002E-002     3.1596522952973882E-002
   3.7199999999999997E-002     3.9977124629882010E-002
   3.7500000000000006E-002     4.9820287271179708E-002
   3.7800000000000000E-002     6.0901416177572276E-002
   3.8100000000000009E-002     7.2902919515316134E-002
   3.8400000000000004E-002     8.5430389895694070E-002
   3.8699999999999998E-002     9.8038784041049709E-002
   3.9000000000000007E-002    0.11025763505746289     
   3.9300000000000002E-002    0.12162286883565709     
   3.9600000000000003E-002    0.13169428982122255     
   3.9900000000000005E-002    0.14005912639325491     
   4.0200000000000000E-002    0.14633504337002723     
   4.0500000000000001E-002    0.15016584578842096     
   4.0800000000000003E-002    0.15120125859311173     
   4.1100000000000005E-002    0.14907113976373321     
   4.1399999999999999E-002    0.14335609132676552     
   4.1700000000000008E-002    0.13358778015992723     
   4.2000000000000003E-002    0.11926186884373635     
   4.2299999999999997E-002     9.9847136114650237E-002
   4.2600000000000006E-002     7.4818490769338108E-002
   4.2900000000000001E-002     4.3702138625201226E-002
   4.3200000000000002E-002     6.1399901591667472E-003
   4.3500000000000004E-002    -3.8037584453887607E-002
   4.3799999999999999E-002    -8.8773460299118701E-002
   4.4100000000000000E-002   -0.14575070676667323     
   4.4400000000000002E-002   -0.20835528211804100     
   4.4700000000000004E-002   -0.27569141123351759     
   4.4999999999999998E-002   -0.34659605163974838     
   4.5300000000000000E-002   -0.41968603182005815     
   4.5600000000000002E-002   -0.49338738011330641     
   4.5899999999999996E-002   -0.56599611014953055     
   4.6200000000000005E-002   -0.63569728263171754     
   4.6500000000000000E-002   -0.70055415947027910     
   4.6799999999999994E-002   -0.75854554620910974     
   4.7100000000000003E-002   -0.80754881041297821     
   4.7399999999999998E-002   -0.84527881086870593     
   4.7700000000000006E-002   -0.86929674816930813     
   4.8000000000000001E-002   -0.87702266074275315     
   4.8300000000000010E-002   -0.86577430490660490     
   4.8600000000000004E-002   -0.83288169000991630     
   4.8899999999999999E-002   -0.77585319639145922     
   4.9200000000000008E-002   -0.69252917930186086     
   4.9500000000000002E-002   -0.58131954967846866     
   4.9800000000000011E-002   -0.44156801153984659     
   5.0100000000000006E-002   -0.27377843231309473     
   5.0400000000000000E-002    -7.9789151729201979E-002
   5.0700000000000009E-002    0.13696659773090847     
   5.1000000000000004E-002    0.37138565068152207     
   5.1299999999999998E-002    0.61673985044403246     
   5.1600000000000007E-002    0.86483762068394299     
   5.1900000000000002E-002     1.1063253256768988     
   5.2200000000000010E-002     1.3310553840596171     
   5.2500000000000005E-002     1.5287163610702166     
   5.2800000000000000E-002     1.6894175803840312     
   5.3099999999999994E-002     1.8043061003627727     
   5.3400000000000003E-002     1.8663279808348463     
   5.3699999999999998E-002     1.8707297955286606     
   5.4000000000000006E-002     1.8155331290518859     
   5.4300000000000001E-002     1.7018760931305010     
   5.4599999999999996E-002     1.5341304482588427     
   5.4900000000000004E-002     1.3197383693848792     
   5.5199999999999999E-002     1.0688224365252879     
   5.5499999999999994E-002    0.79363810107914645     
   5.5800000000000002E-002    0.50786616816068175     
   5.6099999999999997E-002    0.22560248989452880     
   5.6400000000000006E-002    -3.9658004139069281E-002
   5.6700000000000000E-002   -0.27580597529437201     
   5.6999999999999995E-002   -0.47308669636764833     
   5.7300000000000004E-002   -0.62480549444282119     
   5.7599999999999998E-002   -0.72783325570506818     
   5.7900000000000007E-002   -0.78289949274604709     
   5.8200000000000002E-002   -0.79422503950087986     
   5.8499999999999996E-002   -0.76929495281776639     
   5.8800000000000005E-002   -0.71842114574985416     
   5.9100000000000000E-002   -0.65364571266827554     
   5.9400000000000008E-002   -0.58764774523077890     
   5.9700000000000003E-002   -0.53269010690979357     
   6.0000000000000012E-002   -0.49969119734574541     
   6.0300000000000006E-002   -0.49716434848828506     
   6.0600000000000001E-002   -0.53019198766889453     
   6.0900000000000010E-002   -0.59995444897857553     
   6.1200000000000004E-002   -0.70370806338048197     
   6.1500000000000013E-002   -0.83466710136485744     
   6.1800000000000008E-002   -0.98237807886960837     
   6.2100000000000002E-002    -1.1335890749278690     
   6.2399999999999997E-002    -1.2733031704070470     
   6.2700000000000006E-002    -1.3860775822102767     
   6.3000000000000000E-002    -1.4572959252509747     
   6.3300000000000009E-002    -1.4745013794233870     
   6.3600000000000004E-002    -1.4287514017823497     
   6.3899999999999998E-002    -1.3156396945013782     
   6.4199999999999993E-002    -1.1358803780716826     
   6.4500000000000002E-002   -0.89566137559552672     
   6.4800000000000010E-002   -0.60632816278437218     
   6.5100000000000005E-002   -0.28381815603064986     
   6.5400000000000000E-002     5.2450537163287514E-002
   6.5700000000000008E-002    0.38116016964749311     
   6.5999999999999989E-002    0.68062140606482480     
   6.6299999999999998E-002    0.93054665352356736     
   6.6600000000000006E-002     1.1140693513137663     
   6.6900000000000001E-002     1.2188339017762431     
   6.7199999999999996E-002     1.2382003640330268     
   6.7500000000000004E-002     1.1719251013731977     
   6.7800000000000013E-002     1.0262451578936087     
   6.8099999999999994E-002    0.81342287320217466     
   6.8400000000000002E-002    0.55071041709546442     
   6.8700000000000011E-002    0.25887981651017622     
   6.8999999999999992E-002    -3.9301293020420403E-002
   6.9300000000000000E-002   -0.32079472558450384     
   6.9600000000000009E-002   -0.56422258356390831     
   6.9900000000000004E-002   -0.75129582726766309     
   7.0199999999999999E-002   -0.86824688964261298     
   7.0500000000000007E-002   -0.90650754416537538     
   7.0800000000000016E-002   -0.86301084439497444     
   7.1099999999999997E-002   -0.74045560856486503     
   7.1400000000000005E-002   -0.54678153994723822     
   7.1700000000000000E-002   -0.29416611795346270     
   7.1999999999999995E-002     1.8688971666529497E-003
   7.2300000000000003E-002    0.32375734850214055     
   7.2600000000000012E-002    0.65280107887729200     
   7.2900000000000006E-002    0.97043226816003170     
   7.3200000000000001E-002     1.2597566167370360     
   7.3499999999999996E-002     1.5061123689093634     
   7.3800000000000004E-002     1.6974144523306265     
   7.4099999999999999E-002     1.8248534586437017     
   7.4400000000000008E-002     1.8835519459826955     
   7.4700000000000003E-002     1.8723964066699423     
   7.5000000000000011E-002     1.7934768083520893     
   7.5299999999999992E-002     1.6518472283755443     
   7.5600000000000001E-002     1.4557459425163302     
   7.5900000000000009E-002     1.2156005043770861     
   7.6200000000000004E-002    0.94322948873621115     
   7.6499999999999999E-002    0.65131857265362569     
   7.6800000000000007E-002    0.35305299415989566     
   7.7099999999999988E-002     6.1416958599045612E-002
   7.7399999999999997E-002   -0.21140144094700175     
   7.7700000000000005E-002   -0.45462416826417140     
   7.8000000000000014E-002   -0.65924841190727612     
   7.8299999999999995E-002   -0.81811911032633589     
   7.8600000000000003E-002   -0.92623407965776039     
   7.8900000000000012E-002   -0.98095336936035338     
   7.9199999999999993E-002   -0.98206325157686081     
   7.9500000000000001E-002   -0.93171710195969837     
   7.9800000000000010E-002   -0.83401996473514828     
   8.0100000000000018E-002   -0.69489710161294127     
   8.0399999999999999E-002   -0.52220435334620063     
   8.0700000000000008E-002   -0.32499699109372315     
   8.1000000000000003E-002   -0.11314725330125475     
   8.1299999999999997E-002    0.10327415050909128     
   8.1600000000000006E-002    0.31392086257870166     
   8.1900000000000014E-002    0.50873321685495654     
   8.2199999999999995E-002    0.67837556144874078     
   8.2500000000000004E-002    0.81467973426401130     
   8.2799999999999999E-002    0.91105972769551613     
   8.3100000000000007E-002    0.96216598912586448     
   8.3400000000000002E-002    0.96415786517751911     
   8.3700000000000011E-002    0.91529331720944640     
   8.4000000000000005E-002    0.81619397028820728     
   8.4300000000000000E-002    0.66941016515003327     
   8.4599999999999995E-002    0.47916834759455007     
   8.4900000000000003E-002    0.25211202098617047     
   8.5199999999999998E-002    -2.4538597780470184E-003
   8.5500000000000007E-002   -0.27379693183505083     
   8.5800000000000001E-002   -0.55017324637641885     
   8.6100000000000010E-002   -0.81869530348514585     
   8.6399999999999991E-002    -1.0658241940465150     
   8.6699999999999999E-002    -1.2790345081102394     
   8.7000000000000008E-002    -1.4477738749426088     
   8.7300000000000003E-002    -1.5637965223686052     
   8.7599999999999997E-002    -1.6221387444346647     
   8.7900000000000006E-002    -1.6219689915949331     
   8.8200000000000014E-002    -1.5669186799051289     
   8.8499999999999995E-002    -1.4646937689894557     
   8.8800000000000004E-002    -1.3268496413188586     
   8.9100000000000013E-002    -1.1678802842055731     
   8.9399999999999993E-002    -1.0039718529957611     
   8.9700000000000002E-002   -0.85138855805977087     
   9.0000000000000011E-002   -0.72496176573972804     
   9.0299999999999991E-002   -0.63658086099979272     
   9.0600000000000000E-002   -0.59397226140678683     
   9.0900000000000009E-002   -0.59940297032450118     
   9.1200000000000017E-002   -0.64951404988742212     
   9.1499999999999998E-002   -0.73543581855470563     
   9.1800000000000007E-002   -0.84316250318918051     
   9.2100000000000001E-002   -0.95498283578551124     
   9.2399999999999996E-002    -1.0509686041405217     
   9.2700000000000005E-002    -1.1108809822096468     
   9.3000000000000013E-002    -1.1161161664236445     
   9.3300000000000008E-002    -1.0515995834472065     
   9.3600000000000003E-002   -0.90719361447428781     
   9.3899999999999997E-002   -0.67921406310555099     
   9.4200000000000006E-002   -0.37098834427718685     
   9.4500000000000001E-002     7.4266413848707025E-003
   9.4800000000000009E-002    0.43945242418913111     
   9.5100000000000004E-002    0.90308230530632017     
   9.5399999999999999E-002     1.3728057333374970     
   9.5699999999999993E-002     1.8214081464636429     
   9.6000000000000002E-002     2.2220118364451409     
   9.6300000000000011E-002     2.5495663591567563     
   9.6600000000000005E-002     2.7839053212412068     
   9.6900000000000000E-002     2.9109814463846959     
   9.7200000000000009E-002     2.9230526826058849     
   9.7499999999999989E-002     2.8199519778195850     
   9.7799999999999998E-002     2.6093319678237634     
   9.8100000000000007E-002     2.3056941850744010     
   9.8400000000000015E-002     1.9292124082162587     
   9.8699999999999996E-002     1.5037741973713636     
   9.9000000000000005E-002     1.0557904233736508     
   9.9300000000000013E-002    0.61240587896407206     
   9.9599999999999994E-002    0.19850644977460608     
   9.9900000000000003E-002   -0.16488824648486577     
  0.10020000000000001        -0.46136597074493757     
  0.10049999999999999        -0.68054161774518107     
  0.10080000000000000        -0.81922100208525883     
  0.10110000000000001        -0.88088255616893463     
  0.10140000000000000        -0.87500764872190118     
  0.10170000000000000        -0.81608672684704331     
  0.10200000000000001        -0.72262429754851709     
  0.10230000000000002        -0.61535673923555123     
  0.10260000000000000        -0.51462625332579925     
  0.10290000000000001        -0.43893513860965250     
  0.10320000000000000        -0.40344066621367070     
  0.10350000000000001        -0.41820688685793606     
  0.10380000000000000        -0.48721345284811512     
  0.10410000000000001        -0.60738746357510642     
  0.10440000000000001        -0.76906344255937853     
  0.10470000000000000        -0.95663265942049591     
  0.10500000000000000         -1.1490784810600019     
  0.10530000000000000         -1.3223671431465611     
  0.10560000000000000         -1.4515391828927804     
  0.10590000000000001         -1.5123458657351563     
  0.10620000000000000         -1.4842625614471885     
  0.10650000000000001         -1.3528884933466543     
  0.10679999999999999         -1.1114314965484695     
  0.10710000000000000        -0.76249997920347923     
  0.10740000000000001        -0.31828081040953560     
  0.10770000000000000         0.19970043346787492     
  0.10800000000000000         0.76136513225114300     
  0.10830000000000001          1.3303981324745036     
  0.10859999999999999          1.8673300550325855     
  0.10890000000000000          2.3324396402856351     
  0.10920000000000001          2.6892351796940375     
  0.10950000000000001          2.9076982795626520     
  0.10979999999999999          2.9676999537781938     
  0.11009999999999999          2.8607227175910737     
  0.11040000000000001          2.5901624742622573     
  0.11070000000000001          2.1721322710284170     
  0.11100000000000000          1.6345645544883212     
  0.11130000000000000          1.0133079800332006     
  0.11160000000000002         0.34966333348106637     
  0.11190000000000001        -0.31283851778025706     
  0.11220000000000001        -0.93258638084495971     
  0.11250000000000000         -1.4737634840315419     
  0.11280000000000000         -1.9097481201241280     
  0.11309999999999999         -2.2244474715042415     
  0.11340000000000001         -2.4133644792893563     
  0.11369999999999998         -2.4842571363440413     
  0.11400000000000000         -2.4553405796060872     
  0.11430000000000000         -2.3530949179518643     
  0.11460000000000002         -2.2093782833063784     
  0.11489999999999999         -2.0574457116777722     
  0.11520000000000001         -1.9292806108621647     
  0.11550000000000001         -1.8513577922290807     
  0.11580000000000000         -1.8416309968531905     
  0.11609999999999999         -1.9080799921060958     
  0.11640000000000002         -2.0474343375146518     
  0.11670000000000001         -2.2445145875297001     
  0.11700000000000001         -2.4737099150567801     
  0.11730000000000000         -2.7011101695244903     
  0.11760000000000000         -2.8874568144118626     
  0.11789999999999999         -2.9916452789282602     
  0.11820000000000001         -2.9744368122418621     
  0.11850000000000001         -2.8026761000834739     
  0.11880000000000000         -2.4530074830936002     
  0.11910000000000000         -1.9140728325315877     
  0.11940000000000002         -1.1883680810063453     
  0.11970000000000001        -0.29395557968342190     
  0.12000000000000001         0.73692097677904655     
  0.12030000000000000          1.8595362515413569     
  0.12060000000000000          3.0197113018159665     
  0.12089999999999999          4.1571496570576727     
  0.12119999999999999          5.2098098195583873     
  0.12150000000000001          6.1189461698930927     
  0.12180000000000001          6.8333852260965955     
  0.12210000000000000          7.3130038898869429     
  0.12239999999999999          7.5315638657130535     
  0.12270000000000002          7.4789349274051062     
  0.12300000000000001          7.1615505596185756     
  0.12330000000000001          6.6012599339867677     
  0.12360000000000000          5.8335522152810313     
  0.12390000000000000          4.9048111778807879     
  0.12419999999999999          3.8678329664174811     
  0.12450000000000001          2.7780881764084029     
  0.12480000000000001          1.6898403128019481     
  0.12509999999999999         0.65190649047846705     
  0.12540000000000001        -0.29651836997705416     
  0.12570000000000003         -1.1273216263670918     
  0.12600000000000000         -1.8243516260480870     
  0.12630000000000002         -2.3850024867241721     
  0.12659999999999999         -2.8190018017814538     
  0.12690000000000001         -3.1458894759508240     
  0.12719999999999998         -3.3924001854226660     
  0.12750000000000000         -3.5890186691891017     
  0.12780000000000002         -3.7668323184741581     
  0.12809999999999999         -3.9535634460543463     
  0.12840000000000001         -4.1694516677399065     
  0.12869999999999998         -4.4256082174313320     
  0.12900000000000000         -4.7227299936620426     
  0.12930000000000003         -5.0494282015306169     
  0.12959999999999999         -5.3832388433473710     
  0.12990000000000002         -5.6921552640120012     
  0.13019999999999998         -5.9376450381467976     
  0.13050000000000000         -6.0776591876075940     
  0.13080000000000003         -6.0698336273567008     
  0.13109999999999999         -5.8762546352642744     
  0.13140000000000002         -5.4672265887072342     
  0.13169999999999998         -4.8231515610774807     
  0.13200000000000001         -3.9377007168620111     
  0.13229999999999997         -2.8202279163186716     
  0.13260000000000000         -1.4952925494732696     
  0.13290000000000002         -1.6732890978907733E-003
  0.13319999999999999          1.6088082433107900     
  0.13350000000000001          3.2727929919798129     
  0.13380000000000003          4.9194092428713780     
  0.13410000000000000          6.4755498021996019     
  0.13440000000000002          7.8686640558257750     
  0.13469999999999999          9.0300836135339466     
  0.13500000000000001          9.9005634248809429     
  0.13529999999999998          10.433954715174309     
  0.13560000000000000          10.599142550282750     
  0.13590000000000002          10.381928175273686     
  0.13619999999999999          9.7856959068625429     
  0.13650000000000001          8.8318457048305845     
  0.13680000000000003          7.5574917475113921     
  0.13710000000000000          6.0127083042333993     
  0.13740000000000002          4.2578619840888621     
  0.13769999999999999          2.3601924539871462     
  0.13800000000000001         0.38913454875360642     
  0.13829999999999998         -1.5864191387391884     
  0.13860000000000000         -3.5011725851619246     
  0.13890000000000002         -5.2957398353845235     
  0.13919999999999999         -6.9184890660163401     
  0.13950000000000001         -8.3258085958984154     
  0.13979999999999998         -9.4817029007558062     
  0.14010000000000000         -10.357523335091827     
  0.14040000000000002         -10.932104876863349     
  0.14069999999999999         -11.190727193704731     
  0.14100000000000001         -11.124014624226959     
  0.14130000000000004         -10.729130265637707     
  0.14160000000000000         -10.011029173448833     
  0.14189999999999997         -8.9828682324363172     
  0.14219999999999999         -7.6659552161698912     
  0.14250000000000002         -6.0925137746622511     
  0.14279999999999998         -4.3068285296582474     
  0.14310000000000000         -2.3636967449464947     
  0.14339999999999997        -0.32749663351825475     
  0.14369999999999999          1.7290156445134386     
  0.14400000000000002          3.7280214536656615     
  0.14429999999999998          5.5900179744199363     
  0.14460000000000001          7.2395756252385013     
  0.14490000000000003          8.6089988551862575     
  0.14520000000000000          9.6420674734575016     
  0.14550000000000002          10.299127602009065     
  0.14579999999999999          10.558291191378260     
  0.14610000000000001          10.417670165238690     
  0.14640000000000003          9.8955439298159718     
  0.14670000000000000          9.0278420269326034     
  0.14699999999999996          7.8668942125404726     
  0.14729999999999999          6.4778964475757164     
  0.14760000000000001          4.9341936376592770     
  0.14789999999999998          3.3145252726593384     
  0.14820000000000000          1.6969250543444012     