  -1.4999999999999999E-002     0.0000000000000000     
  -1.4700000000000000E-002     0.0000000000000000     
  -1.4400000000000000E-002     0.0000000000000000     
  -1.4100000000000000E-002     0.0000000000000000     
  -1.3800000000000000E-002     0.0000000000000000     
  -1.3500000000000000E-002     0.0000000000000000     
  -1.3200000000000000E-002     0.0000000000000000     
  -1.2899999999999998E-002     0.0000000000000000     
  -1.2600000000000000E-002     0.0000000000000000     
  -1.2299999999999998E-002     0.0000000000000000     
  -1.2000000000000000E-002     0.0000000000000000     
  -1.1699999999999999E-002     0.0000000000000000     
  -1.1399999999999999E-002     0.0000000000000000     
  -1.1099999999999999E-002     0.0000000000000000     
  -1.0799999999999999E-002     0.0000000000000000     
  -1.0499999999999999E-002     0.0000000000000000     
  -1.0199999999999999E-002     0.0000000000000000     
  -9.8999999999999991E-003     0.0000000000000000     
  -9.5999999999999992E-003     0.0000000000000000     
  -9.2999999999999992E-003     0.0000000000000000     
  -8.9999999999999993E-003     0.0000000000000000     
  -8.6999999999999994E-003     0.0000000000000000     
  -8.3999999999999995E-003     0.0000000000000000     
  -8.0999999999999996E-003     0.0000000000000000     
  -7.7999999999999988E-003     0.0000000000000000     
  -7.4999999999999997E-003     0.0000000000000000     
  -7.1999999999999998E-003     0.0000000000000000     
  -6.8999999999999981E-003     0.0000000000000000     
  -6.5999999999999982E-003     0.0000000000000000     
  -6.3000000000000000E-003     0.0000000000000000     
  -6.0000000000000001E-003     0.0000000000000000     
  -5.6999999999999985E-003     0.0000000000000000     
  -5.3999999999999986E-003     0.0000000000000000     
  -5.1000000000000004E-003     0.0000000000000000     
  -4.7999999999999987E-003     0.0000000000000000     
  -4.5000000000000005E-003     0.0000000000000000     
  -4.1999999999999989E-003     0.0000000000000000     
  -3.8999999999999990E-003     0.0000000000000000     
  -3.5999999999999990E-003     1.2941277182926408E-037
  -3.2999999999999991E-003    -1.9480728385194255E-036
  -2.9999999999999992E-003     4.4002178010834175E-036
  -2.6999999999999993E-003     3.0294357699065313E-035
  -2.3999999999999994E-003    -3.1641082202333430E-034
  -2.0999999999999977E-003    -3.1677719973525661E-034
  -1.7999999999999995E-003     6.3300253242345100E-033
  -1.4999999999999979E-003    -9.0410539865405357E-033
  -1.1999999999999997E-003    -3.6063490773976058E-032
  -8.9999999999999976E-004     8.1109921297839905E-032
  -5.9999999999999810E-004     2.7148154879698409E-031
  -2.9999999999999992E-004    -9.8939102559558361E-031
   0.0000000000000000         -1.0821543629545659E-030
   3.0000000000000165E-004     1.1977266541545308E-029
   5.9999999999999984E-004    -2.4936293927835237E-029
   9.0000000000000149E-004    -2.1153270988244919E-029
   1.2000000000000031E-003     2.6779295134376482E-028
   1.5000000000000013E-003    -7.2939921448726558E-028
   1.8000000000000030E-003     5.3010990607665340E-028
   2.1000000000000012E-003     2.9205202270116477E-027
   2.3999999999999994E-003    -1.2243788391162839E-026
   2.7000000000000010E-003     2.2688958510982216E-026
   2.9999999999999992E-003    -1.1057058092822623E-026
   3.3000000000000008E-003    -6.4815899623845172E-026
   3.6000000000000025E-003     2.2704410323963232E-025
   3.9000000000000007E-003    -3.7371839185395919E-025
   4.2000000000000023E-003     1.6141120872593853E-025
   4.5000000000000005E-003     9.0130612472734635E-025
   4.7999999999999987E-003    -2.8290695790735421E-024
   5.1000000000000004E-003     4.0197783987816267E-024
   5.4000000000000020E-003    -5.0844767468571962E-025
   5.7000000000000037E-003    -1.2561208898676940E-023
   5.9999999999999984E-003     3.5608575416501263E-023
   6.3000000000000000E-003    -5.6326479857418630E-023
   6.6000000000000017E-003     4.4522261883391773E-023
   6.9000000000000034E-003     3.8210781418222952E-023
   7.2000000000000015E-003    -1.9923221111127100E-022
   7.5000000000000032E-003     3.2921937316549407E-022
   7.8000000000000014E-003    -6.5729279018207893E-023
   8.0999999999999996E-003    -1.2357617909209074E-021
   8.4000000000000012E-003     3.4380607015965862E-021
   8.7000000000000029E-003     6.5697446902960414E-023
   9.0000000000000011E-003    -4.0195933907045132E-020
   9.2999999999999992E-003     2.0217545281472483E-019
   9.6000000000000009E-003    -5.8313477639572884E-019
   9.8999999999999991E-003     7.1990417929648493E-019
   1.0200000000000001E-002     3.1213782423828851E-018
   1.0500000000000002E-002    -2.7080324920544726E-017
   1.0800000000000004E-002     1.2396041309446987E-016
   1.1099999999999999E-002    -4.3307921090385520E-016
   1.1400000000000000E-002     1.2328856773653144E-015
   1.1700000000000002E-002    -2.7004257391414349E-015
   1.2000000000000004E-002     2.4698074667242956E-015
   1.2300000000000002E-002     1.8379767922471063E-014
   1.2600000000000000E-002    -1.5540592087932154E-013
   1.2900000000000002E-002     7.6665697444980307E-013
   1.3200000000000000E-002    -2.7757644273374016E-012
   1.3500000000000002E-002     7.0719090305981780E-012
   1.3800000000000003E-002    -8.4501858635399607E-012
   1.4100000000000001E-002    -2.3677702160052050E-011
   1.4400000000000000E-002     1.6042756012524251E-010
   1.4700000000000001E-002    -3.9540523633085911E-010
   1.4999999999999999E-002     1.8658584399755540E-010
   1.5300000000000001E-002     1.7876706781549956E-009
   1.5600000000000003E-002    -4.9165351789781653E-009
   1.5899999999999997E-002     4.5495046618881929E-010
   1.6199999999999999E-002     2.0310919168764485E-008
   1.6500000000000001E-002    -2.2683526168520984E-008
   1.6800000000000002E-002    -6.1097914283436694E-008
   1.7100000000000004E-002     9.0527052520883444E-008
   1.7400000000000006E-002     2.0459374638903682E-007
   1.7700000000000000E-002    -2.2348265815708146E-007
   1.8000000000000002E-002    -7.8377183854172472E-007
   1.8300000000000004E-002     2.8285080588830169E-007
   1.8600000000000005E-002     4.3013737922592554E-006
   1.8900000000000000E-002     1.0599737834127154E-005
   1.9200000000000002E-002     1.8260159777128138E-005
   1.9500000000000003E-002     2.8887938242405653E-005
   1.9799999999999998E-002     4.6894885599613190E-005
   2.0100000000000000E-002     7.8359640610869974E-005
   2.0400000000000001E-002     1.3023069186601788E-004
   2.0700000000000003E-002     2.1053708042018116E-004
   2.0999999999999998E-002     3.3040583366528153E-004
   2.1299999999999999E-002     5.0707987975329161E-004
   2.1600000000000001E-002     7.6702836668118834E-004
   2.1900000000000003E-002     1.1484866263344884E-003
   2.2200000000000004E-002     1.7027336871251464E-003
   2.2500000000000006E-002     2.4948823265731335E-003
   2.2800000000000001E-002     3.6063089501112700E-003
   2.3100000000000002E-002     5.1418775692582130E-003
   2.3400000000000004E-002     7.2378502227365971E-003
   2.3699999999999999E-002     1.0063271038234234E-002
   2.4000000000000000E-002     1.3818348757922649E-002
   2.4300000000000002E-002     1.8733078613877296E-002
   2.4599999999999997E-002     2.5065392255783081E-002
   2.4900000000000005E-002     3.3095762133598328E-002
   2.5200000000000000E-002     4.3115314096212387E-002
   2.5499999999999995E-002     5.5406767874956131E-002
   2.5800000000000003E-002     7.0218212902545929E-002
   2.6099999999999998E-002     8.7728098034858704E-002
   2.6400000000000007E-002    0.10800423473119736     
   2.6700000000000002E-002    0.13095986843109131     
   2.6999999999999996E-002    0.15631003677845001     
   2.7300000000000005E-002    0.18351761996746063     
   2.7600000000000000E-002    0.21174055337905884     
   2.7900000000000008E-002    0.23978789150714874     
   2.8200000000000003E-002    0.26611021161079407     
   2.8499999999999998E-002    0.28879699110984802     
   2.8800000000000006E-002    0.30560114979743958     
   2.9100000000000001E-002    0.31400033831596375     
   2.9400000000000003E-002    0.31127241253852844     
   2.9700000000000004E-002    0.29468455910682678     
   3.0000000000000006E-002    0.26158329844474792     
   3.0300000000000001E-002    0.20967537164688110     
   3.0600000000000002E-002    0.13720151782035828     
   3.0900000000000004E-002     4.3134689331054688E-002
   3.1199999999999999E-002    -7.2499595582485199E-002
   3.1500000000000007E-002   -0.20857237279415131     
   3.1800000000000002E-002   -0.36264052987098694     
   3.2099999999999997E-002   -0.53084325790405273     
   3.2400000000000005E-002   -0.70805925130844116     
   3.2700000000000000E-002   -0.88784259557723999     
   3.3000000000000002E-002    -1.0627623796463013     
   3.3300000000000003E-002    -1.2247152328491211     
   3.3599999999999998E-002    -1.3652135133743286     
   3.3900000000000000E-002    -1.4760475158691406     
   3.4200000000000001E-002    -1.5495886802673340     
   3.4500000000000003E-002    -1.5793130397796631     
   3.4799999999999998E-002    -1.5603749752044678     
   3.5099999999999999E-002    -1.4897806644439697     
   3.5400000000000001E-002    -1.3669160604476929     
   3.5699999999999996E-002    -1.1935578584671021     
   3.6000000000000004E-002   -0.97375476360321045     
   3.6299999999999999E-002   -0.71392232179641724     
   3.6600000000000008E-002   -0.42227813601493835     
   3.6900000000000002E-002   -0.10847865045070648     
   3.7199999999999997E-002    0.21675331890583038     
   3.7500000000000006E-002    0.54251462221145630     
   3.7800000000000000E-002    0.85797250270843506     
   3.8100000000000009E-002     1.1532669067382812     
   3.8400000000000004E-002     1.4197404384613037     
   3.8699999999999998E-002     1.6505024433135986     
   3.9000000000000007E-002     1.8406282663345337     
   3.9300000000000002E-002     1.9872373342514038     
   3.9600000000000003E-002     2.0895667076110840     
   3.9900000000000005E-002     2.1487441062927246     
   4.0200000000000000E-002     2.1675472259521484     
   4.0500000000000001E-002     2.1500022411346436     
   4.0800000000000003E-002     2.1009292602539062     
   4.1100000000000005E-002     2.0254704952239990     
   4.1399999999999999E-002     1.9285081624984741     
   4.1700000000000008E-002     1.8141357898712158     
   4.2000000000000003E-002     1.6852326393127441     
   4.2299999999999997E-002     1.5430941581726074     
   4.2600000000000006E-002     1.3871713876724243     
   4.2900000000000001E-002     1.2151552438735962     
   4.3200000000000002E-002     1.0231230258941650     
   4.3500000000000004E-002    0.80574870109558105     
   4.3799999999999999E-002    0.55745160579681396     
   4.4100000000000000E-002    0.27278032898902893     
   4.4400000000000002E-002    -5.2320182323455811E-002
   4.4700000000000004E-002   -0.41914051771163940     
   4.4999999999999998E-002   -0.82575929164886475     
   4.5300000000000000E-002    -1.2656427621841431     
   4.5600000000000002E-002    -1.7272045612335205     
   4.5899999999999996E-002    -2.1939857006072998     
   4.6200000000000005E-002    -2.6446173191070557     
   4.6500000000000000E-002    -3.0543274879455566     
   4.6799999999999994E-002    -3.3962788581848145     
   4.7100000000000003E-002    -3.6435480117797852     
   4.7399999999999998E-002    -3.7716822624206543     
   4.7700000000000006E-002    -3.7607388496398926     
   4.8000000000000001E-002    -3.5977087020874023     
   4.8300000000000010E-002    -3.2782912254333496     
   4.8600000000000004E-002    -2.8078937530517578     
   4.8899999999999999E-002    -2.2021107673645020     
   4.9200000000000008E-002    -1.4860353469848633     
   4.9500000000000002E-002   -0.69265186786651611     
   4.9800000000000011E-002    0.13924688100814819     
   5.0100000000000006E-002    0.96800214052200317     
   5.0400000000000000E-002     1.7520918846130371     
   5.0700000000000009E-002     2.4532516002655029     
   5.1000000000000004E-002     3.0392355918884277     
   5.1299999999999998E-002     3.4859871864318848     
   5.1600000000000007E-002     3.7788989543914795     
   5.1900000000000002E-002     3.9132580757141113     
   5.2200000000000010E-002     3.8937833309173584     
   5.2500000000000005E-002     3.7331266403198242     
   5.2800000000000000E-002     3.4500656127929688     
   5.3099999999999994E-002     3.0670218467712402     
   5.3400000000000003E-002     2.6076664924621582     
   5.3699999999999998E-002     2.0947029590606689     
   5.4000000000000006E-002     1.5480200052261353     
   5.4300000000000001E-002    0.98388332128524780     
   5.4599999999999996E-002    0.41416156291961670     
   5.4900000000000004E-002   -0.15297886729240417     
   5.5199999999999999E-002   -0.71227544546127319     
   5.5499999999999994E-002    -1.2601280212402344     
   5.5800000000000002E-002    -1.7925218343734741     
   5.6099999999999997E-002    -2.3038806915283203     
   5.6400000000000006E-002    -2.7856316566467285     
   5.6700000000000000E-002    -3.2255859375000000     
   5.6999999999999995E-002    -3.6081705093383789     
   5.7300000000000004E-002    -3.9145722389221191     
   5.7599999999999998E-002    -4.1248254776000977     
   5.7900000000000007E-002    -4.2192459106445312     
   5.8200000000000002E-002    -4.1805706024169922     
   5.8499999999999996E-002    -3.9966356754302979     
   5.8800000000000005E-002    -3.6615786552429199     
   5.9100000000000000E-002    -3.1780469417572021     
   5.9400000000000008E-002    -2.5577862262725830     
   5.9700000000000003E-002    -1.8209328651428223     
   6.0000000000000012E-002   -0.99617969989776611     
   6.0300000000000006E-002   -0.11815078556537628     
   6.0600000000000001E-002    0.77443021535873413     
   6.0900000000000010E-002     1.6411848068237305     
   6.1200000000000004E-002     2.4433441162109375     
   6.1500000000000013E-002     3.1455481052398682     
   6.1800000000000008E-002     3.7188723087310791     
   6.2100000000000002E-002     4.1418089866638184     
   6.2399999999999997E-002     4.4015240669250488     
   6.2700000000000006E-002     4.4943675994873047     
   6.3000000000000000E-002     4.4244780540466309     
   6.3300000000000009E-002     4.2039322853088379     
   6.3600000000000004E-002     3.8505587577819824     
   6.3899999999999998E-002     3.3866901397705078     
   6.4199999999999993E-002     2.8377623558044434     
   6.4500000000000002E-002     2.2300844192504883     
   6.4800000000000010E-002     1.5904822349548340     
   6.5100000000000005E-002    0.94462513923645020     
   6.5400000000000000E-002    0.31612968444824219     
   6.5700000000000008E-002   -0.27325916290283203     
   6.5999999999999989E-002   -0.80477511882781982     
   6.6299999999999998E-002    -1.2622781991958618     
   6.6600000000000006E-002    -1.6327457427978516     
   6.6900000000000001E-002    -1.9064854383468628     
   6.7199999999999996E-002    -2.0770676136016846     
   6.7500000000000004E-002    -2.1420068740844727     
   6.7800000000000013E-002    -2.1026158332824707     
   6.8099999999999994E-002    -1.9641641378402710     
   6.8400000000000002E-002    -1.7361023426055908     
   6.8700000000000011E-002    -1.4316946268081665     
   6.8999999999999992E-002    -1.0675604343414307     
   6.9300000000000000E-002   -0.66306585073471069     
   6.9600000000000009E-002   -0.23943844437599182     
   6.9900000000000004E-002    0.18121185898780823     
   7.0199999999999999E-002    0.57683974504470825     
   7.0500000000000007E-002    0.92683392763137817     
   7.0800000000000016E-002     1.2124018669128418     
   7.1099999999999997E-002     1.4177391529083252     
   7.1400000000000005E-002     1.5307898521423340     
   7.1700000000000000E-002     1.5428897142410278     
   7.1999999999999995E-002     1.4499876499176025     
   7.2300000000000003E-002     1.2519900798797607     
   7.2600000000000012E-002    0.95294564962387085     
   7.2900000000000006E-002    0.56159096956253052     
   7.3200000000000001E-002     9.0118065476417542E-002
   7.3499999999999996E-002   -0.44468662142753601     
   7.3800000000000004E-002    -1.0226132869720459     
   7.4099999999999999E-002    -1.6203590631484985     
   7.4400000000000008E-002    -2.2110981941223145     
   7.4700000000000003E-002    -2.7667968273162842     
   7.5000000000000011E-002    -3.2580528259277344     
   7.5299999999999992E-002    -3.6558184623718262     
   7.5600000000000001E-002    -3.9333031177520752     
   7.5900000000000009E-002    -4.0667729377746582     
   7.6200000000000004E-002    -4.0382232666015625     
   7.6499999999999999E-002    -3.8360548019409180     
   7.6800000000000007E-002    -3.4565339088439941     
   7.7099999999999988E-002    -2.9053363800048828     
   7.7399999999999997E-002    -2.1968421936035156     
   7.7700000000000005E-002    -1.3551362752914429     
   7.8000000000000014E-002   -0.41293072700500488     
   7.8299999999999995E-002    0.58974677324295044     
   7.8600000000000003E-002     1.6069840192794800     
   7.8900000000000012E-002     2.5892431735992432     
   7.9199999999999993E-002     3.4861209392547607     
   7.9500000000000001E-002     4.2485728263854980     
   7.9800000000000010E-002     4.8325734138488770     
   8.0100000000000018E-002     5.2018361091613770     
   8.0399999999999999E-002     5.3302559852600098     
   8.0700000000000008E-002     5.2049441337585449     
   8.1000000000000003E-002     4.8273706436157227     
   8.1299999999999997E-002     4.2147264480590820     
   8.1600000000000006E-002     3.3997459411621094     
   8.1900000000000014E-002     2.4290952682495117     
   8.2199999999999995E-002     1.3619823455810547     
   8.2500000000000004E-002    0.26535692811012268     
   8.2799999999999999E-002   -0.78982353210449219     
   8.3100000000000007E-002    -1.7336760759353638     
   8.3400000000000002E-002    -2.5039141178131104     
   8.3700000000000011E-002    -3.0494475364685059     
   8.4000000000000005E-002    -3.3362941741943359     
   8.4300000000000000E-002    -3.3506338596343994     
   8.4599999999999995E-002    -3.0996260643005371     
   8.4900000000000003E-002    -2.6129436492919922     
   8.5199999999999998E-002    -1.9393708705902100     
   8.5500000000000007E-002    -1.1439094543457031     
   8.5800000000000001E-002   -0.30235517024993896     
   8.6100000000000010E-002    0.50616878271102905     
   8.6399999999999991E-002     1.2041337490081787     
   8.6699999999999999E-002     1.7243552207946777     
   8.7000000000000008E-002     2.0149412155151367     
   8.7300000000000003E-002     2.0433704853057861     
   8.7599999999999997E-002     1.8010365962982178     
   8.7900000000000006E-002     1.3019034862518311     
   8.8200000000000014E-002    0.58294540643692017     
   8.8499999999999995E-002   -0.29987755417823792     
   8.8800000000000004E-002    -1.2772884368896484     
   8.9100000000000013E-002    -2.2708134651184082     
   8.9399999999999993E-002    -3.2016916275024414     
   8.9700000000000002E-002    -3.9955096244812012     
   9.0000000000000011E-002    -4.5887565612792969     
   9.0299999999999991E-002    -4.9343657493591309     
   9.0600000000000000E-002    -5.0028243064880371     
   9.0900000000000009E-002    -4.7856206893920898     
   9.1200000000000017E-002    -4.2938318252563477     
   9.1499999999999998E-002    -3.5556702613830566     
   9.1800000000000007E-002    -2.6144430637359619     
   9.2100000000000001E-002    -1.5227334499359131     
   9.2399999999999996E-002   -0.33873611688613892     
   9.2700000000000005E-002    0.87859016656875610     
   9.3000000000000013E-002     2.0747058391571045     
   9.3300000000000008E-002     3.2013373374938965     
   9.3600000000000003E-002     4.2200093269348145     
   9.3899999999999997E-002     5.1023826599121094     
   9.4200000000000006E-002     5.8301134109497070     
   9.4500000000000001E-002     6.3945302963256836     
   9.4800000000000009E-002     6.7937059402465820     
   9.5100000000000004E-002     7.0309090614318848     
   9.5399999999999999E-002     7.1124396324157715     
   9.5699999999999993E-002     7.0450434684753418     
   9.6000000000000002E-002     6.8352346420288086     
   9.6300000000000011E-002     6.4880423545837402     
   9.6600000000000005E-002     6.0066690444946289     
   9.6900000000000000E-002     5.3937735557556152     
   9.7200000000000009E-002     4.6515183448791504     
   9.7499999999999989E-002     3.7829408645629883     
   9.7799999999999998E-002     2.7942492961883545     
   9.8100000000000007E-002     1.6945341825485229     
   9.8400000000000015E-002    0.49765694141387939     
   9.8699999999999996E-002   -0.77757346630096436     
   9.9000000000000005E-002    -2.1080358028411865     
   9.9300000000000013E-002    -3.4648633003234863     
   9.9599999999999994E-002    -4.8164710998535156     
   9.9900000000000003E-002    -6.1280846595764160     
  0.10020000000000001         -7.3623723983764648     
  0.10049999999999999         -8.4828319549560547     
  0.10080000000000000         -9.4521284103393555     
  0.10110000000000001         -10.235391616821289     
  0.10140000000000000         -10.800580978393555     
  0.10170000000000000         -11.118230819702148     
  0.10200000000000001         -11.165352821350098     
  0.10230000000000002         -10.923119544982910     
  0.10260000000000000         -10.380383491516113     
  0.10290000000000001         -9.5339488983154297     
  0.10320000000000000         -8.3879661560058594     
  0.10350000000000001         -6.9587507247924805     
  0.10380000000000000         -5.2716550827026367     
  0.10410000000000001         -3.3641407489776611     
  0.10440000000000001         -1.2854008674621582     
  0.10470000000000000         0.90540331602096558     
  0.10500000000000000          3.1378078460693359     
  0.10530000000000000          5.3344159126281738     
  0.10560000000000000          7.4121608734130859     
  0.10590000000000001          9.2861690521240234     
  0.10620000000000000          10.874612808227539     
  0.10650000000000001          12.102309226989746     
  0.10679999999999999          12.906064987182617     
  0.10710000000000000          13.239128112792969     
  0.10740000000000001          13.074924468994141     
  0.10770000000000000          12.410393714904785     
  0.10800000000000000          11.267360687255859     
  0.10830000000000001          9.6927537918090820     
  0.10859999999999999          7.7573022842407227     
  0.10890000000000000          5.5529007911682129     
  0.10920000000000001          3.1875162124633789     
  0.10950000000000001         0.77977526187896729     
  0.10979999999999999         -1.5474708080291748     
  0.11009999999999999         -3.6749718189239502     
  0.11040000000000001         -5.4932484626770020     
  0.11070000000000001         -6.9100675582885742     
  0.11100000000000000         -7.8563199043273926     
  0.11130000000000000         -8.2893848419189453     
  0.11160000000000002         -8.1980514526367188     
  0.11190000000000001         -7.6020078659057617     
  0.11220000000000001         -6.5509872436523438     
  0.11250000000000000         -5.1239051818847656     
  0.11280000000000000         -3.4211902618408203     
  0.11309999999999999         -1.5609123706817627     
  0.11340000000000001         0.32931086421012878     
  0.11369999999999998          2.1215751171112061     
  0.11400000000000000          3.6938574314117432     
  0.11430000000000000          4.9410753250122070     
  0.11460000000000002          5.7797284126281738     
  0.11489999999999999          6.1544179916381836     
  0.11520000000000001          6.0429210662841797     
  0.11550000000000001          5.4546747207641602     
  0.11580000000000000          4.4335775375366211     
  0.11609999999999999          3.0522375106811523     
  0.11640000000000002          1.4072779417037964     
  0.11670000000000001        -0.38659864664077759     
  0.11700000000000001         -2.2070603370666504     
  0.11730000000000000         -3.9301104545593262     
  0.11760000000000000         -5.4416913986206055     
  0.11789999999999999         -6.6442394256591797     
  0.11820000000000001         -7.4632253646850586     
  0.11850000000000001         -7.8542928695678711     
  0.11880000000000000         -7.8032469749450684     
  0.11910000000000000         -7.3287696838378906     
  0.11940000000000002         -6.4790077209472656     
  0.11970000000000001         -5.3277678489685059     
  0.12000000000000001         -3.9693286418914795     
  0.12030000000000000         -2.5084841251373291     
  0.12060000000000000         -1.0544693470001221     
  0.12089999999999999         0.28934711217880249     
  0.12119999999999999          1.4335235357284546     
  0.12150000000000001          2.3082101345062256     
  0.12180000000000001          2.8704569339752197     
  0.12210000000000000          3.1053302288055420     
  0.12239999999999999          3.0272655487060547     
  0.12270000000000002          2.6787443161010742     
  0.12300000000000001          2.1241564750671387     
  0.12330000000000001          1.4449157714843750     
  0.12360000000000000         0.73079228401184082     
  0.12390000000000000          7.1378901600837708E-002
  0.12419999999999999        -0.45176291465759277     
  0.12450000000000001        -0.77372288703918457     
  0.12480000000000001        -0.85164177417755127     
  0.12509999999999999        -0.66853368282318115     
  0.12540000000000001        -0.23497633635997772     
  0.12570000000000003         0.41272726655006409     
  0.12600000000000000          1.2162450551986694     
  0.12630000000000002          2.1016185283660889     
  0.12659999999999999          2.9869682788848877     
  0.12690000000000001          3.7902259826660156     
  0.12719999999999998          4.4384026527404785     
  0.12750000000000000          4.8744578361511230     
  0.12780000000000002          5.0620789527893066     
  0.12809999999999999          4.9896306991577148     
  0.12840000000000001          4.6699924468994141     
  0.12869999999999998          4.1384344100952148     
  0.12900000000000000          3.4479870796203613     
  0.12930000000000003          2.6623837947845459     
  0.12959999999999999          1.8492188453674316     
  0.12990000000000002          1.0715976953506470     
  0.13019999999999998         0.38210576772689819     
  0.13050000000000000        -0.18260684609413147     
  0.13080000000000003        -0.60550671815872192     
  0.13109999999999999        -0.88806432485580444     
  0.13140000000000002         -1.0499360561370850     
  0.13169999999999998         -1.1239893436431885     
  0.13200000000000001         -1.1504372358322144     
  0.13229999999999997         -1.1713459491729736     
  0.13260000000000000         -1.2236768007278442     
  0.13290000000000002         -1.3351620435714722     
  0.13319999999999999         -1.5199719667434692     
  0.13350000000000001         -1.7770807743072510     
  0.13380000000000003         -2.0921823978424072     
  0.13410000000000000         -2.4387912750244141     
  0.13440000000000002         -2.7833292484283447     
  0.13469999999999999         -3.0901627540588379     
  0.13500000000000001         -3.3253996372222900     
  0.13529999999999998         -3.4631149768829346     
  0.13560000000000000         -3.4871845245361328     
  0.13590000000000002         -3.3933043479919434     
  0.13619999999999999         -3.1901111602783203     
  0.13650000000000001         -2.8959016799926758     
  0.13680000000000003         -2.5375123023986816     
  0.13710000000000000         -2.1457018852233887     
  0.13740000000000002         -1.7513093948364258     
  0.13769999999999999         -1.3826190233230591     
  0.13800000000000001         -1.0605577230453491     
  0.13829999999999998        -0.79897105693817139     
  0.13860000000000000        -0.60235875844955444     
  0.13890000000000002        -0.46635568141937256     
  0.13919999999999999        -0.37997713685035706     
  0.13950000000000001        -0.32623782753944397     
  0.13979999999999998        -0.28613448143005371     
  0.14010000000000000        -0.23965133726596832     
  0.14040000000000002        -0.16820383071899414     
  0.14069999999999999         -5.7108089327812195E-002
  0.14100000000000001         0.10448613017797470     
  0.14130000000000004         0.32206192612648010     
  0.14160000000000000         0.59619951248168945     
  0.14189999999999997         0.92275011539459229     
  0.14219999999999999          1.2930886745452881     
  0.14250000000000002          1.6959998607635498     
  0.14279999999999998          2.1169133186340332     
  0.14310000000000000          2.5398449897766113     
  0.14339999999999997          2.9485988616943359     
  0.14369999999999999          3.3260746002197266     
  0.14400000000000002          3.6568534374237061     
  0.14429999999999998          3.9265873432159424     
  0.14460000000000001          4.1233124732971191     
  0.14490000000000003          4.2383818626403809     
  0.14520000000000000          4.2654252052307129     
  0.14550000000000002          4.2020473480224609     
  0.14579999999999999          4.0482063293457031     
  0.14610000000000001          3.8066911697387695     
  0.14640000000000003          3.4827504158020020     
  0.14670000000000000          3.0824501514434814     
  0.14699999999999996          2.6132998466491699     
  0.14729999999999999          2.0836009979248047     
  0.14760000000000001          1.5023032426834106     
  0.14789999999999998         0.87975955009460449     
  0.14820000000000000         0.22757557034492493     