  -1.4999999999999999E-002     0.0000000000000000     
  -1.4700000000000000E-002     0.0000000000000000     
  -1.4400000000000000E-002     0.0000000000000000     
  -1.4100000000000000E-002     0.0000000000000000     
  -1.3800000000000000E-002     0.0000000000000000     
  -1.3500000000000000E-002     0.0000000000000000     
  -1.3200000000000000E-002     0.0000000000000000     
  -1.2899999999999998E-002     0.0000000000000000     
  -1.2600000000000000E-002     0.0000000000000000     
  -1.2299999999999998E-002     0.0000000000000000     
  -1.2000000000000000E-002     0.0000000000000000     
  -1.1699999999999999E-002     0.0000000000000000     
  -1.1399999999999999E-002     0.0000000000000000     
  -1.1099999999999999E-002     0.0000000000000000     
  -1.0799999999999999E-002     0.0000000000000000     
  -1.0499999999999999E-002     0.0000000000000000     
  -1.0199999999999999E-002     0.0000000000000000     
  -9.8999999999999991E-003     0.0000000000000000     
  -9.5999999999999992E-003     0.0000000000000000     
  -9.2999999999999992E-003     0.0000000000000000     
  -8.9999999999999993E-003     0.0000000000000000     
  -8.6999999999999994E-003     0.0000000000000000     
  -8.3999999999999995E-003     0.0000000000000000     
  -8.0999999999999996E-003     0.0000000000000000     
  -7.7999999999999988E-003     0.0000000000000000     
  -7.4999999999999997E-003     0.0000000000000000     
  -7.1999999999999998E-003     0.0000000000000000     
  -6.8999999999999981E-003     0.0000000000000000     
  -6.5999999999999982E-003     0.0000000000000000     
  -6.3000000000000000E-003     0.0000000000000000     
  -6.0000000000000001E-003     0.0000000000000000     
  -5.6999999999999985E-003     0.0000000000000000     
  -5.3999999999999986E-003     0.0000000000000000     
  -5.1000000000000004E-003     0.0000000000000000     
  -4.7999999999999987E-003     0.0000000000000000     
  -4.5000000000000005E-003     0.0000000000000000     
  -4.1999999999999989E-003     0.0000000000000000     
  -3.8999999999999990E-003     0.0000000000000000     
  -3.5999999999999990E-003     0.0000000000000000     
  -3.2999999999999991E-003     0.0000000000000000     
  -2.9999999999999992E-003     0.0000000000000000     
  -2.6999999999999993E-003     0.0000000000000000     
  -2.3999999999999994E-003     0.0000000000000000     
  -2.0999999999999977E-003     0.0000000000000000     
  -1.7999999999999995E-003     0.0000000000000000     
  -1.4999999999999979E-003     0.0000000000000000     
  -1.1999999999999997E-003     0.0000000000000000     
  -8.9999999999999976E-004     0.0000000000000000     
  -5.9999999999999810E-004     0.0000000000000000     
  -2.9999999999999992E-004     0.0000000000000000     
   0.0000000000000000          0.0000000000000000     
   3.0000000000000165E-004     0.0000000000000000     
   5.9999999999999984E-004     0.0000000000000000     
   9.0000000000000149E-004     0.0000000000000000     
   1.2000000000000031E-003     0.0000000000000000     
   1.5000000000000013E-003     0.0000000000000000     
   1.8000000000000030E-003     0.0000000000000000     
   2.1000000000000012E-003     0.0000000000000000     
   2.3999999999999994E-003     0.0000000000000000     
   2.7000000000000010E-003     0.0000000000000000     
   2.9999999999999992E-003     0.0000000000000000     
   3.3000000000000008E-003     0.0000000000000000     
   3.6000000000000025E-003     0.0000000000000000     
   3.9000000000000007E-003     0.0000000000000000     
   4.2000000000000023E-003     0.0000000000000000     
   4.5000000000000005E-003     0.0000000000000000     
   4.7999999999999987E-003     0.0000000000000000     
   5.1000000000000004E-003     0.0000000000000000     
   5.4000000000000020E-003     0.0000000000000000     
   5.7000000000000037E-003     0.0000000000000000     
   5.9999999999999984E-003     0.0000000000000000     
   6.3000000000000000E-003     0.0000000000000000     
   6.6000000000000017E-003     0.0000000000000000     
   6.9000000000000034E-003     0.0000000000000000     
   7.2000000000000015E-003     0.0000000000000000     
   7.5000000000000032E-003     0.0000000000000000     
   7.8000000000000014E-003     0.0000000000000000     
   8.0999999999999996E-003     0.0000000000000000     
   8.4000000000000012E-003     0.0000000000000000     
   8.7000000000000029E-003     0.0000000000000000     
   9.0000000000000011E-003     0.0000000000000000     
   9.2999999999999992E-003     0.0000000000000000     
   9.6000000000000009E-003     0.0000000000000000     
   9.8999999999999991E-003     0.0000000000000000     
   1.0200000000000001E-002     0.0000000000000000     
   1.0500000000000002E-002     0.0000000000000000     
   1.0800000000000004E-002     0.0000000000000000     
   1.1099999999999999E-002     0.0000000000000000     
   1.1400000000000000E-002     0.0000000000000000     
   1.1700000000000002E-002     0.0000000000000000     
   1.2000000000000004E-002     0.0000000000000000     
   1.2300000000000002E-002     0.0000000000000000     
   1.2600000000000000E-002     0.0000000000000000     
   1.2900000000000002E-002     0.0000000000000000     
   1.3200000000000000E-002     0.0000000000000000     
   1.3500000000000002E-002     0.0000000000000000     
   1.3800000000000003E-002     2.8863144400603296E-039
   1.4100000000000001E-002    -2.6914976261195074E-037
   1.4400000000000000E-002     3.8076661638657138E-037
   1.4700000000000001E-002     4.2940122846286273E-036
   1.4999999999999999E-002    -3.4967302240568902E-035
   1.5300000000000001E-002    -3.2906557556888405E-034
   1.5600000000000003E-002     3.0500499582759548E-033
   1.5899999999999997E-002    -1.0407438407437457E-032
   1.6199999999999999E-002    -2.5230403125903494E-032
   1.6500000000000001E-002     3.6184128926811014E-031
   1.6800000000000002E-002    -1.1163388513229963E-030
   1.7100000000000004E-002    -2.2370571983019240E-030
   1.7400000000000006E-002     3.1640515545227961E-029
   1.7700000000000000E-002    -1.1173837940519807E-028
   1.8000000000000002E-002     3.1529333358443308E-029
   1.8300000000000004E-002     1.5652315133799268E-027
   1.8600000000000005E-002    -8.8073474054966163E-027
   1.8900000000000000E-002     2.5495612514775772E-026
   1.9200000000000002E-002    -8.4249442215605284E-027
   1.9500000000000003E-002    -3.9780315654557243E-025
   1.9799999999999998E-002     2.7831239513917865E-024
   2.0100000000000000E-002    -1.1080094854036916E-023
   2.0400000000000001E-002     2.1253538541960411E-023
   2.0700000000000003E-002     7.2491412019570871E-023
   2.0999999999999998E-002    -9.6464385619452419E-022
   2.1299999999999999E-002     5.8706189857824729E-021
   2.1600000000000001E-002    -2.6816209847023725E-020
   2.1900000000000003E-002     1.0161844256835356E-019
   2.2200000000000004E-002    -3.3048292615502544E-019
   2.2500000000000006E-002     9.3096166253545436E-019
   2.2800000000000001E-002    -2.2787095040591431E-018
   2.3100000000000002E-002     5.1306653332775856E-018
   2.3400000000000004E-002    -1.4530397429356509E-017
   2.3699999999999999E-002     7.5692995205054637E-017
   2.4000000000000000E-002    -5.1269502530707746E-016
   2.4300000000000002E-002     3.2137914047116440E-015
   2.4599999999999997E-002    -1.7402123501465003E-014
   2.4900000000000005E-002     8.0885555477394861E-014
   2.5200000000000000E-002    -3.1934381571705314E-013
   2.5499999999999995E-002     1.0355078424170046E-012
   2.5800000000000003E-002    -2.5138219129674897E-012
   2.6099999999999998E-002     3.0725513336806085E-012
   2.6400000000000007E-002     7.9158570247599355E-012
   2.6700000000000002E-002    -6.0603165504173525E-011
   2.6999999999999996E-002     1.8185855913834397E-010
   2.7300000000000005E-002    -2.2951390269383936E-010
   2.7600000000000000E-002    -4.1904670361588966E-010
   2.7900000000000008E-002     2.4551269895408258E-009
   2.8200000000000003E-002    -3.5848534018682552E-009
   2.8499999999999998E-002    -4.4702286160858072E-009
   2.8800000000000006E-002     2.2231059250895273E-008
   2.9100000000000001E-002    -9.7691339274192781E-009
   2.9400000000000003E-002    -7.0521935747747190E-008
   2.9700000000000004E-002     6.2443281826972043E-008
   3.0000000000000006E-002     2.0178968111624052E-007
   3.0300000000000001E-002    -1.3774690041378857E-007
   3.0600000000000002E-002    -6.4687696020495822E-007
   3.0900000000000004E-002    -5.4415999784853078E-008
   3.1199999999999999E-002     2.5048082298057700E-006
   3.1500000000000007E-002     6.4519875491203971E-006
   3.1800000000000002E-002     1.0906487172611693E-005
   3.2099999999999997E-002     1.6442911458779087E-005
   3.2400000000000005E-002     2.5058569283550750E-005
   3.2700000000000000E-002     3.9375801147330898E-005
   3.3000000000000002E-002     6.2417943564172700E-005
   3.3300000000000003E-002     9.7737533200329026E-005
   3.3599999999999998E-002     1.4996020574422481E-004
   3.3900000000000000E-002     2.2568935530356635E-004
   3.4200000000000001E-002     3.3490854252416109E-004
   3.4500000000000003E-002     4.9216262745842114E-004
   3.4799999999999998E-002     7.1607277582539167E-004
   3.5099999999999999E-002     1.0284451375342230E-003
   3.5400000000000001E-002     1.4549695474500232E-003
   3.5699999999999996E-002     2.0272567390918761E-003
   3.6000000000000004E-002     2.7837338246334414E-003
   3.6299999999999999E-002     3.7674368737764669E-003
   3.6600000000000008E-002     5.0226249411354507E-003
   3.6900000000000002E-002     6.5923205895088155E-003
   3.7199999999999997E-002     8.5149317678672176E-003
   3.7500000000000006E-002     1.0818198871121176E-002
   3.7800000000000000E-002     1.3511067062076998E-002
   3.8100000000000009E-002     1.6574654046288329E-002
   3.8400000000000004E-002     1.9953507749274624E-002
   3.8699999999999998E-002     2.3545066472547171E-002
   3.9000000000000007E-002     2.7189593339897455E-002
   3.9300000000000002E-002     3.0664403555964004E-002
   3.9600000000000003E-002     3.3685363624269993E-002
   3.9900000000000005E-002     3.5907151692887940E-002
   4.0200000000000000E-002     3.6933694993929622E-002
   4.0500000000000001E-002     3.6336514994084856E-002
   4.0800000000000003E-002     3.3684130930388689E-002
   4.1100000000000005E-002     2.8583147336597725E-002
   4.1399999999999999E-002     2.0714314773917109E-002
   4.1700000000000008E-002     9.8823320799098849E-003
   4.2000000000000003E-002    -3.9412841114060682E-003
   4.2299999999999997E-002    -2.0571235134694388E-002
   4.2600000000000006E-002    -3.9583140911736425E-002
   4.2900000000000001E-002    -6.0299684395021425E-002
   4.3200000000000002E-002    -8.1798676817311566E-002
   4.3500000000000004E-002   -0.10294623968567462     
   4.3799999999999999E-002   -0.12244630019959191     
   4.4100000000000000E-002   -0.13893821765147951     
   4.4400000000000002E-002   -0.15107848339105434     
   4.4700000000000004E-002   -0.15764964432402806     
   4.4999999999999998E-002   -0.15768484934185789     
   4.5300000000000000E-002   -0.15054523252523833     
   4.5600000000000002E-002   -0.13601673997576702     
   4.5899999999999996E-002   -0.11434365364294852     
   4.6200000000000005E-002    -8.6233383094948213E-002
   4.6500000000000000E-002    -5.2842398742449670E-002
   4.6799999999999994E-002    -1.5688912348666539E-002
   4.7100000000000003E-002     2.3452521995994569E-002
   4.7399999999999998E-002     6.2663755134887644E-002
   4.7700000000000006E-002    0.10004918052257628     
   4.8000000000000001E-002    0.13386198586026055     
   4.8300000000000010E-002    0.16261911925828532     
   4.8600000000000004E-002    0.18522983779694613     
   4.8899999999999999E-002    0.20103264758605555     
   4.9200000000000008E-002    0.20981671197445095     
   4.9500000000000002E-002    0.21183432799986424     
   4.9800000000000011E-002    0.20771485407227619     
   5.0100000000000006E-002    0.19840936529227005     
   5.0400000000000000E-002    0.18508415990168281     
   5.0700000000000009E-002    0.16899139352788328     
   5.1000000000000004E-002    0.15139410434604983     
   5.1299999999999998E-002    0.13343957623622194     
   5.1600000000000007E-002    0.11609019382348285     
   5.1900000000000002E-002    0.10006846062010011     
   5.2200000000000010E-002     8.5790131208479892E-002
   5.2500000000000005E-002     7.3397537694517734E-002
   5.2800000000000000E-002     6.2739853444235827E-002
   5.3099999999999994E-002     5.3375195448261747E-002
   5.3400000000000003E-002     4.4678171426858038E-002
   5.3699999999999998E-002     3.5826498810743068E-002
   5.4000000000000006E-002     2.5903341438127891E-002
   5.4300000000000001E-002     1.3976749361495344E-002
   5.4599999999999996E-002    -8.8447172168362731E-004
   5.4900000000000004E-002    -1.9475096874363662E-002
   5.5199999999999999E-002    -4.2461937145702233E-002
   5.5499999999999994E-002    -7.0266921563598039E-002
   5.5800000000000002E-002   -0.10305039479243128     
   5.6099999999999997E-002   -0.14070175781919492     
   5.6400000000000006E-002   -0.18274178199469215     
   5.6700000000000000E-002   -0.22841683183894101     
   5.6999999999999995E-002   -0.27663811925156523     
   5.7300000000000004E-002   -0.32599869964658090     
   5.7599999999999998E-002   -0.37487484553888706     
   5.7900000000000007E-002   -0.42138850219609481     
   5.8200000000000002E-002   -0.46353539446758774     
   5.8499999999999996E-002   -0.49924604887912238     
   5.8800000000000005E-002   -0.52643819582200280     
   5.9100000000000000E-002   -0.54316109766944365     
   5.9400000000000008E-002   -0.54765600093544364     
   5.9700000000000003E-002   -0.53846401180097203     
   6.0000000000000012E-002   -0.51457247600114542     
   6.0300000000000006E-002   -0.47544183689491426     
   6.0600000000000001E-002   -0.42109265642966598     
   6.0900000000000010E-002   -0.35222577445316183     
   6.1200000000000004E-002   -0.27012884856842145     
   6.1500000000000013E-002   -0.17675198762710331     
   6.1800000000000008E-002    -7.4614610855205044E-002
   6.2100000000000002E-002     3.3326687717467163E-002
   6.2399999999999997E-002    0.14373728393549978     
   6.2700000000000006E-002    0.25315737376153713     
   6.3000000000000000E-002    0.35817123954207197     
   6.3300000000000009E-002    0.45553608265582390     
   6.3600000000000004E-002    0.54252389832026537     
   6.3899999999999998E-002    0.61695075692790624     
   6.4199999999999993E-002    0.67734260548648351     
   6.4500000000000002E-002    0.72308019226891318     
   6.4800000000000010E-002    0.75422660526666263     
   6.5100000000000005E-002    0.77167077231583647     
   6.5400000000000000E-002    0.77678871726542909     
   6.5700000000000008E-002    0.77134440210867083     
   6.5999999999999989E-002    0.75729243436975224     
   6.6299999999999998E-002    0.73636585099586682     
   6.6600000000000006E-002    0.71006463604219050     
   6.6900000000000001E-002    0.67928244808655336     
   6.7199999999999996E-002    0.64421298137798289     
   6.7500000000000004E-002    0.60444032143467652     
   6.7800000000000013E-002    0.55882992906422402     
   6.8099999999999994E-002    0.50579107763742925     
   6.8400000000000002E-002    0.44346477365047754     
   6.8700000000000011E-002    0.36994472584595073     
   6.8999999999999992E-002    0.28365705029936539     
   6.9300000000000000E-002    0.18357270039459883     
   6.9600000000000009E-002     6.9515053425064810E-002
   6.9900000000000004E-002    -5.7753059284028074E-002
   7.0199999999999999E-002   -0.19639784758476875     
   7.0500000000000007E-002   -0.34357094300134428     
   7.0800000000000016E-002   -0.49554513867751915     
   7.1099999999999997E-002   -0.64789357738644782     
   7.1400000000000005E-002   -0.79575577894970095     
   7.1700000000000000E-002   -0.93411716539626610     
   7.1999999999999995E-002    -1.0580825498337063     
   7.2300000000000003E-002    -1.1631579709123159     
   7.2600000000000012E-002    -1.2454366828743488     
   7.2900000000000006E-002    -1.3017388076951519     
   7.3200000000000001E-002    -1.3297481710949199     
   7.3499999999999996E-002    -1.3280190930543441     
   7.3800000000000004E-002    -1.2959454301260394     
   7.4099999999999999E-002    -1.2337495803352780     
   7.4400000000000008E-002    -1.1424199221937243     
   7.4700000000000003E-002    -1.0236311948692851     
   7.5000000000000011E-002   -0.87958028022217505     
   7.5299999999999992E-002   -0.71308677314066671     
   7.5600000000000001E-002   -0.52735702337884760     
   7.5900000000000009E-002   -0.32596446068538665     
   7.6200000000000004E-002   -0.11283670733843376     
   7.6499999999999999E-002    0.10796388142294600     
   7.6800000000000007E-002    0.33219174418246489     
   7.7099999999999988E-002    0.55561963315366469     
   7.7399999999999997E-002    0.77405085277371910     
   7.7700000000000005E-002    0.98341910159421175     
   7.8000000000000014E-002     1.1798513782750959     
   7.8299999999999995E-002     1.3596988282391180     
   7.8600000000000003E-002     1.5194692889721750     
   7.8900000000000012E-002     1.6558829026959287     
   7.9199999999999993E-002     1.7657113860295368     
   7.9500000000000001E-002     1.8459118268257555     
   7.9800000000000010E-002     1.8933563054649696     
   8.0100000000000018E-002     1.9051384393834354     
   8.0399999999999999E-002     1.8785624275222688     
   8.0700000000000008E-002     1.8112236663347119     
   8.1000000000000003E-002     1.7015574987326545     
   8.1299999999999997E-002     1.5488196642877554     
   8.1600000000000006E-002     1.3537991376190988     
   8.1900000000000014E-002     1.1187508017773524     
   8.2199999999999995E-002    0.84788168668503694     
   8.2500000000000004E-002    0.54740145534078399     
   8.2799999999999999E-002    0.22538405590922039     
   8.3100000000000007E-002   -0.10834994472461768     
   8.3400000000000002E-002   -0.44296857398093081     
   8.3700000000000011E-002   -0.76704342553400195     
   8.4000000000000005E-002    -1.0693485938159739     
   8.4300000000000000E-002    -1.3397945228855832     
   8.4599999999999995E-002    -1.5701009915884043     
   8.4900000000000003E-002    -1.7541869897908668     
   8.5199999999999998E-002    -1.8889858558493557     
   8.5500000000000007E-002    -1.9742913360985170     
   8.5800000000000001E-002    -2.0125065618873350     
   8.6100000000000010E-002    -2.0085116505011200     
   8.6399999999999991E-002    -1.9685262005923576     
   8.6699999999999999E-002    -1.8997212255414482     
   8.7000000000000008E-002    -1.8088933494228741     
   8.7300000000000003E-002    -1.7018661960825412     
   8.7599999999999997E-002    -1.5830019439334819     
   8.7900000000000006E-002    -1.4540754704255932     
   8.8200000000000014E-002    -1.3150817849110013     
   8.8499999999999995E-002    -1.1637705807457941     
   8.8800000000000004E-002   -0.99630389488501336     
   8.9100000000000013E-002   -0.80830606855039022     
   8.9399999999999993E-002   -0.59514478408604621     
   8.9700000000000002E-002   -0.35357202173165447     
   9.0000000000000011E-002    -8.2158990619964456E-002
   9.0299999999999991E-002    0.21781140409290156     
   9.0600000000000000E-002    0.54167757766009039     
   9.0900000000000009E-002    0.88176570852661484     
   9.1200000000000017E-002     1.2267287725928639     
   9.1499999999999998E-002     1.5626847143069966     
   9.1800000000000007E-002     1.8736269520365383     
   9.2100000000000001E-002     2.1421256324528883     
   9.2399999999999996E-002     2.3510541089409429     
   9.2700000000000005E-002     2.4841241268071599     
   9.3000000000000013E-002     2.5272986638104982     
   9.3300000000000008E-002     2.4701303682858082     
   9.3600000000000003E-002     2.3060927651662269     
   9.3899999999999997E-002     2.0339076922436803     
   9.4200000000000006E-002     1.6578798254356677     
   9.4500000000000001E-002     1.1878153631406576     
   9.4800000000000009E-002    0.63967030253225587     
   9.5100000000000004E-002     3.4289184864684685E-002
   9.5399999999999999E-002   -0.60287829060334808     
   9.5699999999999993E-002    -1.2426218051513871     
   9.6000000000000002E-002    -1.8542008571529891     
   9.6300000000000011E-002    -2.4059008673107911     
   9.6600000000000005E-002    -2.8676414751553523     
   9.6900000000000000E-002    -3.2127070207904183     
   9.7200000000000009E-002    -3.4190822292584357     
   9.7499999999999989E-002    -3.4720904880593082     
   9.7799999999999998E-002    -3.3643338937785359     
   9.8100000000000007E-002    -3.0975508837813663     
   9.8400000000000015E-002    -2.6826235605840836     
   9.8699999999999996E-002    -2.1384163668889187     
   9.9000000000000005E-002    -1.4920612808562481     
   9.9300000000000013E-002   -0.77598821975968413     
   9.9599999999999994E-002    -2.6624036047554256E-002
   9.9900000000000003E-002    0.71798725120459039     
  0.10020000000000001          1.4214900146498906     
  0.10049999999999999          2.0505661930934664     
  0.10080000000000000          2.5778066626166662     
  0.10110000000000001          2.9830642711686295     
  0.10140000000000000          3.2541021549878764     
  0.10170000000000000          3.3874543031804905     
  0.10200000000000001          3.3872893804534812     
  0.10230000000000002          3.2646818285847417     
  0.10260000000000000          3.0361839087761808     
  0.10290000000000001          2.7217113446020846     
  0.10320000000000000          2.3427644798188325     
  0.10350000000000001          1.9207201854767675     
  0.10380000000000000          1.4751139906942683     
  0.10410000000000001          1.0229253433330978     
  0.10440000000000001         0.57799388856667200     
  0.10470000000000000         0.15060463392181322     
  0.10500000000000000        -0.25119343216592505     
  0.10530000000000000        -0.62204635956470256     
  0.10560000000000000        -0.95738596041632107     
  0.10590000000000001         -1.2528289103186054     
  0.10620000000000000         -1.5042958523176253     
  0.10650000000000001         -1.7060046373802180     
  0.10679999999999999         -1.8520956365450090     
  0.10710000000000000         -1.9360557372334313     
  0.10740000000000001         -1.9510790423223199     
  0.10770000000000000         -1.8923039173643446     
  0.10800000000000000         -1.7562553151251024     
  0.10830000000000001         -1.5431603988422111     
  0.10859999999999999         -1.2573145200440194     
  0.10890000000000000        -0.90709593797463128     
  0.10920000000000001        -0.50634340974407532     
  0.10950000000000001         -7.2529098833130412E-002
  0.10979999999999999         0.37291946805276055     
  0.11009999999999999         0.80610807780131566     
  0.11040000000000001          1.2029073263825509     
  0.11070000000000001          1.5396733859968563     
  0.11100000000000000          1.7962632403314558     
  0.11130000000000000          1.9568457175289993     
  0.11160000000000002          2.0115117372275506     
  0.11190000000000001          1.9577867318777891     
  0.11220000000000001          1.8000982783793020     
  0.11250000000000000          1.5503300951418488     
  0.11280000000000000          1.2265318860389112     
  0.11309999999999999         0.85141215815024918     
  0.11340000000000001         0.45076847557194100     
  0.11369999999999998          5.0785539399994306E-002
  0.11400000000000000        -0.32389607694224498     
  0.11430000000000000        -0.65236214827994488     
  0.11460000000000002        -0.91919474082032693     
  0.11489999999999999         -1.1154668131632874     
  0.11520000000000001         -1.2395523727983147     
  0.11550000000000001         -1.2964022067993284     
  0.11580000000000000         -1.2965890186908524     
  0.11609999999999999         -1.2547289782624844     
  0.11640000000000002         -1.1874411894601877     
  0.11670000000000001         -1.1113061877115413     
  0.11700000000000001         -1.0404730368348112     
  0.11730000000000000        -0.98515683065302184     
  0.11760000000000000        -0.95080425814161273     
  0.11789999999999999        -0.93690385523823849     
  0.11820000000000001        -0.93794985030641698     
  0.11850000000000001        -0.94452194918190813     
  0.11880000000000000        -0.94433692791571744     
  0.11910000000000000        -0.92484887694217477     
  0.11940000000000002        -0.87481909246071865     
  0.11970000000000001        -0.78626273852304607     
  0.12000000000000001        -0.65592503564694482     
  0.12030000000000000        -0.48612835374718566     
  0.12060000000000000        -0.28503341634168677     
  0.12089999999999999         -6.5320971916801973E-002
  0.12119999999999999         0.15635426536404484     
  0.12150000000000001         0.36144278992014378     
  0.12180000000000001         0.53226455618386836     
  0.12210000000000000         0.65300596791557908     
  0.12239999999999999         0.71237899129662452     
  0.12270000000000002         0.70504217316639028     
  0.12300000000000001         0.63138918069411787     
  0.12330000000000001         0.49884988395497309     
  0.12360000000000000         0.31983261812632513     
  0.12390000000000000         0.11116309637225008     
  0.12419999999999999        -0.10787643212369069     
  0.12450000000000001        -0.31831164710138005     
  0.12480000000000001        -0.50222514951134123     
  0.12509999999999999        -0.64590792943777942     
  0.12540000000000001        -0.73990721935728132     
  0.12570000000000003        -0.78001520191960694     
  0.12600000000000000        -0.76777215221591533     
  0.12630000000000002        -0.70843884868304485     
  0.12659999999999999        -0.61123045476285753     
  0.12690000000000001        -0.48703901450395293     
  0.12719999999999998        -0.34677898341515956     
  0.12750000000000000        -0.20058924163690839     
  0.12780000000000002         -5.5661664956603740E-002
  0.12809999999999999          8.3368368931883152E-002
  0.12840000000000001         0.21490502433367720     
  0.12869999999999998         0.34052172054918728     
  0.12900000000000000         0.46333894348281390     
  0.12930000000000003         0.58750653499015471     
  0.12959999999999999         0.71701388232760976     
  0.12990000000000002         0.85420859331130927     
  0.13019999999999998         0.99915310753132047     
  0.13050000000000000          1.1490095654883277     
  0.13080000000000003          1.2977026735721111     
  0.13109999999999999          1.4371419259094935     
  0.13140000000000002          1.5567977228734335     
  0.13169999999999998          1.6456093289126272     
  0.13200000000000001          1.6930445359479904     
  0.13229999999999997          1.6893934917085360     
  0.13260000000000000          1.6288252593298012     
  0.13290000000000002          1.5080718720045496     
  0.13319999999999999          1.3281456077931750     
  0.13350000000000001          1.0944474653107221     
  0.13380000000000003         0.81537556547354462     
  0.13410000000000000         0.50336803369395078     
  0.13440000000000002         0.17225262431884047     
  0.13469999999999999        -0.16262401572291374     
  0.13500000000000001        -0.48572893837401132     
  0.13529999999999998        -0.78311550892401982     
  0.13560000000000000         -1.0416985423984784     
  0.13590000000000002         -1.2518624101134677     
  0.13619999999999999         -1.4062486090143835     
  0.13650000000000001         -1.5004190640437329     
  0.13680000000000003         -1.5332845986726440     
  0.13710000000000000         -1.5055878235367075     
  0.13740000000000002         -1.4208223796855748     
  0.13769999999999999         -1.2840494981794386     
  0.13800000000000001         -1.1014819104759006     
  0.13829999999999998        -0.88029089024948792     
  0.13860000000000000        -0.62868189024234122     
  0.13890000000000002        -0.35542481652106162     
  0.13919999999999999         -6.9871279213128190E-002
  0.13950000000000001         0.21788199149763710     
  0.13979999999999998         0.49688888298166312     
  0.14010000000000000         0.75563121000702083     
  0.14040000000000002         0.98240623674881178     
  0.14069999999999999          1.1648924036239876     
  0.14100000000000001          1.2914933304624654     
  0.14130000000000004          1.3517845652306448     
  0.14160000000000000          1.3371773288341231     
  0.14189999999999997          1.2425251868059775     
  0.14219999999999999          1.0661123556885830     
  0.14250000000000002         0.81110827628705451     
  0.14279999999999998         0.48582041655869190     
  0.14310000000000000         0.10351297000038162     
  0.14339999999999997        -0.31703459595803896     
  0.14369999999999999        -0.75348292768667946     
  0.14400000000000002         -1.1799610217873493     
  0.14429999999999998         -1.5690415598085181     
  0.14460000000000001         -1.8945002670011348     
  0.14490000000000003         -2.1316334733969597     
  0.14520000000000000         -2.2608638916895671     
  0.14550000000000002         -2.2686912741131948     
  0.14579999999999999         -2.1495459526795031     
  0.14610000000000001         -1.9069673009398684     
  0.14640000000000003         -1.5529899639053006     
  0.14670000000000000         -1.1091158114616746     
  0.14699999999999996        -0.60382113053290709     
  0.14729999999999999         -7.1515895094633741E-002
  0.14760000000000001         0.45011989084460602     
  0.14789999999999998         0.92366143438936632     
  0.14820000000000000          1.3142629487589446     