  -1.4999999999999999E-002     0.0000000000000000     
  -1.4700000000000000E-002     0.0000000000000000     
  -1.4400000000000000E-002     0.0000000000000000     
  -1.4100000000000000E-002     0.0000000000000000     
  -1.3800000000000000E-002     0.0000000000000000     
  -1.3500000000000000E-002     0.0000000000000000     
  -1.3200000000000000E-002     0.0000000000000000     
  -1.2899999999999998E-002     0.0000000000000000     
  -1.2600000000000000E-002     0.0000000000000000     
  -1.2299999999999998E-002     0.0000000000000000     
  -1.2000000000000000E-002     0.0000000000000000     
  -1.1699999999999999E-002     0.0000000000000000     
  -1.1399999999999999E-002     0.0000000000000000     
  -1.1099999999999999E-002     0.0000000000000000     
  -1.0799999999999999E-002     0.0000000000000000     
  -1.0499999999999999E-002     0.0000000000000000     
  -1.0199999999999999E-002     0.0000000000000000     
  -9.8999999999999991E-003     0.0000000000000000     
  -9.5999999999999992E-003     0.0000000000000000     
  -9.2999999999999992E-003     0.0000000000000000     
  -8.9999999999999993E-003     0.0000000000000000     
  -8.6999999999999994E-003     0.0000000000000000     
  -8.3999999999999995E-003     0.0000000000000000     
  -8.0999999999999996E-003     0.0000000000000000     
  -7.7999999999999988E-003     0.0000000000000000     
  -7.4999999999999997E-003     0.0000000000000000     
  -7.1999999999999998E-003     0.0000000000000000     
  -6.8999999999999981E-003     0.0000000000000000     
  -6.5999999999999982E-003     0.0000000000000000     
  -6.3000000000000000E-003     0.0000000000000000     
  -6.0000000000000001E-003     0.0000000000000000     
  -5.6999999999999985E-003     0.0000000000000000     
  -5.3999999999999986E-003     0.0000000000000000     
  -5.1000000000000004E-003     0.0000000000000000     
  -4.7999999999999987E-003     0.0000000000000000     
  -4.5000000000000005E-003     0.0000000000000000     
  -4.1999999999999989E-003     0.0000000000000000     
  -3.8999999999999990E-003     0.0000000000000000     
  -3.5999999999999990E-003     0.0000000000000000     
  -3.2999999999999991E-003     0.0000000000000000     
  -2.9999999999999992E-003     0.0000000000000000     
  -2.6999999999999993E-003     0.0000000000000000     
  -2.3999999999999994E-003     0.0000000000000000     
  -2.0999999999999977E-003     0.0000000000000000     
  -1.7999999999999995E-003     0.0000000000000000     
  -1.4999999999999979E-003     0.0000000000000000     
  -1.1999999999999997E-003     0.0000000000000000     
  -8.9999999999999976E-004     0.0000000000000000     
  -5.9999999999999810E-004     0.0000000000000000     
  -2.9999999999999992E-004     0.0000000000000000     
   0.0000000000000000          0.0000000000000000     
   3.0000000000000165E-004     0.0000000000000000     
   5.9999999999999984E-004     0.0000000000000000     
   9.0000000000000149E-004     0.0000000000000000     
   1.2000000000000031E-003     0.0000000000000000     
   1.5000000000000013E-003     0.0000000000000000     
   1.8000000000000030E-003     0.0000000000000000     
   2.1000000000000012E-003     0.0000000000000000     
   2.3999999999999994E-003     0.0000000000000000     
   2.7000000000000010E-003     0.0000000000000000     
   2.9999999999999992E-003     0.0000000000000000     
   3.3000000000000008E-003     0.0000000000000000     
   3.6000000000000025E-003     0.0000000000000000     
   3.9000000000000007E-003     0.0000000000000000     
   4.2000000000000023E-003     0.0000000000000000     
   4.5000000000000005E-003     0.0000000000000000     
   4.7999999999999987E-003     0.0000000000000000     
   5.1000000000000004E-003     0.0000000000000000     
   5.4000000000000020E-003     0.0000000000000000     
   5.7000000000000037E-003     0.0000000000000000     
   5.9999999999999984E-003     0.0000000000000000     
   6.3000000000000000E-003     0.0000000000000000     
   6.6000000000000017E-003     0.0000000000000000     
   6.9000000000000034E-003     0.0000000000000000     
   7.2000000000000015E-003     0.0000000000000000     
   7.5000000000000032E-003     0.0000000000000000     
   7.8000000000000014E-003     0.0000000000000000     
   8.0999999999999996E-003     0.0000000000000000     
   8.4000000000000012E-003     0.0000000000000000     
   8.7000000000000029E-003     0.0000000000000000     
   9.0000000000000011E-003     0.0000000000000000     
   9.2999999999999992E-003     0.0000000000000000     
   9.6000000000000009E-003     0.0000000000000000     
   9.8999999999999991E-003     0.0000000000000000     
   1.0200000000000001E-002     0.0000000000000000     
   1.0500000000000002E-002     0.0000000000000000     
   1.0800000000000004E-002     0.0000000000000000     
   1.1099999999999999E-002     0.0000000000000000     
   1.1400000000000000E-002     0.0000000000000000     
   1.1700000000000002E-002     0.0000000000000000     
   1.2000000000000004E-002     0.0000000000000000     
   1.2300000000000002E-002     0.0000000000000000     
   1.2600000000000000E-002     2.6015686688273845E-036
   1.2900000000000002E-002    -3.2580889361843998E-035
   1.3200000000000000E-002    -7.2418809040803288E-035
   1.3500000000000002E-002     1.2267257007089845E-033
   1.3800000000000003E-002    -1.0219837884835202E-033
   1.4100000000000001E-002    -3.3457513837751112E-032
   1.4400000000000000E-002     1.2863833173633221E-031
   1.4700000000000001E-002     2.7697451634894156E-031
   1.4999999999999999E-002    -3.3760611529627587E-030
   1.5300000000000001E-002     7.2076784647787822E-030
   1.5600000000000003E-002     2.4522185887871062E-029
   1.5899999999999997E-002    -1.7696914054318734E-028
   1.6199999999999999E-002     2.9769392854710024E-028
   1.6500000000000001E-002     8.9945569894049888E-028
   1.6800000000000002E-002    -5.2931052959393604E-027
   1.7100000000000004E-002     3.5960628809788144E-027
   1.7400000000000006E-002     6.6215819581821366E-026
   1.7700000000000000E-002    -3.8923866317040697E-025
   1.8000000000000002E-002     1.1773400925549172E-024
   1.8300000000000004E-002    -8.6860813602877487E-025
   1.8600000000000005E-002    -1.6800903968463818E-023
   1.8900000000000000E-002     1.5258779979686436E-022
   1.9200000000000002E-002    -8.9279314015726286E-022
   1.9500000000000003E-002     4.1515375033566008E-021
   1.9799999999999998E-002    -1.6040243767753626E-020
   2.0100000000000000E-002     5.1259878496725351E-020
   2.0400000000000001E-002    -1.2678918446696825E-019
   2.0700000000000003E-002     1.7059783293051300E-019
   2.0999999999999998E-002     4.6173009827678038E-019
   2.1299999999999999E-002    -4.8135463777711360E-018
   2.1600000000000001E-002     2.3151518104660813E-017
   2.1900000000000003E-002    -7.5961702951528841E-017
   2.2200000000000004E-002     1.2695352312760115E-016
   2.2500000000000006E-002     4.8637817677468081E-016
   2.2800000000000001E-002    -6.1339246128135766E-015
   2.3100000000000002E-002     3.7587049764959898E-014
   2.3400000000000004E-002    -1.7119335463111618E-013
   2.3699999999999999E-002     6.1202020014416991E-013
   2.4000000000000000E-002    -1.6439275071430948E-012
   2.4300000000000002E-002     2.6326933254966489E-012
   2.4599999999999997E-002     1.8167563807514053E-012
   2.4900000000000005E-002    -2.7816592779172922E-011
   2.5200000000000000E-002     8.9940922765041620E-011
   2.5499999999999995E-002    -1.1478906714046389E-010
   2.5800000000000003E-002    -1.9977314247299205E-010
   2.6099999999999998E-002     1.0993840282580436E-009
   2.6400000000000007E-002    -1.2380745317841502E-009
   2.6700000000000002E-002    -2.9609654728091073E-009
   2.6999999999999996E-002     8.8794651631474153E-009
   2.7300000000000005E-002     3.5514218232890471E-009
   2.7600000000000000E-002    -3.5181042079557301E-008
   2.7900000000000008E-002    -6.9875758512694119E-009
   2.8200000000000003E-002     1.0702810016027797E-007
   2.8499999999999998E-002     4.6984968804508753E-008
   2.8800000000000006E-002    -2.7067019914284174E-007
   2.9100000000000001E-002    -2.4903260964492802E-007
   2.9400000000000003E-002     6.7664080916074454E-007
   2.9700000000000004E-002     1.9094959498033859E-006
   3.0000000000000006E-002     2.4134708382916870E-006
   3.0300000000000001E-002     2.7112193947687047E-006
   3.0600000000000002E-002     4.7226749302353710E-006
   3.0900000000000004E-002     9.1857100414927118E-006
   3.1199999999999999E-002     1.4951834600651637E-005
   3.1500000000000007E-002     2.1810796170029789E-005
   3.1800000000000002E-002     3.2383879442932084E-005
   3.2099999999999997E-002     4.9877879064297304E-005
   3.2400000000000005E-002     7.5694428232964128E-005
   3.2700000000000000E-002     1.1138535774080083E-004
   3.3000000000000002E-002     1.6177276847884059E-004
   3.3300000000000003E-002     2.3378468176815659E-004
   3.3599999999999998E-002     3.3335096668452024E-004
   3.3900000000000000E-002     4.6660244697704911E-004
   3.4200000000000001E-002     6.4371526241302490E-004
   3.4500000000000003E-002     8.7816361337900162E-004
   3.4799999999999998E-002     1.1818960774689913E-003
   3.5099999999999999E-002     1.5645072562620044E-003
   3.5400000000000001E-002     2.0375174935907125E-003
   3.5699999999999996E-002     2.6150566991418600E-003
   3.6000000000000004E-002     3.3074538223445415E-003
   3.6299999999999999E-002     4.1159763932228088E-003
   3.6600000000000008E-002     5.0346050411462784E-003
   3.6900000000000002E-002     6.0520926490426064E-003
   3.7199999999999997E-002     7.1464185602962971E-003
   3.7500000000000006E-002     8.2780066877603531E-003
   3.7800000000000000E-002     9.3904919922351837E-003
   3.8100000000000009E-002     1.0415168479084969E-002
   3.8400000000000004E-002     1.1270583607256413E-002
   3.8699999999999998E-002     1.1858917772769928E-002
   3.9000000000000007E-002     1.2070401571691036E-002
   3.9300000000000002E-002     1.1795002967119217E-002
   3.9600000000000003E-002     1.0930395685136318E-002
   3.9900000000000005E-002     9.3829352408647537E-003
   4.0200000000000000E-002     7.0736664347350597E-003
   4.0500000000000001E-002     3.9552687667310238E-003
   4.0800000000000003E-002     2.1408064640127122E-005
   4.1100000000000005E-002    -4.6953866258263588E-003
   4.1399999999999999E-002    -1.0125132277607918E-002
   4.1700000000000008E-002    -1.6153426840901375E-002
   4.2000000000000003E-002    -2.2618986666202545E-002
   4.2299999999999997E-002    -2.9325364157557487E-002
   4.2600000000000006E-002    -3.6052241921424866E-002
   4.2900000000000001E-002    -4.2559809982776642E-002
   4.3200000000000002E-002    -4.8589512705802917E-002
   4.3500000000000004E-002    -5.3872033953666687E-002
   4.3799999999999999E-002    -5.8137413114309311E-002
   4.4100000000000000E-002    -6.1112508177757263E-002
   4.4400000000000002E-002    -6.2517829239368439E-002
   4.4700000000000004E-002    -6.2067069113254547E-002
   4.4999999999999998E-002    -5.9474874287843704E-002
   4.5300000000000000E-002    -5.4462023079395294E-002
   4.5600000000000002E-002    -4.6761348843574524E-002
   4.5899999999999996E-002    -3.6138907074928284E-002
   4.6200000000000005E-002    -2.2427115589380264E-002
   4.6500000000000000E-002    -5.5585498921573162E-003
   4.6799999999999994E-002     1.4406927861273289E-002
   4.7100000000000003E-002     3.7240765988826752E-002
   4.7399999999999998E-002     6.2507838010787964E-002
   4.7700000000000006E-002     8.9552082121372223E-002
   4.8000000000000001E-002    0.11750426143407822     
   4.8300000000000010E-002    0.14530062675476074     
   4.8600000000000004E-002    0.17171978950500488     
   4.8899999999999999E-002    0.19544993340969086     
   4.9200000000000008E-002    0.21517884731292725     
   4.9500000000000002E-002    0.22968858480453491     
   4.9800000000000011E-002    0.23794730007648468     
   5.0100000000000006E-002    0.23919211328029633     
   5.0400000000000000E-002    0.23299799859523773     
   5.0700000000000009E-002    0.21932306885719299     
   5.1000000000000004E-002    0.19852076470851898     
   5.1299999999999998E-002    0.17130364477634430     
   5.1600000000000007E-002    0.13868401944637299     
   5.1900000000000002E-002    0.10189589858055115     
   5.2200000000000010E-002     6.2308561056852341E-002
   5.2500000000000005E-002     2.1317750215530396E-002
   5.2800000000000000E-002    -1.9757770001888275E-002
   5.3099999999999994E-002    -5.9765610843896866E-002
   5.3400000000000003E-002    -9.7773812711238861E-002
   5.3699999999999998E-002   -0.13309673964977264     
   5.4000000000000006E-002   -0.16531974077224731     
   5.4300000000000001E-002   -0.19430382549762726     
   5.4599999999999996E-002   -0.22015053033828735     
   5.4900000000000004E-002   -0.24313943088054657     
   5.5199999999999999E-002   -0.26368391513824463     
   5.5499999999999994E-002   -0.28229951858520508     
   5.5800000000000002E-002   -0.29953289031982422     
   5.6099999999999997E-002   -0.31588879227638245     
   5.6400000000000006E-002   -0.33178907632827759     
   5.6700000000000000E-002   -0.34753304719924927     
   5.6999999999999995E-002   -0.36322391033172607     
   5.7300000000000004E-002   -0.37871485948562622     
   5.7599999999999998E-002   -0.39357990026473999     
   5.7900000000000007E-002   -0.40707591176033020     
   5.8200000000000002E-002   -0.41812542080879211     
   5.8499999999999996E-002   -0.42532142996788025     
   5.8800000000000005E-002   -0.42694970965385437     
   5.9100000000000000E-002   -0.42106208205223083     
   5.9400000000000008E-002   -0.40556624531745911     
   5.9700000000000003E-002   -0.37834718823432922     
   6.0000000000000012E-002   -0.33743089437484741     
   6.0300000000000006E-002   -0.28114759922027588     
   6.0600000000000001E-002   -0.20831108093261719     
   6.0900000000000010E-002   -0.11838715523481369     
   6.1200000000000004E-002    -1.1695876717567444E-002
   6.1500000000000013E-002    0.11049361526966095     
   6.1800000000000008E-002    0.24587978422641754     
   6.2100000000000002E-002    0.39108914136886597     
   6.2399999999999997E-002    0.54169899225234985     
   6.2700000000000006E-002    0.69236648082733154     
   6.3000000000000000E-002    0.83703953027725220     
   6.3300000000000009E-002    0.96918094158172607     
   6.3600000000000004E-002     1.0820919275283813     
   6.3899999999999998E-002     1.1693159341812134     
   6.4199999999999993E-002     1.2250221967697144     
   6.4500000000000002E-002     1.2443929910659790     
   6.4800000000000010E-002     1.2240030765533447     
   6.5100000000000005E-002     1.1621775627136230     
   6.5400000000000000E-002     1.0592029094696045     
   6.5700000000000008E-002    0.91743493080139160     
   6.5999999999999989E-002    0.74132239818572998     
   6.6299999999999998E-002    0.53733557462692261     
   6.6600000000000006E-002    0.31364580988883972     
   6.6900000000000001E-002     7.9674735665321350E-002
   6.7199999999999996E-002   -0.15434408187866211     
   6.7500000000000004E-002   -0.37792903184890747     
   6.7800000000000013E-002   -0.58096772432327271     
   6.8099999999999994E-002   -0.75443530082702637     
   6.8400000000000002E-002   -0.89092391729354858     
   6.8700000000000011E-002   -0.98504662513732910     
   6.8999999999999992E-002    -1.0338753461837769     
   6.9300000000000000E-002    -1.0372002124786377     
   6.9600000000000009E-002   -0.99755424261093140     
   6.9900000000000004E-002   -0.91997873783111572     
   7.0199999999999999E-002   -0.81173270940780640     
   7.0500000000000007E-002   -0.68190622329711914     
   7.0800000000000016E-002   -0.54081147909164429     
   7.1099999999999997E-002   -0.39919641613960266     
   7.1400000000000005E-002   -0.26750239729881287     
   7.1700000000000000E-002   -0.15526196360588074     
   7.1999999999999995E-002    -7.0416174829006195E-002
   7.2300000000000003E-002    -1.8670557066798210E-002
   7.2600000000000012E-002    -3.0851573683321476E-003
   7.2900000000000006E-002    -2.3895597085356712E-002
   7.3200000000000001E-002    -7.8496485948562622E-002
   7.3499999999999996E-002   -0.16154034435749054     
   7.3800000000000004E-002   -0.26528126001358032     
   7.4099999999999999E-002   -0.38017722964286804     
   7.4400000000000008E-002   -0.49559074640274048     
   7.4700000000000003E-002   -0.60044169425964355     
   7.5000000000000011E-002   -0.68408447504043579     
   7.5299999999999992E-002   -0.73713284730911255     
   7.5600000000000001E-002   -0.75215584039688110     
   7.5900000000000009E-002   -0.72427278757095337     
   7.6200000000000004E-002   -0.65153092145919800     
   7.6499999999999999E-002   -0.53513926267623901     
   7.6800000000000007E-002   -0.37944567203521729     
   7.7099999999999988E-002   -0.19163596630096436     
   7.7399999999999997E-002     1.8745418637990952E-002
   7.7700000000000005E-002    0.24047592282295227     
   7.8000000000000014E-002    0.46137478947639465     
   7.8299999999999995E-002    0.66921275854110718     
   7.8600000000000003E-002    0.85260117053985596     
   7.8900000000000012E-002     1.0017321109771729     
   7.9199999999999993E-002     1.1089562177658081     
   7.9500000000000001E-002     1.1692786216735840     
   7.9800000000000010E-002     1.1806813478469849     
   8.0100000000000018E-002     1.1440900564193726     
   8.0399999999999999E-002     1.0631459951400757     
   8.0700000000000008E-002    0.94389259815216064     
   8.1000000000000003E-002    0.79424649477005005     
   8.1299999999999997E-002    0.62334316968917847     
   8.1600000000000006E-002    0.44101151823997498     
   8.1900000000000014E-002    0.25699380040168762     
   8.2199999999999995E-002     8.0361269414424896E-002
   8.2500000000000004E-002    -8.0921322107315063E-002
   8.2799999999999999E-002   -0.22034709155559540     
   8.3100000000000007E-002   -0.33323979377746582     
   8.3400000000000002E-002   -0.41690692305564880     
   8.3700000000000011E-002   -0.47046974301338196     
   8.4000000000000005E-002   -0.49487525224685669     
   8.4300000000000000E-002   -0.49265792965888977     
   8.4599999999999995E-002   -0.46759384870529175     
   8.4900000000000003E-002   -0.42435050010681152     
   8.5199999999999998E-002   -0.36802658438682556     
   8.5500000000000007E-002   -0.30370652675628662     
   8.5800000000000001E-002   -0.23594342172145844     
   8.6100000000000010E-002   -0.16853658854961395     
   8.6399999999999991E-002   -0.10422939062118530     
   8.6699999999999999E-002    -4.4310729950666428E-002
   8.7000000000000008E-002     1.1354370042681694E-002
   8.7300000000000003E-002     6.4007349312305450E-002
   8.7599999999999997E-002    0.11589748412370682     
   8.7900000000000006E-002    0.16995462775230408     
   8.8200000000000014E-002    0.22920070588588715     
   8.8499999999999995E-002    0.29605373740196228     
   8.8800000000000004E-002    0.37192904949188232     
   8.9100000000000013E-002    0.45675170421600342     
   8.9399999999999993E-002    0.54854446649551392     
   8.9700000000000002E-002    0.64324241876602173     
   9.0000000000000011E-002    0.73489534854888916     
   9.0299999999999991E-002    0.81605577468872070     
   9.0600000000000000E-002    0.87825626134872437     
   9.0900000000000009E-002    0.91280579566955566     
   9.1200000000000017E-002    0.91183280944824219     
   9.1499999999999998E-002    0.86911785602569580     
   9.1800000000000007E-002    0.78096628189086914     
   9.2100000000000001E-002    0.64703845977783203     
   9.2399999999999996E-002    0.47062137722969055     
   9.2700000000000005E-002    0.25880140066146851     
   9.3000000000000013E-002     2.2178130224347115E-002
   9.3300000000000008E-002   -0.22585211694240570     
   9.3600000000000003E-002   -0.47003954648971558     
   9.3899999999999997E-002   -0.69445067644119263     
   9.4200000000000006E-002   -0.88378685712814331     
   9.4500000000000001E-002    -1.0249456167221069     
   9.4800000000000009E-002    -1.1081088781356812     
   9.5100000000000004E-002    -1.1275538206100464     
   9.5399999999999999E-002    -1.0823584794998169     
   9.5699999999999993E-002   -0.97661256790161133     
   9.6000000000000002E-002   -0.81907135248184204     
   9.6300000000000011E-002   -0.62245500087738037     
   9.6600000000000005E-002   -0.40226373076438904     
   9.6900000000000000E-002   -0.17549104988574982     
   9.7200000000000009E-002     4.0680356323719025E-002
   9.7499999999999989E-002    0.23029789328575134     
   9.7799999999999998E-002    0.38005256652832031     
   9.8100000000000007E-002    0.48024997115135193     
   9.8400000000000015E-002    0.52522033452987671     
   9.8699999999999996E-002    0.51361614465713501     
   9.9000000000000005E-002    0.44821774959564209     
   9.9300000000000013E-002    0.33551558852195740     
   9.9599999999999994E-002    0.18471857905387878     
   9.9900000000000003E-002     6.7418264225125313E-003
  0.10020000000000001        -0.18661779165267944     
  0.10049999999999999        -0.38353243470191956     
  0.10080000000000000        -0.57311803102493286     
  0.10110000000000001        -0.74603199958801270     
  0.10140000000000000        -0.89467376470565796     
  0.10170000000000000         -1.0130735635757446     
  0.10200000000000001         -1.0969040393829346     
  0.10230000000000002         -1.1434957981109619     
  0.10260000000000000         -1.1514359712600708     
  0.10290000000000001         -1.1201068162918091     
  0.10320000000000000         -1.0498102903366089     
  0.10350000000000001        -0.94189774990081787     
  0.10380000000000000        -0.79871964454650879     
  0.10410000000000001        -0.62365001440048218     
  0.10440000000000001        -0.42160430550575256     
  0.10470000000000000        -0.19931687414646149     
  0.10500000000000000          3.4918453544378281E-002
  0.10530000000000000         0.27145734429359436     
  0.10560000000000000         0.49949949979782104     
  0.10590000000000001         0.70737653970718384     
  0.10620000000000000         0.88342273235321045     
  0.10650000000000001          1.0172942876815796     
  0.10679999999999999          1.1006350517272949     
  0.10710000000000000          1.1274023056030273     
  0.10740000000000001          1.0947767496109009     
  0.10770000000000000          1.0039377212524414     
  0.10800000000000000         0.85972893238067627     
  0.10830000000000001         0.67038136720657349     
  0.10859999999999999         0.44715982675552368     
  0.10890000000000000         0.20346437394618988     
  0.10920000000000001         -4.6106539666652679E-002
  0.10950000000000001        -0.28671544790267944     
  0.10979999999999999        -0.50455039739608765     
  0.11009999999999999        -0.68752503395080566     
  0.11040000000000001        -0.82592552900314331     
  0.11070000000000001        -0.91314321756362915     
  0.11100000000000000        -0.94595557451248169     
  0.11130000000000000        -0.92429310083389282     
  0.11160000000000002        -0.85100317001342773     
  0.11190000000000001        -0.73188096284866333     
  0.11220000000000001        -0.57496184110641479     
  0.11250000000000000        -0.38976183533668518     
  0.11280000000000000        -0.18686769902706146     
  0.11309999999999999          2.2378999739885330E-002
  0.11340000000000001         0.22687205672264099     
  0.11369999999999998         0.41619452834129333     
  0.11400000000000000         0.58076328039169312     
  0.11430000000000000         0.71254706382751465     
  0.11460000000000002         0.80546754598617554     
  0.11489999999999999         0.85560876131057739     
  0.11520000000000001         0.86148113012313843     
  0.11550000000000001         0.82405370473861694     
  0.11580000000000000         0.74689537286758423     
  0.11609999999999999         0.63609015941619873     
  0.11640000000000002         0.49981257319450378     
  0.11670000000000001         0.34769493341445923     
  0.11700000000000001         0.19044025242328644     
  0.11730000000000000          3.9214909076690674E-002
  0.11760000000000000         -9.5426119863986969E-002
  0.11789999999999999        -0.20437559485435486     
  0.11820000000000001        -0.28023028373718262     
  0.11850000000000001        -0.31772524118423462     
  0.11880000000000000        -0.31464681029319763     
  0.11910000000000000        -0.27184590697288513     
  0.11940000000000002        -0.19221168756484985     
  0.11970000000000001         -8.0466791987419128E-002
  0.12000000000000001          5.6672647595405579E-002
  0.12030000000000000         0.21147055923938751     
  0.12060000000000000         0.37647062540054321     
  0.12089999999999999         0.54509997367858887     
  0.12119999999999999         0.71153414249420166     
  0.12150000000000001         0.87072408199310303     
  0.12180000000000001          1.0193092823028564     
  0.12210000000000000          1.1553767919540405     
  0.12239999999999999          1.2777172327041626     
  0.12270000000000002          1.3849086761474609     
  0.12300000000000001          1.4755033254623413     
  0.12330000000000001          1.5480699539184570     
  0.12360000000000000          1.6002582311630249     
  0.12390000000000000          1.6284621953964233     
  0.12419999999999999          1.6285754442214966     
  0.12450000000000001          1.5966790914535522     
  0.12480000000000001          1.5288865566253662     
  0.12509999999999999          1.4217704534530640     
  0.12540000000000001          1.2735009193420410     
  0.12570000000000003          1.0841252803802490     
  0.12600000000000000         0.85564708709716797     
  0.12630000000000002         0.59198117256164551     
  0.12659999999999999         0.29893115162849426     
  0.12690000000000001         -1.6207469627261162E-002
  0.12719999999999998        -0.34517076611518860     
  0.12750000000000000        -0.67924869060516357     
  0.12780000000000002         -1.0102595090866089     
  0.12809999999999999         -1.3308106660842896     
  0.12840000000000001         -1.6342601776123047     
  0.12869999999999998         -1.9153280258178711     
  0.12900000000000000         -2.1699137687683105     
  0.12930000000000003         -2.3950567245483398     
  0.12959999999999999         -2.5885183811187744     
  0.12990000000000002         -2.7485580444335938     
  0.13019999999999998         -2.8734889030456543     
  0.13050000000000000         -2.9617056846618652     
  0.13080000000000003         -3.0117330551147461     
  0.13109999999999999         -3.0220012664794922     
  0.13140000000000002         -2.9908199310302734     
  0.13169999999999998         -2.9170923233032227     
  0.13200000000000001         -2.8006367683410645     
  0.13229999999999997         -2.6422250270843506     
  0.13260000000000000         -2.4433641433715820     
  0.13290000000000002         -2.2072713375091553     
  0.13319999999999999         -1.9388389587402344     
  0.13350000000000001         -1.6440068483352661     
  0.13380000000000003         -1.3296780586242676     
  0.13410000000000000         -1.0037481784820557     
  0.13440000000000002        -0.67493700981140137     
  0.13469999999999999        -0.35187265276908875     
  0.13500000000000001         -4.2521864175796509E-002
  0.13529999999999998         0.24585467576980591     
  0.13560000000000000         0.50696527957916260     
  0.13590000000000002         0.73620790243148804     
  0.13619999999999999         0.93122225999832153     
  0.13650000000000001          1.0921245813369751     
  0.13680000000000003          1.2211562395095825     
  0.13710000000000000          1.3230234384536743     
  0.13740000000000002          1.4051938056945801     
  0.13769999999999999          1.4771721363067627     
  0.13800000000000001          1.5497467517852783     
  0.13829999999999998          1.6344859600067139     
  0.13860000000000000          1.7430310249328613     
  0.13890000000000002          1.8855345249176025     
  0.13919999999999999          2.0693359375000000     
  0.13950000000000001          2.2982838153839111     
  0.13979999999999998          2.5717506408691406     
  0.14010000000000000          2.8829946517944336     
  0.14040000000000002          3.2194545269012451     
  0.14069999999999999          3.5634109973907471     
  0.14100000000000001          3.8923835754394531     
  0.14130000000000004          4.1794333457946777     
  0.14160000000000000          4.3960762023925781     
  0.14189999999999997          4.5147800445556641     
  0.14219999999999999          4.5107693672180176     
  0.14250000000000002          4.3641028404235840     
  0.14279999999999998          4.0622320175170898     
  0.14310000000000000          3.6020793914794922     
  0.14339999999999997          2.9907662868499756     
  0.14369999999999999          2.2453656196594238     
  0.14400000000000002          1.3926078081130981     
  0.14429999999999998         0.46781706809997559     
  0.14460000000000001        -0.48760369420051575     
  0.14490000000000003         -1.4294199943542480     
  0.14520000000000000         -2.3133058547973633     
  0.14550000000000002         -3.0974965095520020     
  0.14579999999999999         -3.7462782859802246     
  0.14610000000000001         -4.2327642440795898     
  0.14640000000000003         -4.5403923988342285     
  0.14670000000000000         -4.6638493537902832     
  0.14699999999999996         -4.6094894409179688     
  0.14729999999999999         -4.3950805664062500     
  0.14760000000000001         -4.0479416847229004     
  0.14789999999999998         -3.6024799346923828     
  0.14820000000000000         -3.0979335308074951     