  -1.4999999999999999E-002     0.0000000000000000     
  -1.4700000000000000E-002     0.0000000000000000     
  -1.4400000000000000E-002     0.0000000000000000     
  -1.4100000000000000E-002     4.3425193403628218E-035
  -1.3800000000000000E-002    -8.4175723232658526E-033
  -1.3500000000000000E-002    -5.2808407347723862E-030
  -1.3200000000000000E-002    -2.0970209617050552E-028
  -1.2899999999999998E-002     1.1013729389495176E-027
  -1.2600000000000000E-002     7.8646752037817914E-026
  -1.2299999999999998E-002    -2.9944082875618872E-025
  -1.2000000000000000E-002    -4.0095563077030786E-024
  -1.1699999999999999E-002     1.7387961861212277E-024
  -1.1399999999999999E-002     2.6223918728510989E-022
  -1.1099999999999999E-002    -1.2217310516337838E-021
  -1.0799999999999999E-002    -3.8201178378208720E-021
  -1.0499999999999999E-002     8.3421874384958351E-020
  -1.0199999999999999E-002    -4.6853814592404895E-019
  -9.8999999999999991E-003     5.9376958781371503E-019
  -9.5999999999999992E-003     5.8477687633279676E-018
  -9.2999999999999992E-003    -3.3822647973786647E-017
  -8.9999999999999993E-003     8.3499515618039747E-017
  -8.6999999999999994E-003    -1.0669752497186625E-016
  -8.3999999999999995E-003     2.3936700662689657E-017
  -8.0999999999999996E-003     3.2261292249451879E-016
  -7.7999999999999988E-003    -1.2526952510047736E-015
  -7.4999999999999997E-003     2.9590144084979851E-015
  -7.1999999999999998E-003    -5.7575398223700002E-015
  -6.8999999999999981E-003     8.7189461415418288E-015
  -6.5999999999999982E-003    -2.9952749749896621E-016
  -6.3000000000000000E-003    -2.9122629928178316E-014
  -6.0000000000000001E-003     1.2742054089907122E-014
  -5.6999999999999985E-003     1.8687950613292590E-013
  -5.3999999999999986E-003    -4.9501877468721763E-013
  -5.1000000000000004E-003     3.3800594298086175E-013
  -4.7999999999999987E-003     1.1186070817420646E-012
  -4.5000000000000005E-003    -3.9101836711834722E-012
  -4.1999999999999989E-003     5.5704713882461454E-012
  -3.8999999999999990E-003    -1.3685161705442734E-012
  -3.5999999999999990E-003    -1.0264655556494834E-011
  -3.2999999999999991E-003     2.1686179556265936E-011
  -2.9999999999999992E-003    -1.9781294168787179E-011
  -2.6999999999999993E-003     6.2252223230477194E-013
  -2.3999999999999994E-003     2.2315333375626433E-011
  -2.0999999999999977E-003    -3.5732523553056193E-011
  -1.7999999999999995E-003     4.0081644127930485E-011
  -1.4999999999999979E-003    -2.1630766115299410E-011
  -1.1999999999999997E-003    -3.4743807873779840E-011
  -8.9999999999999976E-004     7.5560344702719438E-011
  -5.9999999999999810E-004    -7.3392416625327802E-011
  -2.9999999999999992E-004     2.2419558216078898E-010
   0.0000000000000000         -7.4971771859691882E-010
   3.0000000000000165E-004     1.0779071498525228E-009
   5.9999999999999984E-004     1.0973841027326952E-009
   9.0000000000000149E-004    -8.5224803093221942E-009
   1.2000000000000031E-003     1.7256045494611056E-008
   1.5000000000000013E-003    -7.9023137834918814E-009
   1.8000000000000030E-003    -4.5402529451238921E-008
   2.1000000000000012E-003     1.3011981742965749E-007
   2.3999999999999994E-003    -1.1873862504925926E-007
   2.7000000000000010E-003    -2.4893088393054846E-007
   2.9999999999999992E-003     9.1264565059406715E-007
   3.3000000000000008E-003    -4.2761490839195033E-007
   3.6000000000000025E-003    -2.8489268890842200E-006
   3.9000000000000007E-003     3.4700617487128923E-006
   4.2000000000000023E-003     7.5163208048163280E-006
   4.5000000000000005E-003    -1.0366643882986522E-005
   4.7999999999999987E-003    -2.4230853462311772E-005
   5.1000000000000004E-003     2.0142885290910686E-005
   5.4000000000000020E-003     1.4273735711935203E-004
   5.7000000000000037E-003     3.2557997296251296E-004
   5.9999999999999984E-003     5.5074684740766613E-004
   6.3000000000000000E-003     8.2417760731431228E-004
   6.6000000000000017E-003     1.2012671661332866E-003
   6.9000000000000034E-003     1.8127358525398957E-003
   7.2000000000000015E-003     2.8211737200056278E-003
   7.5000000000000032E-003     4.3784298721089160E-003
   7.8000000000000014E-003     6.6803841732593766E-003
   8.0999999999999996E-003     1.0008430548318931E-002
   8.4000000000000012E-003     1.4760048796091441E-002
   8.7000000000000029E-003     2.1501994214597531E-002
   9.0000000000000011E-003     3.0934694765557436E-002
   9.2999999999999992E-003     4.3867385878060050E-002
   9.6000000000000009E-003     6.1275949125297879E-002
   9.8999999999999991E-003     8.4321179394596601E-002
   1.0200000000000001E-002    0.11426315759166705     
   1.0500000000000002E-002    0.15237060413162951     
   1.0800000000000004E-002    0.19989283985047468     
   1.1099999999999999E-002    0.25788367434888659     
   1.1400000000000000E-002    0.32693161044135444     
   1.1700000000000002E-002    0.40693055871288131     
   1.2000000000000004E-002    0.49679970807384066     
   1.2300000000000002E-002    0.59415066386325499     
   1.2600000000000000E-002    0.69493878112171004     
   1.2900000000000002E-002    0.79319706672887236     
   1.3200000000000000E-002    0.88090917306182348     
   1.3500000000000002E-002    0.94796488016110203     
   1.3800000000000003E-002    0.98240983505021617     
   1.4100000000000001E-002    0.97092473421937697     
   1.4400000000000000E-002    0.89971344703420542     
   1.4700000000000001E-002    0.75554482111137844     
   1.4999999999999999E-002    0.52709011907755610     
   1.5300000000000001E-002    0.20666850884897503     
   1.5600000000000003E-002   -0.20810386456038366     
   1.5899999999999997E-002   -0.71245416466134381     
   1.6199999999999999E-002    -1.2934200787341616     
   1.6500000000000001E-002    -1.9289593070734803     
   1.6800000000000002E-002    -2.5878685187223951     
   1.7100000000000004E-002    -3.2307960119066621     
   1.7400000000000006E-002    -3.8116580219184897     
   1.7700000000000000E-002    -4.2807423290102378     
   1.8000000000000002E-002    -4.5883057098444340     
   1.8300000000000004E-002    -4.6887312546431019     
   1.8600000000000005E-002    -4.5453572322501259     
   1.8900000000000000E-002    -4.1345814293834735     
   1.9200000000000002E-002    -3.4495264481297028     
   1.9500000000000003E-002    -2.5026704072587478     
   1.9799999999999998E-002    -1.3266233667131786     
   2.0100000000000000E-002     2.6394596025957284E-002
   2.0400000000000001E-002     1.4870575127330738     
   2.0700000000000003E-002     2.9736502629579871     
   2.0999999999999998E-002     4.3968609975742439     
   2.1299999999999999E-002     5.6673877388869869     
   2.1600000000000001E-002     6.7027043986637409     
   2.1900000000000003E-002     7.4329577394799742     
   2.2200000000000004E-002     7.8079775340804929     
   2.2500000000000006E-002     7.8000318954030092     
   2.2800000000000001E-002     7.4073552146005852     
   2.3100000000000002E-002     6.6540363093486405     
   2.3400000000000004E-002     5.5878453806753612     
   2.3699999999999999E-002     4.2780648889383173     
   2.4000000000000000E-002     2.8082135932523187     
   2.4300000000000002E-002     1.2712387371012035     
   2.4599999999999997E-002   -0.23733055605387676     
   2.4900000000000005E-002    -1.6272389726321990     
   2.5200000000000000E-002    -2.8184811662612752     
   2.5499999999999995E-002    -3.7477454634328211     
   2.5800000000000003E-002    -4.3717171099412866     
   2.6099999999999998E-002    -4.6693982757419974     
   2.6400000000000007E-002    -4.6439115649189091     
   2.6700000000000002E-002    -4.3200767044288000     
   2.6999999999999996E-002    -3.7432661353557108     
   2.7300000000000005E-002    -2.9749905314134395     
   2.7600000000000000E-002    -2.0881160006455062     
   2.7900000000000008E-002    -1.1620629565615523     
   2.8200000000000003E-002   -0.27677657576709658     
   2.8499999999999998E-002    0.49285576611863746     
   2.8800000000000006E-002     1.0820355427368114     
   2.9100000000000001E-002     1.4399869990499088     
   2.9400000000000003E-002     1.5330167690555214     
   2.9700000000000004E-002     1.3456336439379228     
   3.0000000000000006E-002    0.88179961701086285     
   3.0300000000000001E-002    0.16285812685046963     
   3.0600000000000002E-002   -0.77417627328915728     
   3.0900000000000004E-002    -1.8787207551648422     
   3.1199999999999999E-002    -3.0925693984526035     
   3.1500000000000007E-002    -4.3509347195128463     
   3.1800000000000002E-002    -5.5879902024470880     
   3.2099999999999997E-002    -6.7394568973678588     
   3.2400000000000005E-002    -7.7439878171236671     
   3.2700000000000000E-002    -8.5478282750857204     
   3.3000000000000002E-002    -9.1026952997496267     
   3.3300000000000003E-002    -9.3693542405503933     
   3.3599999999999998E-002    -9.3159281999614905     
   3.3900000000000000E-002    -8.9184295123566812     
   3.4200000000000001E-002    -8.1629997836016912     
   3.4500000000000003E-002    -7.0436330193240906     
   3.4799999999999998E-002    -5.5663130029085437     
   3.5099999999999999E-002    -3.7485525319327309     
   3.5400000000000001E-002    -1.6216458729672603     
   3.5699999999999996E-002    0.76670255788410202     
   3.6000000000000004E-002     3.3535637675610985     
   3.6299999999999999E-002     6.0578155851576554     
   3.6600000000000008E-002     8.7833719077466625     
   3.6900000000000002E-002     11.421011273503179     
   3.7199999999999997E-002     13.851840250114890     
   3.7500000000000006E-002     15.955823002204170     
   3.7800000000000000E-002     17.616028110664843     
   3.8100000000000009E-002     18.729288368179709     
   3.8400000000000004E-002     19.212170169594344     
   3.8699999999999998E-002     19.009487008499605     
   3.9000000000000007E-002     18.100580704239974     
   3.9300000000000002E-002     16.501750341985939     
   3.9600000000000003E-002     14.269679409823652     
   3.9900000000000005E-002     11.497396315662513     
   4.0200000000000000E-002     8.3118281648093273     
   4.0500000000000001E-002     4.8652310256553903     
   4.0800000000000003E-002     1.3263095600373660     
   4.1100000000000005E-002    -2.1296355166586807     
   4.1399999999999999E-002    -5.3338557802478874     
   4.1700000000000008E-002    -8.1335074478539866     
   4.2000000000000003E-002    -10.403725296175153     
   4.2299999999999997E-002    -12.054605830354166     
   4.2600000000000006E-002    -13.037422740549232     
   4.2900000000000001E-002    -13.348625042454159     
   4.3200000000000002E-002    -13.028393406521559     
   4.3500000000000004E-002    -12.159027611438660     
   4.3799999999999999E-002    -10.856681167373665     
   4.4100000000000000E-002    -9.2632676633392634     
   4.4400000000000002E-002    -7.5357004038433502     
   4.4700000000000004E-002    -5.8322010066880807     
   4.4999999999999998E-002    -4.3006318663261425     
   4.5300000000000000E-002    -3.0659874322281837     
   4.5600000000000002E-002    -2.2196519278619675     
   4.5899999999999996E-002    -1.8139013384704654     
   4.6200000000000005E-002    -1.8557170234130922     
   4.6500000000000000E-002    -2.3081068911970561     
   4.6799999999999994E-002    -3.0951676838192697     
   4.7100000000000003E-002    -4.1079958679946884     
   4.7399999999999998E-002    -5.2175743425181480     
   4.7700000000000006E-002    -6.2855411953913318     
   4.8000000000000001E-002    -7.1783578144374758     
   4.8300000000000010E-002    -7.7802183975268235     
   4.8600000000000004E-002    -8.0007650698679100     
   4.8899999999999999E-002    -7.7852652003085154     
   4.9200000000000008E-002    -7.1161406344181160     
   4.9500000000000002E-002    -6.0117135217942632     
   4.9800000000000011E-002    -4.5249751278471138     
   5.0100000000000006E-002    -2.7337523157323957     
   5.0400000000000000E-002   -0.73438168438276552     
   5.0700000000000009E-002     1.3686622111906388     
   5.1000000000000004E-002     3.4715461370103924     
   5.1299999999999998E-002     5.4785277258646445     
   5.1600000000000007E-002     7.3099538540531963     
   5.1900000000000002E-002     8.9042321575964394     
   5.2200000000000010E-002     10.222867509303711     
   5.2500000000000005E-002     11.250130821921459     
   5.2800000000000000E-002     11.992679016256346     
   5.3099999999999994E-002     12.479261954660075     
   5.3400000000000003E-002     12.755362716159880     
   5.3699999999999998E-002     12.882059570431181     
   5.4000000000000006E-002     12.927461706599161     
   5.4300000000000001E-002     12.961569537168600     
   5.4599999999999996E-002     13.047948236854381     
   5.4900000000000004E-002     13.230571495877712     
   5.5199999999999999E-002     13.529185976659107     
   5.5499999999999994E-002     13.923972237870032     
   5.5800000000000002E-002     14.352533621921339     
   5.6099999999999997E-002     14.706049833891768     
   5.6400000000000006E-002     14.828229822607341     
   5.6700000000000000E-002     14.529985573217004     
   5.6999999999999995E-002     13.598026999323054     
   5.7300000000000004E-002     11.822691705867385     
   5.7599999999999998E-002     9.0205742716699433     
   5.7900000000000007E-002     5.0628823698445800     
   5.8200000000000002E-002    -9.3387987734757871E-002
   5.8499999999999996E-002    -6.3895939627670941     
   5.8800000000000005E-002    -13.643776462245683     
   5.9100000000000000E-002    -21.552920511583295     
   5.9400000000000008E-002    -29.701153450578033     
   5.9700000000000003E-002    -37.578486530157988     
   6.0000000000000012E-002    -44.623061058375512     
   6.0300000000000006E-002    -50.256841698129762     
   6.0600000000000001E-002    -53.940383957098447     
   6.0900000000000010E-002    -55.222535157143682     
   6.1200000000000004E-002    -53.783634924340845     
   6.1500000000000013E-002    -49.476347741553468     
   6.1800000000000008E-002    -42.345409113156393     
   6.2100000000000002E-002    -32.638232109476348     
   6.2399999999999997E-002    -20.796373510239391     
   6.2700000000000006E-002    -7.4237528086687803     
   6.3000000000000000E-002     6.7460529671458289     
   6.3300000000000009E-002     20.909336026029905     
   6.3600000000000004E-002     34.247572439193391     
   6.3899999999999998E-002     45.986694119244021     
   6.4199999999999993E-002     55.458938486746320     
   6.4500000000000002E-002     62.142628192156849     
   6.4800000000000010E-002     65.705658260783679     
   6.5100000000000005E-002     66.019071732069222     
   6.5400000000000000E-002     63.162324872287172     
   6.5700000000000008E-002     57.412072134148275     
   6.5999999999999989E-002     49.207778335713783     
   6.6299999999999998E-002     39.119622085185711     
   6.6600000000000006E-002     27.797223439070763     
   6.6900000000000001E-002     15.919140035608280     
   6.7199999999999996E-002     4.1481083861006027     
   6.7500000000000004E-002    -6.9177829654535685     
   6.7800000000000013E-002    -16.773685870471809     
   6.8099999999999994E-002    -25.034832930993389     
   6.8400000000000002E-002    -31.452050650652382     
   6.8700000000000011E-002    -35.902090401641999     
   6.8999999999999992E-002    -38.392804709004054     
   6.9300000000000000E-002    -39.034782482866063     
   6.9600000000000009E-002    -38.023276042079317     
   6.9900000000000004E-002    -35.618911739491068     
   7.0199999999999999E-002    -32.109835677534534     
   7.0500000000000007E-002    -27.805407577404367     
   7.0800000000000016E-002    -23.004361460950349     
   7.1099999999999997E-002    -17.982493512118367     
   7.1400000000000005E-002    -12.989889338701062     
   7.1700000000000000E-002    -8.2280582993823259     
   7.1999999999999995E-002    -3.8635560179573858     
   7.2300000000000003E-002    -1.6087088488873746E-002
   7.2600000000000012E-002     3.2392538292259019     
   7.2900000000000006E-002     5.8595880497355495     
   7.3200000000000001E-002     7.8450906217967145     
   7.3499999999999996E-002     9.2211664745636881     
   7.3800000000000004E-002     10.039197672110276     
   7.4099999999999999E-002     10.371753343109752     
   7.4400000000000008E-002     10.298988435373417     
   7.4700000000000003E-002     9.9116186139324896     
   7.5000000000000011E-002     9.2965234202517308     
   7.5299999999999992E-002     8.5345788196154331     
   7.5600000000000001E-002     7.6980463545845055     
   7.5900000000000009E-002     6.8430299336631322     
   7.6200000000000004E-002     6.0117270177720457     
   7.6499999999999999E-002     5.2330325842703473     
   7.6800000000000007E-002     4.5197691172328689     
   7.7099999999999988E-002     3.8780674089661744     
   7.7399999999999997E-002     3.3062497847281378     
   7.7700000000000005E-002     2.7971768682014329     
   7.8000000000000014E-002     2.3477623495650874     
   7.8299999999999995E-002     1.9511991434636755     
   7.8600000000000003E-002     1.6051709450629090     
   7.8900000000000012E-002     1.3101350706778874     
   7.9199999999999993E-002     1.0639440198632357     
   7.9500000000000001E-002    0.86953484278955884     
   7.9800000000000010E-002    0.72323017384777089     
   8.0100000000000018E-002    0.62132619516455989     
   8.0399999999999999E-002    0.55899718881300231     
   8.0700000000000008E-002    0.52375717071108419     
   8.1000000000000003E-002    0.50736541277378677     
   8.1299999999999997E-002    0.49604591617554483     
   8.1600000000000006E-002    0.47786390764930609     
   8.1900000000000014E-002    0.44431546497560070     
   8.2199999999999995E-002    0.38449696081734785     
   8.2500000000000004E-002    0.29432066643744559     
   8.2799999999999999E-002    0.16831958364705524     
   8.3100000000000007E-002     3.3784661934026516E-003
   8.3400000000000002E-002   -0.20135974890219899     
   8.3700000000000011E-002   -0.44836390533853887     
   8.4000000000000005E-002   -0.73724254858057225     
   8.4300000000000000E-002    -1.0668248301222647     
   8.4599999999999995E-002    -1.4342475140057829     
   8.4900000000000003E-002    -1.8324279955481870     
   8.5199999999999998E-002    -2.2500418094543946     
   8.5500000000000007E-002    -2.6719944984710366     
   8.5800000000000001E-002    -3.0759615308022887     
   8.6100000000000010E-002    -3.4380498367548000     
   8.6399999999999991E-002    -3.7310032573701335     
   8.6699999999999999E-002    -3.9268633881370221     
   8.7000000000000008E-002    -4.0042753754386098     
   8.7300000000000003E-002    -3.9437421228890202     
   8.7599999999999997E-002    -3.7376450882301953     
   8.7900000000000006E-002    -3.3874672488190782     
   8.8200000000000014E-002    -2.9048545042222855     
   8.8499999999999995E-002    -2.3143795953367174     
   8.8800000000000004E-002    -1.6452936830500846     
   8.9100000000000013E-002   -0.93606474666827566     
   8.9399999999999993E-002   -0.22558459962663679     
   8.9700000000000002E-002    0.44862417895524587     
   9.0000000000000011E-002     1.0511787337619101     
   9.0299999999999991E-002     1.5560391457554701     
   9.0600000000000000E-002     1.9441470661769173     
   9.0900000000000009E-002     2.2062292360765241     
   9.1200000000000017E-002     2.3410927028261739     
   9.1499999999999998E-002     2.3558779419561446     
   9.1800000000000007E-002     2.2638528883365439     
   9.2100000000000001E-002     2.0821113906692901     
   9.2399999999999996E-002     1.8313572662113415     
   9.2700000000000005E-002     1.5309602357957957     
   9.3000000000000013E-002     1.2031025411008400     
   9.3300000000000008E-002    0.86569416217196959     
   9.3600000000000003E-002    0.53703024152679468     
   9.3899999999999997E-002    0.23450117759679401     
   9.4200000000000006E-002    -3.1350065235442814E-002
   9.4500000000000001E-002   -0.24563418833412154     
   9.4800000000000009E-002   -0.40147819704720433     
   9.5100000000000004E-002   -0.49170765267170680     
   9.5399999999999999E-002   -0.51110679906935985     
   9.5699999999999993E-002   -0.46277067581644893     
   9.6000000000000002E-002   -0.34619670584744888     
   9.6300000000000011E-002   -0.17135385598842667     
   9.6600000000000005E-002     5.2387280604954123E-002
   9.6900000000000000E-002    0.31350254644775166     
   9.7200000000000009E-002    0.59277509764150338     
   9.7499999999999989E-002    0.87693838897957122     
   9.7799999999999998E-002     1.1463471589554075     
   9.8100000000000007E-002     1.3844444513432776     
   9.8400000000000015E-002     1.5789009561656968     
   9.8699999999999996E-002     1.7146489633568436     
   9.9000000000000005E-002     1.7859678987249126     
   9.9300000000000013E-002     1.7867772314090828     
   9.9599999999999994E-002     1.7158338187869049     
   9.9900000000000003E-002     1.5773381620363125     
  0.10020000000000001          1.3747383906934942     
  0.10049999999999999          1.1172428515717456     
  0.10080000000000000         0.81408613792130780     
  0.10110000000000001         0.47435545413307878     
  0.10140000000000000         0.10940159977083752     
  0.10170000000000000        -0.27167941557378317     
  0.10200000000000001        -0.66006369694659872     
  0.10230000000000002         -1.0449811491920826     
  0.10260000000000000         -1.4190751339859347     
  0.10290000000000001         -1.7704438950926686     
  0.10320000000000000         -2.0879328165318753     
  0.10350000000000001         -2.3592801489210871     
  0.10380000000000000         -2.5665798927265797     
  0.10410000000000001         -2.6953033106845936     
  0.10440000000000001         -2.7256951285033040     
  0.10470000000000000         -2.6421676905469269     
  0.10500000000000000         -2.4328581549321768     
  0.10530000000000000         -2.0892090926674527     
  0.10560000000000000         -1.6152182342898911     
  0.10590000000000001         -1.0217538357723406     
  0.10620000000000000        -0.33473601322143098     
  0.10650000000000001         0.40825801939791440     
  0.10679999999999999          1.1602658282349054     
  0.10710000000000000          1.8638010877073832     
  0.10740000000000001          2.4610454358968994     
  0.10770000000000000          2.8941893722366245     
  0.10800000000000000          3.1153248064424375     
  0.10830000000000001          3.0910303723333428     
  0.10859999999999999          2.8060733030243057     
  0.10890000000000000          2.2713418169171220     
  0.10920000000000001          1.5182069806550480     
  0.10950000000000001         0.60363067128634817     
  0.10979999999999999        -0.39844819875359860     
  0.11009999999999999         -1.4034553361842441     
  0.11040000000000001         -2.3206559538837617     
  0.11070000000000001         -3.0686402088027904     
  0.11100000000000000         -3.5762445489471730     
  0.11130000000000000         -3.7967039703280641     
  0.11160000000000002         -3.7081078309108975     
  0.11190000000000001         -3.3160170125725870     
  0.11220000000000001         -2.6565870404380405     
  0.11250000000000000         -1.7858058161883363     
  0.11280000000000000        -0.77989517264137120     
  0.11309999999999999         0.27685629796162203     
  0.11340000000000001          1.2992014118641606     
  0.11369999999999998          2.2075854668363490     
  0.11400000000000000          2.9383048435713164     
  0.11430000000000000          3.4448001572488920     
  0.11460000000000002          3.7022655482184987     
  0.11489999999999999          3.7086674049702317     
  0.11520000000000001          3.4806758961590347     
  0.11550000000000001          3.0522324846810278     
  0.11580000000000000          2.4693311498925610     
  0.11609999999999999          1.7837099202141076     
  0.11640000000000002          1.0501326087476599     
  0.11670000000000001         0.31988160523165199     
  0.11700000000000001        -0.36211600549441414     
  0.11730000000000000        -0.95834552562649122     
  0.11760000000000000         -1.4432064526980568     
  0.11789999999999999         -1.8003208163267246     
  0.11820000000000001         -2.0235255672000747     
  0.11850000000000001         -2.1164203233188523     
  0.11880000000000000         -2.0880005824394505     
  0.11910000000000000         -1.9554825544875172     
  0.11940000000000002         -1.7368275983556387     
  0.11970000000000001         -1.4542826059838276     
  0.12000000000000001         -1.1295065688966908     
  0.12030000000000000        -0.78192736239474847     
  0.12060000000000000        -0.43117038148936304     
  0.12089999999999999         -8.9915481517241602E-002
  0.12119999999999999         0.22818232112375547     
  0.12150000000000001         0.51639204489540091     
  0.12180000000000001         0.76911946271383158     
  0.12210000000000000         0.98210890394691930     
  0.12239999999999999          1.1564257648320648     
  0.12270000000000002          1.2880051999550091     
  0.12300000000000001          1.3786635126368196     
  0.12330000000000001          1.4257123118947348     
  0.12360000000000000          1.4262366516225597     
  0.12390000000000000          1.3807402886193216     
  0.12419999999999999          1.2837046437728716     
  0.12450000000000001          1.1383766194013809     
  0.12480000000000001         0.94499567382937144     
  0.12509999999999999         0.70674488258624280     
  0.12540000000000001         0.43492728306317296     
  0.12570000000000003         0.13556373764337248     
  0.12600000000000000        -0.17387450160324125     
  0.12630000000000002        -0.47964967584149143     
  0.12659999999999999        -0.76821539330182276     
  0.12690000000000001         -1.0211478519559876     
  0.12719999999999998         -1.2311863526881410     
  0.12750000000000000         -1.3860594917691245     
  0.12780000000000002         -1.4819124198469282     
  0.12809999999999999         -1.5206831887023640     
  0.12840000000000001         -1.5011391869764026     
  0.12869999999999998         -1.4342141990075916     
  0.12900000000000000         -1.3266812872562710     
  0.12930000000000003         -1.1875349470176886     
  0.12959999999999999         -1.0301019711604340     
  0.12990000000000002        -0.86005530576957412     
  0.13019999999999998        -0.68840402304010695     
  0.13050000000000000        -0.52174670213554641     
  0.13080000000000003        -0.36246021151542784     
  0.13109999999999999        -0.21793738908179794     
  0.13140000000000002         -8.6829937038254368E-002
  0.13169999999999998          2.8963169319264404E-002
  0.13200000000000001         0.12775859033607917     
  0.13229999999999997         0.21443872851323231     
  0.13260000000000000         0.28649856798459794     
  0.13290000000000002         0.34842058312654878     
  0.13319999999999999         0.40281064144474499     
  0.13350000000000001         0.44834072449302376     
  0.13380000000000003         0.49131503373341268     
  0.13410000000000000         0.52883164259398541     
  0.13440000000000002         0.56226000215779592     
  0.13469999999999999         0.59259360904761493     
  0.13500000000000001         0.61454231447373786     
  0.13529999999999998         0.62972679412829180     
  0.13560000000000000         0.63381878061736785     
  0.13590000000000002         0.62571968174045622     
  0.13619999999999999         0.60714292395805458     
  0.13650000000000001         0.57719468089350556     
  0.13680000000000003         0.54172330359527976     
  0.13710000000000000         0.50488591980660935     
  0.13740000000000002         0.47229869437594374     
  0.13769999999999999         0.45166140235462215     
  0.13800000000000001         0.44746226874940298     
  0.13829999999999998         0.46324400727064585     
  0.13860000000000000         0.50077530818374427     
  0.13890000000000002         0.55642481066252714     
  0.13919999999999999         0.62374829178815361     
  0.13950000000000001         0.69471387505528170     
  0.13979999999999998         0.75567433017147323     
  0.14010000000000000         0.79656829740665103     
  0.14040000000000002         0.80471058410522645     
  0.14069999999999999         0.76871577356706666     
  0.14100000000000001         0.68603578364941598     
  0.14130000000000004         0.55009364517496451     
  0.14160000000000000         0.36604866477194342     
  0.14189999999999997         0.14032550537418409     
  0.14219999999999999        -0.11989185029562011     
  0.14250000000000002        -0.39650554105470626     
  0.14279999999999998        -0.67972984977455297     
  0.14310000000000000        -0.95198232276937844     
  0.14339999999999997         -1.1972849447373051     
  0.14369999999999999         -1.4075585272650741     
  0.14400000000000002         -1.5659571737635574     
  0.14429999999999998         -1.6688137424003457     
  0.14460000000000001         -1.7102418040307796     
  0.14490000000000003         -1.6843015519490052     
  0.14520000000000000         -1.5985502874572788     
  0.14550000000000002         -1.4510499743805383     
  0.14579999999999999         -1.2518829107552136     
  0.14610000000000001         -1.0130470405419736     
  0.14640000000000003        -0.74126569898595562     
  0.14670000000000000        -0.45770062544348988     
  0.14699999999999996        -0.17315101478819628     
  0.14729999999999999          9.7056592983100654E-002
  0.14760000000000001         0.33425422071773170     
  0.14789999999999998         0.53400842639658563     
  0.14820000000000000         0.68150156780844640     