  -1.4999999999999999E-002     0.0000000000000000     
  -1.4700000000000000E-002     0.0000000000000000     
  -1.4400000000000000E-002     5.4236551153084065E-032
  -1.4100000000000000E-002     3.0174630181720972E-028
  -1.3800000000000000E-002     1.2431736042575701E-026
  -1.3500000000000000E-002    -3.4018569464043138E-024
  -1.3200000000000000E-002    -7.2603930439057614E-023
  -1.2899999999999998E-002     4.2657947537171680E-022
  -1.2600000000000000E-002     1.0138801235676477E-020
  -1.2299999999999998E-002    -3.1547566732347161E-020
  -1.2000000000000000E-002    -3.2110587862516233E-019
  -1.1699999999999999E-002     9.4574640680969414E-019
  -1.1399999999999999E-002     4.1642170415425222E-018
  -1.1099999999999999E-002    -3.5449771445580762E-017
  -1.0799999999999999E-002     1.4686336342505850E-016
  -1.0499999999999999E-002     2.2341428367052111E-016
  -1.0199999999999999E-002    -4.6990414828023720E-015
  -9.8999999999999991E-003     1.2814960511752915E-014
  -9.5999999999999992E-003     1.4322940891046271E-014
  -9.2999999999999992E-003    -1.3377274006402817E-013
  -8.9999999999999993E-003     2.4189038359129222E-013
  -8.6999999999999994E-003    -6.4558269483299541E-014
  -8.3999999999999995E-003    -4.8984026470438868E-013
  -8.0999999999999996E-003     1.3421487228895690E-012
  -7.7999999999999988E-003    -1.9696657499457260E-012
  -7.4999999999999997E-003     1.2276242305694907E-012
  -7.1999999999999998E-003    -1.5490534202577955E-012
  -6.8999999999999981E-003     5.6549153380769379E-012
  -6.5999999999999982E-003     2.2804026462291960E-012
  -6.3000000000000000E-003    -3.4202154997053924E-011
  -6.0000000000000001E-003     3.7972604227665130E-011
  -5.6999999999999985E-003     4.8455774115385708E-011
  -5.3999999999999986E-003    -1.5228092398178461E-010
  -5.1000000000000004E-003     5.2904798597541713E-011
  -4.7999999999999987E-003     3.7033454081125683E-010
  -4.5000000000000005E-003    -6.6218314165311654E-010
  -4.1999999999999989E-003     7.7555739608214935E-012
  -3.8999999999999990E-003     1.2616174771551414E-009
  -3.5999999999999990E-003    -1.3379842789262852E-009
  -3.2999999999999991E-003    -6.3499283609047552E-010
  -2.9999999999999992E-003     2.2016866108032218E-009
  -2.6999999999999993E-003     5.6067572806739463E-010
  -2.3999999999999994E-003    -4.7019677040793795E-009
  -2.0999999999999977E-003    -3.3658398290725700E-010
  -1.7999999999999995E-003     1.1645930442227836E-008
  -1.4999999999999979E-003    -7.9511766060136324E-009
  -1.1999999999999997E-003    -1.6415137693570614E-008
  -8.9999999999999976E-004     3.9257869843822846E-008
  -5.9999999999999810E-004    -1.9310075316525399E-008
  -2.9999999999999992E-004    -9.8412996862862201E-008
   0.0000000000000000          2.3259414660969924E-007
   3.0000000000000165E-004     3.8616576603089925E-009
   5.9999999999999984E-004    -7.2181319410447031E-007
   9.0000000000000149E-004     6.9676354996772716E-007
   1.2000000000000031E-003     1.3525285567084211E-006
   1.5000000000000013E-003    -2.6909228836302646E-006
   1.8000000000000030E-003    -2.3178290575742722E-006
   2.1000000000000012E-003     7.9335695772897452E-006
   2.3999999999999994E-003     5.4277852541417815E-006
   2.7000000000000010E-003    -2.1528136130655184E-005
   2.9999999999999992E-003    -2.2285468730842695E-005
   3.3000000000000008E-003     6.1230261053424329E-005
   3.6000000000000025E-003     2.2325507597997785E-004
   3.9000000000000007E-003     4.3066078796982765E-004
   4.2000000000000023E-003     6.7011493956670165E-004
   4.5000000000000005E-003     9.5997570315375924E-004
   4.7999999999999987E-003     1.3907707761973143E-003
   5.1000000000000004E-003     2.1241058129817247E-003
   5.4000000000000020E-003     3.3245007507503033E-003
   5.7000000000000037E-003     5.1400945521891117E-003
   5.9999999999999984E-003     7.7596725896000862E-003
   6.3000000000000000E-003     1.1495866812765598E-002
   6.6000000000000017E-003     1.6815055161714554E-002
   6.9000000000000034E-003     2.4297593161463737E-002
   7.2000000000000015E-003     3.4630753099918365E-002
   7.5000000000000032E-003     4.8631764948368073E-002
   7.8000000000000014E-003     6.7253172397613525E-002
   8.0999999999999996E-003     9.1558702290058136E-002
   8.4000000000000012E-003    0.12263778597116470     
   8.7000000000000029E-003    0.16153728961944580     
   9.0000000000000011E-003    0.20915262401103973     
   9.2999999999999992E-003    0.26601064205169678     
   9.6000000000000009E-003    0.33200898766517639     
   9.8999999999999991E-003    0.40612095594406128     
   1.0200000000000001E-002    0.48607957363128662     
   1.0500000000000002E-002    0.56817406415939331     
   1.0800000000000004E-002    0.64700293540954590     
   1.1099999999999999E-002    0.71525746583938599     
   1.1400000000000000E-002    0.76356452703475952     
   1.1700000000000002E-002    0.78063708543777466     
   1.2000000000000004E-002    0.75400239229202271     
   1.2300000000000002E-002    0.67063421010971069     
   1.2600000000000000E-002    0.51793515682220459     
   1.2900000000000002E-002    0.28502339124679565     
   1.3200000000000000E-002    -3.5496760159730911E-002
   1.3500000000000002E-002   -0.44557395577430725     
   1.3800000000000003E-002   -0.94042825698852539     
   1.4100000000000001E-002    -1.5069159269332886     
   1.4400000000000000E-002    -2.1228466033935547     
   1.4700000000000001E-002    -2.7564666271209717     
   1.4999999999999999E-002    -3.3672175407409668     
   1.5300000000000001E-002    -3.9076316356658936     
   1.5600000000000003E-002    -4.3261461257934570     
   1.5899999999999997E-002    -4.5709972381591797     
   1.6199999999999999E-002    -4.5946726799011230     
   1.6500000000000001E-002    -4.3586769104003906     
   1.6800000000000002E-002    -3.8386497497558594     
   1.7100000000000004E-002    -3.0285236835479736     
   1.7400000000000006E-002    -1.9433765411376953     
   1.7700000000000000E-002   -0.62078243494033813     
   1.8000000000000002E-002    0.87990015745162964     
   1.8300000000000004E-002     2.4797456264495850     
   1.8600000000000005E-002     4.0860075950622559     
   1.8900000000000000E-002     5.5983576774597168     
   1.9200000000000002E-002     6.9169807434082031     
   1.9500000000000003E-002     7.9509673118591309     
   1.9799999999999998E-002     8.6261882781982422     
   2.0100000000000000E-002     8.8925104141235352     
   2.0400000000000001E-002     8.7286176681518555     
   2.0700000000000003E-002     8.1448965072631836     
   2.0999999999999998E-002     7.1826338768005371     
   2.1299999999999999E-002     5.9105634689331055     
   2.1600000000000001E-002     4.4195609092712402     
   2.1900000000000003E-002     2.8138728141784668     
   2.2200000000000004E-002     1.2027854919433594     
   2.2500000000000006E-002   -0.30962428450584412     
   2.2800000000000001E-002    -1.6339304447174072     
   2.3100000000000002E-002    -2.7026102542877197     
   2.3400000000000004E-002    -3.4753537178039551     
   2.3699999999999999E-002    -3.9417338371276855     
   2.4000000000000000E-002    -4.1213364601135254     
   2.4300000000000002E-002    -4.0607171058654785     
   2.4599999999999997E-002    -3.8277676105499268     
   2.4900000000000005E-002    -3.5040984153747559     
   2.5200000000000000E-002    -3.1764304637908936     
   2.5499999999999995E-002    -2.9281749725341797     
   2.5800000000000003E-002    -2.8318331241607666     
   2.6099999999999998E-002    -2.9409706592559814     
   2.6400000000000007E-002    -3.2863900661468506     
   2.6700000000000002E-002    -3.8716752529144287     
   2.6999999999999996E-002    -4.6743974685668945     
   2.7300000000000005E-002    -5.6468620300292969     
   2.7600000000000000E-002    -6.7191715240478516     
   2.7900000000000008E-002    -7.8053736686706543     
   2.8200000000000003E-002    -8.8083477020263672     
   2.8499999999999998E-002    -9.6281890869140625     
   2.8800000000000006E-002    -10.168162345886230     
   2.9100000000000001E-002    -10.341521263122559     
   2.9400000000000003E-002    -10.076535224914551     
   2.9700000000000004E-002    -9.3235397338867188     
   3.0000000000000006E-002    -8.0572843551635742     
   3.0300000000000001E-002    -6.2810978889465332     
   3.0600000000000002E-002    -4.0277690887451172     
   3.0900000000000004E-002    -1.3584243059158325     
   3.1199999999999999E-002     1.6367866992950439     
   3.1500000000000007E-002     4.8437108993530273     
   3.1800000000000002E-002     8.1262903213500977     
   3.2099999999999997E-002     11.335494995117188     
   3.2400000000000005E-002     14.314714431762695     
   3.2700000000000000E-002     16.908365249633789     
   3.3000000000000002E-002     18.972616195678711     
   3.3300000000000003E-002     20.382747650146484     
   3.3599999999999998E-002     21.043151855468750     
   3.3900000000000000E-002     20.894067764282227     
   3.4200000000000001E-002     19.918941497802734     
   3.4500000000000003E-002     18.146167755126953     
   3.4799999999999998E-002     15.649741172790527     
   3.5099999999999999E-002     12.547457695007324     
   3.5400000000000001E-002     8.9925813674926758     
   3.5699999999999996E-002     5.1664347648620605     
   3.6000000000000004E-002     1.2648205757141113     
   3.6299999999999999E-002    -2.5136177539825439     
   3.6600000000000008E-002    -5.9810409545898438     
   3.6900000000000002E-002    -8.9774341583251953     
   3.7199999999999997E-002    -11.377005577087402     
   3.7500000000000006E-002    -13.100432395935059     
   3.7800000000000000E-002    -14.118656158447266     
   3.8100000000000009E-002    -14.451173782348633     
   3.8400000000000004E-002    -14.167544364929199     
   3.8699999999999998E-002    -13.373696327209473     
   3.9000000000000007E-002    -12.205111503601074     
   3.9300000000000002E-002    -10.812199592590332     
   3.9600000000000003E-002    -9.3430376052856445     
   3.9900000000000005E-002    -7.9376683235168457     
   4.0200000000000000E-002    -6.7065534591674805     
   4.0500000000000001E-002    -5.7302608489990234     
   4.0800000000000003E-002    -5.0531296730041504     
   4.1100000000000005E-002    -4.6787004470825195     
   4.1399999999999999E-002    -4.5823550224304199     
   4.1700000000000008E-002    -4.7083835601806641     
   4.2000000000000003E-002    -4.9880881309509277     
   4.2299999999999997E-002    -5.3443717956542969     
   4.2600000000000006E-002    -5.7006411552429199     
   4.2900000000000001E-002    -5.9913458824157715     
   4.3200000000000002E-002    -6.1585793495178223     
   4.3500000000000004E-002    -6.1581621170043945     
   4.3799999999999999E-002    -5.9531192779541016     
   4.4100000000000000E-002    -5.5081658363342285     
   4.4400000000000002E-002    -4.7856245040893555     
   4.4700000000000004E-002    -3.7380621433258057     
   4.4999999999999998E-002    -2.3079907894134521     
   4.5300000000000000E-002   -0.42912867665290833     
   4.5600000000000002E-002     1.9646135568618774     
   4.5899999999999996E-002     4.9278531074523926     
   4.6200000000000005E-002     8.4871902465820312     
   4.6500000000000000E-002     12.621479988098145     
   4.6799999999999994E-002     17.248245239257812     
   4.7100000000000003E-002     22.205467224121094     
   4.7399999999999998E-002     27.252141952514648     
   4.7700000000000006E-002     32.064796447753906     
   4.8000000000000001E-002     36.257976531982422     
   4.8300000000000010E-002     39.410034179687500     
   4.8600000000000004E-002     41.092010498046875     
   4.8899999999999999E-002     40.919029235839844     
   4.9200000000000008E-002     38.584384918212891     
   4.9500000000000002E-002     33.909431457519531     
   4.9800000000000011E-002     26.873689651489258     
   5.0100000000000006E-002     17.630716323852539     
   5.0400000000000000E-002     6.5293397903442383     
   5.0700000000000009E-002    -5.9188733100891113     
   5.1000000000000004E-002    -19.048976898193359     
   5.1299999999999998E-002    -32.101341247558594     
   5.1600000000000007E-002    -44.271911621093750     
   5.1900000000000002E-002    -54.770751953125000     
   5.2200000000000010E-002    -62.899932861328125     
   5.2500000000000005E-002    -68.089370727539062     
   5.2800000000000000E-002    -69.965469360351562     
   5.3099999999999994E-002    -68.367858886718750     
   5.3400000000000003E-002    -63.366081237792969     
   5.3699999999999998E-002    -55.259349822998047     
   5.4000000000000006E-002    -44.536788940429688     
   5.4300000000000001E-002    -31.857904434204102     
   5.4599999999999996E-002    -17.978631973266602     
   5.4900000000000004E-002    -3.7093036174774170     
   5.5199999999999999E-002     10.151083946228027     
   5.5499999999999994E-002     22.876644134521484     
   5.5800000000000002E-002     33.846977233886719     
   5.6099999999999997E-002     42.599517822265625     
   5.6400000000000006E-002     48.832366943359375     
   5.6700000000000000E-002     52.425308227539062     
   5.6999999999999995E-002     53.422679901123047     
   5.7300000000000004E-002     52.016040802001953     
   5.7599999999999998E-002     48.518970489501953     
   5.7900000000000007E-002     43.323585510253906     
   5.8200000000000002E-002     36.878650665283203     
   5.8499999999999996E-002     29.639171600341797     
   5.8800000000000005E-002     22.048740386962891     
   5.9100000000000000E-002     14.507019042968750     
   5.9400000000000008E-002     7.3510885238647461     
   5.9700000000000003E-002    0.85356754064559937     
   6.0000000000000012E-002    -4.7969365119934082     
   6.0300000000000006E-002    -9.4792242050170898     
   6.0600000000000001E-002    -13.142951011657715     
   6.0900000000000010E-002    -15.796323776245117     
   6.1200000000000004E-002    -17.491949081420898     
   6.1500000000000013E-002    -18.325014114379883     
   6.1800000000000008E-002    -18.407545089721680     
   6.2100000000000002E-002    -17.871326446533203     
   6.2399999999999997E-002    -16.849767684936523     
   6.2700000000000006E-002    -15.472292900085449     
   6.3000000000000000E-002    -13.861488342285156     
   6.3300000000000009E-002    -12.121603965759277     
   6.3600000000000004E-002    -10.344931602478027     
   6.3899999999999998E-002    -8.6001892089843750     
   6.4199999999999993E-002    -6.9424543380737305     
   6.4500000000000002E-002    -5.4067587852478027     
   6.4800000000000010E-002    -4.0140843391418457     
   6.5100000000000005E-002    -2.7768197059631348     
   6.5400000000000000E-002    -1.6943671703338623     
   6.5700000000000008E-002   -0.76846593618392944     
   6.5999999999999989E-002     9.1599188745021820E-003
   6.6299999999999998E-002    0.64061450958251953     
   6.6600000000000006E-002     1.1287397146224976     
   6.6900000000000001E-002     1.4796646833419800     
   6.7199999999999996E-002     1.6916702985763550     
   6.7500000000000004E-002     1.7748177051544189     
   6.7800000000000013E-002     1.7334120273590088     
   6.8099999999999994E-002     1.5836644172668457     
   6.8400000000000002E-002     1.3474011421203613     
   6.8700000000000011E-002     1.0478787422180176     
   6.8999999999999992E-002    0.72061109542846680     
   6.9300000000000000E-002    0.39449024200439453     
   6.9600000000000009E-002    0.10718578100204468     
   6.9900000000000004E-002   -0.11206247657537460     
   7.0199999999999999E-002   -0.23897854983806610     
   7.0500000000000007E-002   -0.25499722361564636     
   7.0800000000000016E-002   -0.15868391096591949     
   7.1099999999999997E-002     4.9136839807033539E-002
   7.1400000000000005E-002    0.35120090842247009     
   7.1700000000000000E-002    0.72882378101348877     
   7.1999999999999995E-002     1.1532342433929443     
   7.2300000000000003E-002     1.5951645374298096     
   7.2600000000000012E-002     2.0288789272308350     
   7.2900000000000006E-002     2.4243023395538330     
   7.3200000000000001E-002     2.7653815746307373     
   7.3499999999999996E-002     3.0329945087432861     
   7.3800000000000004E-002     3.2197632789611816     
   7.4099999999999999E-002     3.3202991485595703     
   7.4400000000000008E-002     3.3324029445648193     
   7.4700000000000003E-002     3.2638227939605713     
   7.5000000000000011E-002     3.1145002841949463     
   7.5299999999999992E-002     2.8971257209777832     
   7.5600000000000001E-002     2.6184184551239014     
   7.5900000000000009E-002     2.2888383865356445     
   7.6200000000000004E-002     1.9236035346984863     
   7.6499999999999999E-002     1.5316579341888428     
   7.6800000000000007E-002     1.1318267583847046     
   7.7099999999999988E-002    0.73483639955520630     
   7.7399999999999997E-002    0.35641339421272278     
   7.7700000000000005E-002     1.1655693873763084E-002
   7.8000000000000014E-002   -0.29274567961692810     
   7.8299999999999995E-002   -0.54548650979995728     
   7.8600000000000003E-002   -0.74587613344192505     
   7.8900000000000012E-002   -0.89139676094055176     
   7.9199999999999993E-002   -0.98628771305084229     
   7.9500000000000001E-002    -1.0364885330200195     
   7.9800000000000010E-002    -1.0482814311981201     
   8.0100000000000018E-002    -1.0322643518447876     
   8.0399999999999999E-002   -0.99290525913238525     
   8.0700000000000008E-002   -0.94038623571395874     
   8.1000000000000003E-002   -0.87729215621948242     
   8.1299999999999997E-002   -0.80986797809600830     
   8.1600000000000006E-002   -0.74237960577011108     
   8.1900000000000014E-002   -0.67604696750640869     
   8.2199999999999995E-002   -0.62134420871734619     
   8.2500000000000004E-002   -0.57761573791503906     
   8.2799999999999999E-002   -0.55774074792861938     
   8.3100000000000007E-002   -0.56807029247283936     
   8.3400000000000002E-002   -0.61672484874725342     
   8.3700000000000011E-002   -0.71682882308959961     
   8.4000000000000005E-002   -0.86530309915542603     
   8.4300000000000000E-002    -1.0698236227035522     
   8.4599999999999995E-002    -1.3216519355773926     
   8.4900000000000003E-002    -1.6097707748413086     
   8.5199999999999998E-002    -1.9203436374664307     
   8.5500000000000007E-002    -2.2238035202026367     
   8.5800000000000001E-002    -2.4992144107818604     
   8.6100000000000010E-002    -2.7125372886657715     
   8.6399999999999991E-002    -2.8376271724700928     
   8.6699999999999999E-002    -2.8521292209625244     
   8.7000000000000008E-002    -2.7371082305908203     
   8.7300000000000003E-002    -2.4870109558105469     
   8.7599999999999997E-002    -2.1038100719451904     
   8.7900000000000006E-002    -1.6026426553726196     
   8.8200000000000014E-002    -1.0076818466186523     
   8.8499999999999995E-002   -0.35390576720237732     
   8.8800000000000004E-002    0.32326802611351013     
   8.9100000000000013E-002    0.98111355304718018     
   8.9399999999999993E-002     1.5829355716705322     
   8.9700000000000002E-002     2.0969915390014648     
   9.0000000000000011E-002     2.4945898056030273     
   9.0299999999999991E-002     2.7696616649627686     
   9.0600000000000000E-002     2.9121921062469482     
   9.0900000000000009E-002     2.9344666004180908     
   9.1200000000000017E-002     2.8527789115905762     
   9.1499999999999998E-002     2.6831150054931641     
   9.1800000000000007E-002     2.4600939750671387     
   9.2100000000000001E-002     2.1972901821136475     
   9.2399999999999996E-002     1.9209365844726562     
   9.2700000000000005E-002     1.6448611021041870     
   9.3000000000000013E-002     1.3707121610641479     
   9.3300000000000008E-002     1.1104588508605957     
   9.3600000000000003E-002    0.84957003593444824     
   9.3899999999999997E-002    0.59002959728240967     
   9.4200000000000006E-002    0.32601237297058105     
   9.4500000000000001E-002     5.1010306924581528E-002
   9.4800000000000009E-002   -0.22078643739223480     
   9.5100000000000004E-002   -0.48718026280403137     
   9.5399999999999999E-002   -0.72331672906875610     
   9.5699999999999993E-002   -0.90530496835708618     
   9.6000000000000002E-002    -1.0100314617156982     
   9.6300000000000011E-002    -1.0053230524063110     
   9.6600000000000005E-002   -0.87658530473709106     
   9.6900000000000000E-002   -0.61149966716766357     
   9.7200000000000009E-002   -0.21448311209678650     
   9.7499999999999989E-002    0.29147231578826904     
   9.7799999999999998E-002    0.87220460176467896     
   9.8100000000000007E-002     1.4758762121200562     
   9.8400000000000015E-002     2.0387630462646484     
   9.8699999999999996E-002     2.4965746402740479     
   9.9000000000000005E-002     2.7832405567169189     
   9.9300000000000013E-002     2.8432438373565674     
   9.9599999999999994E-002     2.6437122821807861     
   9.9900000000000003E-002     2.1633632183074951     
  0.10020000000000001          1.4176229238510132     
  0.10049999999999999         0.44167658686637878     
  0.10080000000000000        -0.70583838224411011     
  0.10110000000000001         -1.9382593631744385     
  0.10140000000000000         -3.1716697216033936     
  0.10170000000000000         -4.3026723861694336     
  0.10200000000000001         -5.2436337471008301     
  0.10230000000000002         -5.9211382865905762     
  0.10260000000000000         -6.2731723785400391     
  0.10290000000000001         -6.2781434059143066     
  0.10320000000000000         -5.9267768859863281     
  0.10350000000000001         -5.2481374740600586     
  0.10380000000000000         -4.2922892570495605     
  0.10410000000000001         -3.1227836608886719     
  0.10440000000000001         -1.8247765302658081     
  0.10470000000000000        -0.47766748070716858     
  0.10500000000000000         0.83273321390151978     
  0.10530000000000000          2.0326738357543945     
  0.10560000000000000          3.0617742538452148     
  0.10590000000000001          3.8724408149719238     
  0.10620000000000000          4.4392476081848145     
  0.10650000000000001          4.7487568855285645     
  0.10679999999999999          4.8091845512390137     
  0.10710000000000000          4.6360554695129395     
  0.10740000000000001          4.2621283531188965     
  0.10770000000000000          3.7236447334289551     
  0.10800000000000000          3.0629959106445312     
  0.10830000000000001          2.3288438320159912     
  0.10859999999999999          1.5598788261413574     
  0.10890000000000000         0.80363517999649048     
  0.10920000000000001          9.4017714262008667E-002
  0.10950000000000001        -0.53576427698135376     
  0.10979999999999999         -1.0571079254150391     
  0.11009999999999999         -1.4600415229797363     
  0.11040000000000001         -1.7277553081512451     
  0.11070000000000001         -1.8655927181243896     
  0.11100000000000000         -1.8779095411300659     
  0.11130000000000000         -1.7765202522277832     
  0.11160000000000002         -1.5861281156539917     
  0.11190000000000001         -1.3225401639938354     
  0.11220000000000001         -1.0146031379699707     
  0.11250000000000000        -0.68379014730453491     
  0.11280000000000000        -0.35146856307983398     
  0.11309999999999999         -3.8613907992839813E-002
  0.11340000000000001         0.24505332112312317     
  0.11369999999999998         0.48872932791709900     
  0.11400000000000000         0.68873810768127441     
  0.11430000000000000         0.84307539463043213     
  0.11460000000000002         0.95410650968551636     
  0.11489999999999999          1.0235222578048706     
  0.11520000000000001          1.0569218397140503     
  0.11550000000000001          1.0548574924468994     
  0.11580000000000000          1.0186351537704468     
  0.11609999999999999         0.95033735036849976     
  0.11640000000000002         0.84370142221450806     
  0.11670000000000001         0.70386117696762085     
  0.11700000000000001         0.52634364366531372     
  0.11730000000000000         0.31336656212806702     
  0.11760000000000000          7.1251757442951202E-002
  0.11789999999999999        -0.20097349584102631     
  0.11820000000000001        -0.48522880673408508     
  0.11850000000000001        -0.77536743879318237     
  0.11880000000000000         -1.0545866489410400     
  0.11910000000000000         -1.3058335781097412     
  0.11940000000000002         -1.5205460786819458     
  0.11970000000000001         -1.6764301061630249     
  0.12000000000000001         -1.7692807912826538     
  0.12030000000000000         -1.7881256341934204     
  0.12060000000000000         -1.7283475399017334     
  0.12089999999999999         -1.5946967601776123     
  0.12119999999999999         -1.3860082626342773     
  0.12150000000000001         -1.1181266307830811     
  0.12180000000000001        -0.79981017112731934     
  0.12210000000000000        -0.44719439744949341     
  0.12239999999999999         -7.8701429069042206E-002
  0.12270000000000002         0.29057529568672180     
  0.12300000000000001         0.63896405696868896     
  0.12330000000000001         0.95186281204223633     
  0.12360000000000000          1.2120796442031860     
  0.12390000000000000          1.4092781543731689     
  0.12419999999999999          1.5333527326583862     
  0.12450000000000001          1.5792443752288818     
  0.12480000000000001          1.5482000112533569     
  0.12509999999999999          1.4410532712936401     
  0.12540000000000001          1.2697595357894897     
  0.12570000000000003          1.0435416698455811     
  0.12600000000000000         0.78059220314025879     
  0.12630000000000002         0.49737161397933960     
  0.12659999999999999         0.21082191169261932     
  0.12690000000000001         -5.8262992650270462E-002
  0.12719999999999998        -0.29827857017517090     
  0.12750000000000000        -0.49257075786590576     
  0.12780000000000002        -0.63531541824340820     
  0.12809999999999999        -0.72202891111373901     
  0.12840000000000001        -0.75246989727020264     
  0.12869999999999998        -0.73376595973968506     
  0.12900000000000000        -0.67081218957901001     
  0.12930000000000003        -0.57846683263778687     
  0.12959999999999999        -0.46532747149467468     
  0.12990000000000002        -0.34395200014114380     
  0.13019999999999998        -0.22454744577407837     
  0.13050000000000000        -0.11379119008779526     
  0.13080000000000003         -1.8918246030807495E-002
  0.13109999999999999          6.1108719557523727E-002
  0.13140000000000002         0.12258156388998032     
  0.13169999999999998         0.17092226445674896     
  0.13200000000000001         0.20670589804649353     
  0.13229999999999997         0.23269920051097870     
  0.13260000000000000         0.25393089652061462     
  0.13290000000000002         0.26685068011283875     
  0.13319999999999999         0.27573704719543457     
  0.13350000000000001         0.27501076459884644     
  0.13380000000000003         0.26494216918945312     
  0.13410000000000000         0.24282178282737732     
  0.13440000000000002         0.20412334799766541     
  0.13469999999999999         0.15275898575782776     
  0.13500000000000001          8.4885969758033752E-002
  0.13529999999999998          7.5532025657594204E-003
  0.13560000000000000         -7.6685324311256409E-002
  0.13590000000000002        -0.16124761104583740     
  0.13619999999999999        -0.23732744157314301     
  0.13650000000000001        -0.30113130807876587     
  0.13680000000000003        -0.34287515282630920     
  0.13710000000000000        -0.36118480563163757     
  0.13740000000000002        -0.35034468770027161     
  0.13769999999999999        -0.31030657887458801     
  0.13800000000000001        -0.24442803859710693     
  0.13829999999999998        -0.15420795977115631     
  0.13860000000000000         -4.8104524612426758E-002
  0.13890000000000002          7.1167044341564178E-002
  0.13919999999999999         0.19205850362777710     
  0.13950000000000001         0.30872523784637451     
  0.13979999999999998         0.41287434101104736     
  0.14010000000000000         0.49460893869400024     
  0.14040000000000002         0.55090069770812988     
  0.14069999999999999         0.57134109735488892     
  0.14100000000000001         0.55558532476425171     
  0.14130000000000004         0.49890518188476562     
  0.14160000000000000         0.40172088146209717     
  0.14189999999999997         0.26892909407615662     
  0.14219999999999999         0.10215242207050323     
  0.14250000000000002         -8.5423238575458527E-002
  0.14279999999999998        -0.28626066446304321     
  0.14310000000000000        -0.48445633053779602     
  0.14339999999999997        -0.66635531187057495     
  0.14369999999999999        -0.81971681118011475     
  0.14400000000000002        -0.92962384223937988     
  0.14429999999999998        -0.98939406871795654     
  0.14460000000000001        -0.99012094736099243     
  0.14490000000000003        -0.93297481536865234     
  0.14520000000000000        -0.81901568174362183     
  0.14550000000000002        -0.65766721963882446     
  0.14579999999999999        -0.46152257919311523     
  0.14610000000000001        -0.24113002419471741     
  0.14640000000000003         -1.6238041222095490E-002
  0.14670000000000000         0.20421849191188812     
  0.14699999999999996         0.40272617340087891     
  0.14729999999999999         0.57089561223983765     
  0.14760000000000001         0.70308500528335571     
  0.14789999999999998         0.79217523336410522     
  0.14820000000000000         0.84446454048156738     