  -1.4999999999999999E-002     0.0000000000000000     
  -1.4700000000000000E-002     0.0000000000000000     
  -1.4400000000000000E-002     0.0000000000000000     
  -1.4100000000000000E-002     0.0000000000000000     
  -1.3800000000000000E-002     0.0000000000000000     
  -1.3500000000000000E-002    -3.0113548418854996E-038
  -1.3200000000000000E-002     7.1317903310206906E-037
  -1.2899999999999998E-002    -7.3520321849122464E-034
  -1.2600000000000000E-002     2.3589412442780777E-033
  -1.2299999999999998E-002     2.0461636515968048E-031
  -1.2000000000000000E-002    -5.8899293083708390E-031
  -1.1699999999999999E-002     2.7234102316956079E-031
  -1.1399999999999999E-002    -2.6579833880357962E-028
  -1.1099999999999999E-002     1.3716405885363336E-027
  -1.0799999999999999E-002     3.7588004503206266E-026
  -1.0499999999999999E-002    -6.5855970690828653E-025
  -1.0199999999999999E-002     4.9356219692936304E-024
  -9.8999999999999991E-003    -1.6528773293856552E-023
  -9.5999999999999992E-003    -2.9727600467669457E-023
  -9.2999999999999992E-003     6.2863760213660063E-022
  -8.9999999999999993E-003    -3.6812377333242564E-021
  -8.6999999999999994E-003     1.4333431687720617E-020
  -8.3999999999999995E-003    -4.4213353895543938E-020
  -8.0999999999999996E-003     1.1373931008271601E-019
  -7.7999999999999988E-003    -2.3924273899774287E-019
  -7.4999999999999997E-003     4.0124136625231589E-019
  -7.1999999999999998E-003    -5.7891735167015426E-019
  -6.8999999999999981E-003     1.0989106518213871E-018
  -6.5999999999999982E-003    -3.5207578601387235E-018
  -6.3000000000000000E-003     9.3777411211472665E-018
  -6.0000000000000001E-003    -4.5059829424318319E-018
  -5.6999999999999985E-003    -7.9729583279522855E-017
  -5.3999999999999986E-003     3.7153106971203476E-016
  -5.1000000000000004E-003    -8.8438174687268565E-016
  -4.7999999999999987E-003     1.0796178827708230E-015
  -4.5000000000000005E-003     6.3435285738093291E-016
  -4.1999999999999989E-003    -6.7579682279432400E-015
  -3.8999999999999990E-003     1.8595667602623185E-014
  -3.5999999999999990E-003    -3.1677255819712503E-014
  -3.2999999999999991E-003     3.1753153355588151E-014
  -2.9999999999999992E-003     2.3795358756151576E-015
  -2.6999999999999993E-003    -8.3256308829253586E-014
  -2.3999999999999994E-003     1.8567196633289755E-013
  -2.0999999999999977E-003    -2.2484053634438424E-013
  -1.7999999999999995E-003     9.3580114385561191E-014
  -1.4999999999999979E-003     2.1311819965919126E-013
  -1.1999999999999997E-003    -4.9229023850553078E-013
  -8.9999999999999976E-004     4.9172230411317535E-013
  -5.9999999999999810E-004    -3.6656427321037945E-013
  -2.9999999999999992E-004     7.7178960722906424E-013
   0.0000000000000000         -1.8017669538372102E-012
   3.0000000000000165E-004     1.5851398352897578E-012
   5.9999999999999984E-004     3.1265745053184254E-012
   9.0000000000000149E-004    -1.3797347805483064E-011
   1.2000000000000031E-003     2.6949112053365918E-011
   1.5000000000000013E-003    -3.0600583143957974E-011
   1.8000000000000030E-003    -6.4173648601355584E-012
   2.1000000000000012E-003     1.3820720631975709E-010
   2.3999999999999994E-003    -3.8225118564664085E-010
   2.7000000000000010E-003     6.5461944687932816E-010
   2.9999999999999992E-003    -1.0829157127557753E-009
   3.3000000000000008E-003     2.3706068469495430E-009
   3.6000000000000025E-003    -2.3822360997854809E-009
   3.9000000000000007E-003    -1.4004273006763818E-008
   4.2000000000000023E-003     6.6642300402513073E-008
   4.5000000000000005E-003    -9.1296309898175243E-008
   4.7999999999999987E-003    -1.5329790609798133E-007
   5.1000000000000004E-003     6.8921002065000761E-007
   5.4000000000000020E-003    -3.3234569612365658E-007
   5.7000000000000037E-003    -2.2455492716908643E-006
   5.9999999999999984E-003     2.5138629999849857E-006
   6.3000000000000000E-003     6.1912021338958154E-006
   6.6000000000000017E-003    -6.9160935815824648E-006
   6.9000000000000034E-003    -2.0436263606373931E-005
   7.2000000000000015E-003     1.0145424704080096E-005
   7.5000000000000032E-003     1.1034810339183881E-004
   7.8000000000000014E-003     2.6592618965253032E-004
   8.0999999999999996E-003     4.5815030683671581E-004
   8.4000000000000012E-003     6.9671287651388789E-004
   8.7000000000000029E-003     1.0296517587179352E-003
   9.0000000000000011E-003     1.5639249555222320E-003
   9.2999999999999992E-003     2.4375374208859477E-003
   9.6000000000000009E-003     3.7858075430092508E-003
   9.8999999999999991E-003     5.7907847210880714E-003
   1.0200000000000001E-002     8.7142494467622178E-003
   1.0500000000000002E-002     1.2914055545941355E-002
   1.0800000000000004E-002     1.8885512090818901E-002
   1.1099999999999999E-002     2.7269341086789134E-002
   1.1400000000000000E-002     3.8837952926049080E-002
   1.1700000000000002E-002     5.4497633406296098E-002
   1.2000000000000004E-002     7.5346370579446598E-002
   1.2300000000000002E-002    0.10264926813072917     
   1.2600000000000000E-002    0.13770174199546759     
   1.2900000000000002E-002    0.18180062253514873     
   1.3200000000000000E-002    0.23615830416632821     
   1.3500000000000002E-002    0.30168472592640594     
   1.3800000000000003E-002    0.37875025599575629     
   1.4100000000000001E-002    0.46685657047239282     
   1.4400000000000000E-002    0.56440799536964903     
   1.4700000000000001E-002    0.66841777826958548     
   1.4999999999999999E-002    0.77413895186004211     
   1.5300000000000001E-002    0.87490087089883417     
   1.5600000000000003E-002    0.96201854041733270     
   1.5899999999999997E-002     1.0248546384247064     
   1.6199999999999999E-002     1.0511618156404623     
   1.6500000000000001E-002     1.0275500272345965     
   1.6800000000000002E-002    0.94051517306219168     
   1.7100000000000004E-002    0.77759516096188719     
   1.7400000000000006E-002    0.52858426512929491     
   1.7700000000000000E-002    0.18739912663947145     
   1.8000000000000002E-002   -0.24663345935490888     
   1.8300000000000004E-002   -0.76719200262639120     
   1.8600000000000005E-002    -1.3600636426301094     
   1.8900000000000000E-002    -2.0027727214441953     
   1.9200000000000002E-002    -2.6644959488322115     
   1.9500000000000003E-002    -3.3073258709192004     
   1.9799999999999998E-002    -3.8879597862448918     
   2.0100000000000000E-002    -4.3605510046819376     
   2.0400000000000001E-002    -4.6800661254706597     
   2.0700000000000003E-002    -4.8058772748323406     
   2.0999999999999998E-002    -4.7058271761973174     
   2.1299999999999999E-002    -4.3594802028639776     
   2.1600000000000001E-002    -3.7609378054961979     
   2.1900000000000003E-002    -2.9206256154074026     
   2.2200000000000004E-002    -1.8657387074990481     
   2.2500000000000006E-002   -0.63924076997053092     
   2.2800000000000001E-002    0.70241229375977099     
   2.3100000000000002E-002     2.0929849885970935     
   2.3400000000000004E-002     3.4607729508224025     
   2.3699999999999999E-002     4.7336469463174211     
   2.4000000000000000E-002     5.8439511528183345     
   2.4300000000000002E-002     6.7331983237728252     
   2.4599999999999997E-002     7.3556288842694073     
   2.4900000000000005E-002     7.6806831324255143     
   2.5200000000000000E-002     7.6947743640620274     
   2.5499999999999995E-002     7.4007075999031429     
   2.5800000000000003E-002     6.8167917736358561     
   2.6099999999999998E-002     5.9751057419705944     
   2.6400000000000007E-002     4.9181268412726808     
   2.6700000000000002E-002     3.6966358878448631     
   2.6999999999999996E-002     2.3661933717014278     
   2.7300000000000005E-002    0.98434551292248784     
   2.7600000000000000E-002   -0.39099331807203441     
   2.7900000000000008E-002    -1.7045080836515396     
   2.8200000000000003E-002    -2.9041512324983181     
   2.8499999999999998E-002    -3.9429476410576711     
   2.8800000000000006E-002    -4.7807940120613210     
   2.9100000000000001E-002    -5.3843458468238055     
   2.9400000000000003E-002    -5.7304309986496946     
   2.9700000000000004E-002    -5.8055985735488491     
   3.0000000000000006E-002    -5.6084002875480508     
   3.0300000000000001E-002    -5.1509030162177964     
   3.0600000000000002E-002    -4.4575710985837702     
   3.0900000000000004E-002    -3.5677418553418363     
   3.1199999999999999E-002    -2.5321591382771800     
   3.1500000000000007E-002    -1.4115851241610997     
   3.1800000000000002E-002   -0.27500499637977693     
   3.2099999999999997E-002    0.80733928649631537     
   3.2400000000000005E-002     1.7658019133661806     
   3.2700000000000000E-002     2.5380007924261747     
   3.3000000000000002E-002     3.0732022879096164     
   3.3300000000000003E-002     3.3348362531262694     
   3.3599999999999998E-002     3.3059066322943806     
   3.3900000000000000E-002     2.9874477130817496     
   3.4200000000000001E-002     2.3997507808561949     
   3.4500000000000003E-002     1.5805174583563897     
   3.4799999999999998E-002    0.57978404793453198     
   3.5099999999999999E-002   -0.54238240664945181     
   3.5400000000000001E-002    -1.7230057018183764     
   3.5699999999999996E-002    -2.9002929713679517     
   3.6000000000000004E-002    -4.0175482572855472     
   3.6299999999999999E-002    -5.0285706917084099     
   3.6600000000000008E-002    -5.8982503062325407     
   3.6900000000000002E-002    -6.6035133849213707     
   3.7199999999999997E-002    -7.1335808079673484     
   3.7500000000000006E-002    -7.4865327498357033     
   3.7800000000000000E-002    -7.6673066753453440     
   3.8100000000000009E-002    -7.6839168737923842     
   3.8400000000000004E-002    -7.5435611877057624     
   3.8699999999999998E-002    -7.2505691957479712     
   3.9000000000000007E-002    -6.8036845718370387     
   3.9300000000000002E-002    -6.1958193342342156     
   3.9600000000000003E-002    -5.4144394117219008     
   3.9900000000000005E-002    -4.4442632516460208     
   4.0200000000000000E-002    -3.2697208522071577     
   4.0500000000000001E-002    -1.8791170737054586     
   4.0800000000000003E-002   -0.26927687927739541     
   4.1100000000000005E-002     1.5517751481260547     
   4.1399999999999999E-002     3.5597107676500315     
   4.1700000000000008E-002     5.7149994866234195     
   4.2000000000000003E-002     7.9600005141457046     
   4.2299999999999997E-002     10.221909264272995     
   4.2600000000000006E-002     12.416782081823982     
   4.2900000000000001E-002     14.450717424885539     
   4.3200000000000002E-002     16.229817734163760     
   4.3500000000000004E-002     17.662582596264656     
   4.3799999999999999E-002     18.667216002728821     
   4.4100000000000000E-002     19.178291310911732     
   4.4400000000000002E-002     19.147006824505809     
   4.4700000000000004E-002     18.548733546193830     
   4.4999999999999998E-002     17.380617747909014     
   4.5300000000000000E-002     15.663027563995911     
   4.5600000000000002E-002     13.439421209068882     
   4.5899999999999996E-002     10.770605785129760     
   4.6200000000000005E-002     7.7358100183965348     
   4.6500000000000000E-002     4.4264630558347733     
   4.6799999999999994E-002    0.94396008547877841     
   4.7100000000000003E-002    -2.6022551167269228     
   4.7399999999999998E-002    -6.1006959389837903     
   4.7700000000000006E-002    -9.4377680018249919     
   4.8000000000000001E-002    -12.502570350124802     
   4.8300000000000010E-002    -15.190606496855324     
   4.8600000000000004E-002    -17.405630642911177     
   4.8899999999999999E-002    -19.064730658643896     
   4.9200000000000008E-002    -20.103693018537513     
   4.9500000000000002E-002    -20.478912764350184     
   4.9800000000000011E-002    -20.174302020431128     
   5.0100000000000006E-002    -19.203253470202981     
   5.0400000000000000E-002    -17.609832839116848     
   5.0700000000000009E-002    -15.472014147597577     
   5.1000000000000004E-002    -12.896533453889106     
   5.1299999999999998E-002    -10.016850616386989     
   5.1600000000000007E-002    -6.9859667255029478     
   5.1900000000000002E-002    -3.9656230519967579     
   5.2200000000000010E-002    -1.1201872403655857     
   5.2500000000000005E-002     1.4000325165447407     
   5.2800000000000000E-002     3.4661700835958413     
   5.3099999999999994E-002     4.9805650658186522     
   5.3400000000000003E-002     5.8887949927783296     
   5.3699999999999998E-002     6.1783156862286575     
   5.4000000000000006E-002     5.8854432913816765     
   5.4300000000000001E-002     5.0886642882476281     
   5.4599999999999996E-002     3.9032496856268324     
   5.4900000000000004E-002     2.4734668786586909     
   5.5199999999999999E-002    0.95645524244435887     
   5.5499999999999994E-002   -0.48750974266026503     
   5.5800000000000002E-002    -1.7107560150054724     
   5.6099999999999997E-002    -2.5910014088498343     
   5.6400000000000006E-002    -3.0394634791112196     
   5.6700000000000000E-002    -3.0088019538210453     
   5.6999999999999995E-002    -2.4957183759019301     
   5.7300000000000004E-002    -1.5383269768529750     
   5.7599999999999998E-002   -0.21210750747739837     
   5.7900000000000007E-002     1.3798397678016272     
   5.8200000000000002E-002     3.1179207102001243     
   5.8499999999999996E-002     4.8764724452344055     
   5.8800000000000005E-002     6.5373609133955677     
   5.9100000000000000E-002     7.9980726314331605     
   5.9400000000000008E-002     9.1805447314588662     
   5.9700000000000003E-002     10.035827935019455     
   6.0000000000000012E-002     10.542518822864935     
   6.0300000000000006E-002     10.709500500426600     
   6.0600000000000001E-002     10.567692643925398     
   6.0900000000000010E-002     10.163762406273577     
   6.1200000000000004E-002     9.5569448072726004     
   6.1500000000000013E-002     8.8065686365123952     
   6.1800000000000008E-002     7.9707943357941247     
   6.2100000000000002E-002     7.0989919972757889     
   6.2399999999999997E-002     6.2283109439646580     
   6.2700000000000006E-002     5.3858315660118876     
   6.3000000000000000E-002     4.5830647611529685     
   6.3300000000000009E-002     3.8217804178320307     
   6.3600000000000004E-002     3.0945846343503121     
   6.3899999999999998E-002     2.3853265307202065     
   6.4199999999999993E-002     1.6770418281775648     
   6.4500000000000002E-002    0.94910675147456658     
   6.4800000000000010E-002    0.18373979890447689     
   6.5100000000000005E-002   -0.63158463983803514     
   6.5400000000000000E-002    -1.5055277304547969     
   6.5700000000000008E-002    -2.4364148826877443     
   6.5999999999999989E-002    -3.4166959355920454     
   6.6299999999999998E-002    -4.4314417716492898     
   6.6600000000000006E-002    -5.4600604864488389     
   6.6900000000000001E-002    -6.4824533861580207     
   6.7199999999999996E-002    -7.4797348666976617     
   6.7500000000000004E-002    -8.4413265016235997     
   6.7800000000000013E-002    -9.3679611269935066     
   6.8099999999999994E-002    -10.274044713653197     
   6.8400000000000002E-002    -11.189164752798774     
   6.8700000000000011E-002    -12.152324135617079     
   6.8999999999999992E-002    -13.206917138544043     
   6.9300000000000000E-002    -14.390847217880946     
   6.9600000000000009E-002    -15.722260037719252     
   6.9900000000000004E-002    -17.189874464908939     
   7.0199999999999999E-002    -18.738138814692945     
   7.0500000000000007E-002    -20.260353690932789     
   7.0800000000000016E-002    -21.596575309385059     
   7.1099999999999997E-002    -22.536724719193273     
   7.1400000000000005E-002    -22.835190247437026     
   7.1700000000000000E-002    -22.229062797560005     
   7.1999999999999995E-002    -20.467612862968053     
   7.2300000000000003E-002    -17.341422870071369     
   7.2600000000000012E-002    -12.714527885194343     
   7.2900000000000006E-002    -6.5541358184201108     
   7.3200000000000001E-002     1.0482793830396986     
   7.3499999999999996E-002     9.8628876969748944     
   7.3800000000000004E-002     19.525501566084017     
   7.4099999999999999E-002     29.546607250473812     
   7.4400000000000008E-002     39.342435325653526     
   7.4700000000000003E-002     48.274487380183757     
   7.5000000000000011E-002     55.693494002504529     
   7.5299999999999992E-002     60.997532447214610     
   7.5600000000000001E-002     63.680396581408104     
   7.5900000000000009E-002     63.379910316949804     
   7.6200000000000004E-002     59.917903018368293     
   7.6499999999999999E-002     53.317955851198121     
   7.6800000000000007E-002     43.820348141109207     
   7.7099999999999988E-002     31.865351419463309     
   7.7399999999999997E-002     18.068984079393744     
   7.7700000000000005E-002     3.1841753991619726     
   7.8000000000000014E-002    -11.960650030550255     
   7.8299999999999995E-002    -26.511549341207228     
   7.8600000000000003E-002    -39.656927124173990     
   7.8900000000000012E-002    -50.686153188594744     
   7.9199999999999993E-002    -59.028869253135099     
   7.9500000000000001E-002    -64.305361765531416     
   7.9800000000000010E-002    -66.331714534620545     
   8.0100000000000018E-002    -65.136625343001128     
   8.0399999999999999E-002    -60.943433962155837     
   8.0700000000000008E-002    -54.140834749961186     
   8.1000000000000003E-002    -45.254713475065273     
   8.1299999999999997E-002    -34.892635221217461     
   8.1600000000000006E-002    -23.704436795684103     
   8.1900000000000014E-002    -12.333568310232906     
   8.2199999999999995E-002    -1.3747193995139924     
   8.2500000000000004E-002     8.6568983479949111     
   8.2799999999999999E-002     17.351754000589949     
   8.3100000000000007E-002     24.417155229882951     
   8.3400000000000002E-002     29.681626876663927     
   8.3700000000000011E-002     33.091106121915914     
   8.4000000000000005E-002     34.695664163523873     
   8.4300000000000000E-002     34.632077360451447     
   8.4599999999999995E-002     33.108475020746880     
   8.4900000000000003E-002     30.377889483644822     
   8.5199999999999998E-002     26.724123591441526     
   8.5500000000000007E-002     22.440403679772885     
   8.5800000000000001E-002     17.810276838843379     
   8.6100000000000010E-002     13.103271511250568     
   8.6399999999999991E-002     8.5517797518321856     
   8.6699999999999999E-002     4.3535357231781759     
   8.7000000000000008E-002    0.66123952161226640     
   8.7300000000000003E-002    -2.4235764137667104     
   8.7599999999999997E-002    -4.8386798387877832     
   8.7900000000000006E-002    -6.5753805867817050     
   8.8200000000000014E-002    -7.6587160625292654     
   8.8499999999999995E-002    -8.1480217811132150     
   8.8800000000000004E-002    -8.1318131293238878     
   8.9100000000000013E-002    -7.7081398588934604     
   8.9399999999999993E-002    -6.9893607608634625     
   8.9700000000000002E-002    -6.0813405866860819     
   9.0000000000000011E-002    -5.0834297649286668     
   9.0299999999999991E-002    -4.0840903620072737     
   9.0600000000000000E-002    -3.1499379089305393     
   9.0900000000000009E-002    -2.3344526538586408     
   9.1200000000000017E-002    -1.6696606826003517     
   9.1499999999999998E-002    -1.1730807433240145     
   9.1800000000000007E-002   -0.84828537600385800     
   9.2100000000000001E-002   -0.68753918784814516     
   9.2399999999999996E-002   -0.67540178551112007     
   9.2700000000000005E-002   -0.79044081933722055     
   9.3000000000000013E-002    -1.0073901649064609     
   9.3300000000000008E-002    -1.2974095587071375     
   9.3600000000000003E-002    -1.6324562762568036     
   9.3899999999999997E-002    -1.9802770647811627     
   9.4200000000000006E-002    -2.3133700505548376     
   9.4500000000000001E-002    -2.6038131758531193     
   9.4800000000000009E-002    -2.8256137808989337     
   9.5100000000000004E-002    -2.9625715151324670     
   9.5399999999999999E-002    -2.9976629082029547     
   9.5699999999999993E-002    -2.9267494282397735     
   9.6000000000000002E-002    -2.7502161403994307     
   9.6300000000000011E-002    -2.4739300099711556     
   9.6600000000000005E-002    -2.1145956949190818     
   9.6900000000000000E-002    -1.6856974361013428     
   9.7200000000000009E-002    -1.2094032186101060     
   9.7499999999999989E-002   -0.70449742313243391     
   9.7799999999999998E-002   -0.18718567831522792     
   9.8100000000000007E-002    0.32402404517406502     
   9.8400000000000015E-002    0.82114268909238786     
   9.8699999999999996E-002     1.2931356664737379     
   9.9000000000000005E-002     1.7341539703829483     
   9.9300000000000013E-002     2.1386685831401451     
   9.9599999999999994E-002     2.4993238538085052     
   9.9900000000000003E-002     2.8100373440334039     
  0.10020000000000001          3.0597124488389511     
  0.10049999999999999          3.2380350672149660     
  0.10080000000000000          3.3325022879611197     
  0.10110000000000001          3.3325303510670921     
  0.10140000000000000          3.2294259065618434     
  0.10170000000000000          3.0205339353257585     
  0.10200000000000001          2.7087837062097719     
  0.10230000000000002          2.3034161358722116     
  0.10260000000000000          1.8240172896601123     
  0.10290000000000001          1.2930081278754813     
  0.10320000000000000         0.74126747052682518     
  0.10350000000000001         0.20055235154481021     
  0.10380000000000000        -0.29788471042721554     
  0.10410000000000001        -0.72248665847509952     
  0.10440000000000001         -1.0507747834143046     
  0.10470000000000000         -1.2639766432470445     
  0.10500000000000000         -1.3534134095119370     
  0.10530000000000000         -1.3197619513982133     
  0.10560000000000000         -1.1698228865964673     
  0.10590000000000001        -0.92097075487938440     
  0.10620000000000000        -0.59513181398405557     
  0.10650000000000001        -0.21846755042461830     
  0.10679999999999999         0.17925028105965080     
  0.10710000000000000         0.56836466712072209     
  0.10740000000000001         0.92157423270635874     
  0.10770000000000000          1.2126896870622801     
  0.10800000000000000          1.4214314641200687     
  0.10830000000000001          1.5326315954523650     
  0.10859999999999999          1.5347671024206662     
  0.10890000000000000          1.4276927390003351     
  0.10920000000000001          1.2112083623158298     
  0.10950000000000001         0.89536391718569774     
  0.10979999999999999         0.49555796476945524     
  0.11009999999999999          2.6821891843934242E-002
  0.11040000000000001        -0.48300496963584294     
  0.11070000000000001         -1.0134052181896607     
  0.11100000000000000         -1.5360769621591430     
  0.11130000000000000         -2.0235434854707108     
  0.11160000000000002         -2.4551241671686199     
  0.11190000000000001         -2.8024049433491314     
  0.11220000000000001         -3.0525304596512655     
  0.11250000000000000         -3.1902918559555360     
  0.11280000000000000         -3.2073192865587856     
  0.11309999999999999         -3.1071753904565469     
  0.11340000000000001         -2.8911814559929638     
  0.11369999999999998         -2.5761820417705792     
  0.11400000000000000         -2.1790743958323731     
  0.11430000000000000         -1.7221975442014212     
  0.11460000000000002         -1.2340581787915781     
  0.11489999999999999        -0.73753776366804047     
  0.11520000000000001        -0.26046090045282266     
  0.11550000000000001         0.17674485313979016     
  0.11580000000000000         0.55837401477278092     
  0.11609999999999999         0.87376412263351444     
  0.11640000000000002          1.1214695643690717     
  0.11670000000000001          1.3049225867462724     
  0.11700000000000001          1.4335610500550047     
  0.11730000000000000          1.5199232338080861     
  0.11760000000000000          1.5783552965675867     
  0.11789999999999999          1.6193083898562151     
  0.11820000000000001          1.6515288807110480     
  0.11850000000000001          1.6760819869741681     
  0.11880000000000000          1.6883863804608339     
  0.11910000000000000          1.6790199745189227     
  0.11940000000000002          1.6310681862511984     
  0.11970000000000001          1.5314876548215750     
  0.12000000000000001          1.3649980346719488     
  0.12030000000000000          1.1247882565324723     
  0.12060000000000000         0.81411625058982651     
  0.12089999999999999         0.44415463713916914     
  0.12119999999999999          4.2620331648667076E-002
  0.12150000000000001        -0.35594184030883724     
  0.12180000000000001        -0.70772691561688106     
  0.12210000000000000        -0.96605824442065114     
  0.12239999999999999         -1.0902118670761354     
  0.12270000000000002         -1.0458963117458815     
  0.12300000000000001        -0.81622563599749753     
  0.12330000000000001        -0.40303538972681308     
  0.12360000000000000         0.17070942510985887     
  0.12390000000000000         0.86121511434072318     
  0.12419999999999999          1.6067919347643951     
  0.12450000000000001          2.3347279961343315     
  0.12480000000000001          2.9675000678015229     
  0.12509999999999999          3.4304484072552559     
  0.12540000000000001          3.6633793834877775     
  0.12570000000000003          3.6215774661987310     
  0.12600000000000000          3.2882105927727849     
  0.12630000000000002          2.6702227926615087     
  0.12659999999999999          1.8000248678951785     
  0.12690000000000001         0.73776640107236746     
  0.12719999999999998        -0.44619022226448379     
  0.12750000000000000         -1.6637524985678951     
  0.12780000000000002         -2.8282912240203544     
  0.12809999999999999         -3.8588492118565334     
  0.12840000000000001         -4.6815670344466938     
  0.12869999999999998         -5.2477060087179987     
  0.12900000000000000         -5.5221434665530236     
  0.12930000000000003         -5.4968917300049327     
  0.12959999999999999         -5.1857859728748892     
  0.12990000000000002         -4.6187168634831579     
  0.13019999999999998         -3.8471720038718473     
  0.13050000000000000         -2.9278874602182015     
  0.13080000000000003         -1.9272592393719279     
  0.13109999999999999        -0.91150276934599805     
  0.13140000000000002          5.8191697975935597E-002
  0.13169999999999998         0.92655559297766388     
  0.13200000000000001          1.6525153322431123     
  0.13229999999999997          2.2057880920585831     
  0.13260000000000000          2.5715866622182517     
  0.13290000000000002          2.7480510915557517     
  0.13319999999999999          2.7466990915404388     
  0.13350000000000001          2.5893899888863601     
  0.13380000000000003          2.3056315263876428     
  0.13410000000000000          1.9314213351920273     
  0.13440000000000002          1.5020113293426149     
  0.13469999999999999          1.0548667092953856     
  0.13500000000000001         0.62188637111783418     
  0.13529999999999998         0.23002796100408318     
  0.13560000000000000         -9.8634530375726115E-002
  0.13590000000000002        -0.35206531889420489     
  0.13619999999999999        -0.52192517070082545     
  0.13650000000000001        -0.60736017379432639     
  0.13680000000000003        -0.61287189417617327     
  0.13710000000000000        -0.54525380847657701     
  0.13740000000000002        -0.41582072587653762     
  0.13769999999999999        -0.23582070774466279     
  0.13800000000000001         -1.7438016703343884E-002
  0.13829999999999998         0.22558154380405071     
  0.13860000000000000         0.48100603735633030     
  0.13890000000000002         0.73567942680898213     
  0.13919999999999999         0.97570041641044902     
  0.13950000000000001          1.1897281427880415     
  0.13979999999999998          1.3644160633019675     
  0.14010000000000000          1.4886332382608281     
  0.14040000000000002          1.5537571500880158     
  0.14069999999999999          1.5507204495474376     
  0.14100000000000001          1.4777709735060078     
  0.14130000000000004          1.3330731880387745     
  0.14160000000000000          1.1205729129389006     
  0.14189999999999997         0.85007262352601387     
  0.14219999999999999         0.53014575054461233     
  0.14250000000000002         0.17836455072580470     
  0.14279999999999998        -0.19014747179735281     
  0.14310000000000000        -0.55801418060072039     
  0.14339999999999997        -0.90536563697895645     
  0.14369999999999999         -1.2181595707315083     
  0.14400000000000002         -1.4789821361593667     
  0.14429999999999998         -1.6773719831720513     
  0.14460000000000001         -1.8043184431439414     
  0.14490000000000003         -1.8530057518535159     
  0.14520000000000000         -1.8241658135576344     
  0.14550000000000002         -1.7184527040021607     
  0.14579999999999999         -1.5437475203518503     
  0.14610000000000001         -1.3101619500185819     
  0.14640000000000003         -1.0314346696341090     
  0.14670000000000000        -0.72451932044551626     
  0.14699999999999996        -0.40739110623468378     
  0.14729999999999999         -9.9676382598255842E-002
  0.14760000000000001         0.18194655943037930     
  0.14789999999999998         0.41990102241729588     
  0.14820000000000000         0.60345439587043970     