  -1.4999999999999999E-002     0.0000000000000000     
  -1.4700000000000000E-002    -1.2531482291303256E-018
  -1.4400000000000000E-002    -3.9450639986499027E-015
  -1.4100000000000000E-002     1.5119848461361135E-013
  -1.3800000000000000E-002     9.6933147272770803E-012
  -1.3500000000000000E-002     1.2449522315827188E-011
  -1.3200000000000000E-002    -3.8401262725251684E-010
  -1.2899999999999998E-002    -1.5621555438105617E-010
  -1.2600000000000000E-002     3.6663492242183793E-009
  -1.2299999999999998E-002     8.0079443076641610E-010
  -1.2000000000000000E-002    -1.1778825914632307E-008
  -1.1699999999999999E-002    -1.3802532450313265E-008
  -1.1399999999999999E-002     1.2813458738492045E-008
  -1.1099999999999999E-002     8.1821795561154431E-008
  -1.0799999999999999E-002    -4.2721772786080692E-009
  -1.0499999999999999E-002    -1.7798505780319829E-007
  -1.0199999999999999E-002     4.3824076811915802E-008
  -9.8999999999999991E-003     3.5167126100077439E-008
  -9.5999999999999992E-003    -2.2822190715032775E-007
  -9.2999999999999992E-003     5.7057280855588033E-007
  -8.9999999999999993E-003     4.3055456444562878E-007
  -8.6999999999999994E-003    -1.0270266557199648E-006
  -8.3999999999999995E-003    -2.8828566200900241E-008
  -8.0999999999999996E-003     4.0267363488055707E-007
  -7.7999999999999988E-003    -1.5462786677744589E-006
  -7.4999999999999997E-003     2.8760769055224955E-007
  -7.1999999999999998E-003     3.0646685900137527E-006
  -6.8999999999999981E-003     1.0443342262078659E-006
  -6.5999999999999982E-003    -9.2992064537611441E-007
  -6.3000000000000000E-003    -2.9722107228735695E-006
  -6.0000000000000001E-003    -6.9468810579564888E-006
  -5.6999999999999985E-003     6.2081124951873790E-007
  -5.3999999999999986E-003     1.8256978364661336E-005
  -5.1000000000000004E-003     1.1377013834135141E-005
  -4.7999999999999987E-003    -2.6533904019743204E-005
  -4.5000000000000005E-003    -4.6251261665020138E-005
  -4.1999999999999989E-003     9.1978427008143626E-006
  -3.8999999999999990E-003     1.9486094242893159E-004
  -3.5999999999999990E-003     5.1623792387545109E-004
  -3.2999999999999991E-003     8.8853819761425257E-004
  -2.9999999999999992E-003     1.2924158945679665E-003
  -2.6999999999999993E-003     1.8660975620150566E-003
  -2.3999999999999994E-003     2.8003584593534470E-003
  -2.0999999999999977E-003     4.3019768781960011E-003
  -1.7999999999999995E-003     6.6413772292435169E-003
  -1.4999999999999979E-003     1.0131568647921085E-002
  -1.1999999999999997E-003     1.5165080316364765E-002
  -8.9999999999999976E-004     2.2388407960534096E-002
  -5.9999999999999810E-004     3.2655894756317139E-002
  -2.9999999999999992E-004     4.6871449798345566E-002
   0.0000000000000000          6.6190972924232483E-002
   3.0000000000000165E-004     9.2187233269214630E-002
   5.9999999999999984E-004    0.12654390931129456     
   9.0000000000000149E-004    0.17083860933780670     
   1.2000000000000031E-003    0.22672289609909058     
   1.5000000000000013E-003    0.29572972655296326     
   1.8000000000000030E-003    0.37873610854148865     
   2.1000000000000012E-003    0.47580802440643311     
   2.3999999999999994E-003    0.58583086729049683     
   2.7000000000000010E-003    0.70570933818817139     
   2.9999999999999992E-003    0.82981431484222412     
   3.3000000000000008E-003    0.94971406459808350     
   3.6000000000000025E-003     1.0538669824600220     
   3.9000000000000007E-003     1.1270391941070557     
   4.2000000000000023E-003     1.1504244804382324     
   4.5000000000000005E-003     1.1025663614273071     
   4.7999999999999987E-003    0.96003162860870361     
   5.1000000000000004E-003    0.69862920045852661     
   5.4000000000000020E-003    0.29620218276977539     
   5.7000000000000037E-003   -0.26461875438690186     
   5.9999999999999984E-003   -0.99407339096069336     
   6.3000000000000000E-003    -1.8922235965728760     
   6.6000000000000017E-003    -2.9454660415649414     
   6.9000000000000034E-003    -4.1242036819458008     
   7.2000000000000015E-003    -5.3821930885314941     
   7.5000000000000032E-003    -6.6564607620239258     
   7.8000000000000014E-003    -7.8682861328125000     
   8.0999999999999996E-003    -8.9270982742309570     
   8.4000000000000012E-003    -9.7363185882568359     
   8.7000000000000029E-003    -10.199504852294922     
   9.0000000000000011E-003    -10.228286743164062     
   9.2999999999999992E-003    -9.7509002685546875     
   9.6000000000000009E-003    -8.7198495864868164     
   9.8999999999999991E-003    -7.1194291114807129     
   1.0200000000000001E-002    -4.9694914817810059     
   1.0500000000000002E-002    -2.3274476528167725     
   1.0800000000000004E-002    0.71253061294555664     
   1.1099999999999999E-002     4.0234456062316895     
   1.1400000000000000E-002     7.4541945457458496     
   1.1700000000000002E-002     10.839406013488770     
   1.2000000000000004E-002     14.008888244628906     
   1.2300000000000002E-002     16.801076889038086     
   1.2600000000000000E-002     19.075605392456055     
   1.2900000000000002E-002     20.720760345458984     
   1.3200000000000000E-002     21.661912918090820     
   1.3500000000000002E-002     21.865827560424805     
   1.3800000000000003E-002     21.340955734252930     
   1.4100000000000001E-002     20.135536193847656     
   1.4400000000000000E-002     18.330776214599609     
   1.4700000000000001E-002     16.033866882324219     
   1.4999999999999999E-002     13.368777275085449     
   1.5300000000000001E-002     10.462411880493164     
   1.5600000000000003E-002     7.4375643730163574     
   1.5899999999999997E-002     4.4028034210205078     
   1.6199999999999999E-002     1.4414471387863159     
   1.6500000000000001E-002    -1.3908578157424927     
   1.6800000000000002E-002    -4.0691170692443848     
   1.7100000000000004E-002    -6.6006808280944824     
   1.7400000000000006E-002    -9.0173969268798828     
   1.7700000000000000E-002    -11.369768142700195     
   1.8000000000000002E-002    -13.717370986938477     
   1.8300000000000004E-002    -16.112911224365234     
   1.8600000000000005E-002    -18.591110229492188     
   1.8900000000000000E-002    -21.155693054199219     
   1.9200000000000002E-002    -23.765819549560547     
   1.9500000000000003E-002    -26.331872940063477     
   1.9799999999999998E-002    -28.713949203491211     
   2.0100000000000000E-002    -30.723224639892578     
   2.0400000000000001E-002    -32.139194488525391     
   2.0700000000000003E-002    -32.723320007324219     
   2.0999999999999998E-002    -32.243595123291016     
   2.1299999999999999E-002    -30.503511428833008     
   2.1600000000000001E-002    -27.362697601318359     
   2.1900000000000003E-002    -22.766288757324219     
   2.2200000000000004E-002    -16.761507034301758     
   2.2500000000000006E-002    -9.5029029846191406     
   2.2800000000000001E-002    -1.2574902772903442     
   2.3100000000000002E-002     7.6102843284606934     
   2.3400000000000004E-002     16.660146713256836     
   2.3699999999999999E-002     25.404756546020508     
   2.4000000000000000E-002     33.349838256835938     
   2.4300000000000002E-002     40.026607513427734     
   2.4599999999999997E-002     45.035423278808594     
   2.4900000000000005E-002     48.075828552246094     
   2.5200000000000000E-002     48.966014862060547     
   2.5499999999999995E-002     47.663547515869141     
   2.5800000000000003E-002     44.265693664550781     
   2.6099999999999998E-002     38.995666503906250     
   2.6400000000000007E-002     32.187484741210938     
   2.6700000000000002E-002     24.260824203491211     
   2.6999999999999996E-002     15.683080673217773     
   2.7300000000000005E-002     6.9339847564697266     
   2.7600000000000000E-002    -1.5224704742431641     
   2.7900000000000008E-002    -9.2726135253906250     
   2.8200000000000003E-002    -15.977951049804688     
   2.8499999999999998E-002    -21.393356323242188     
   2.8800000000000006E-002    -25.370727539062500     
   2.9100000000000001E-002    -27.860679626464844     
   2.9400000000000003E-002    -28.912199020385742     
   2.9700000000000004E-002    -28.647424697875977     
   3.0000000000000006E-002    -27.250450134277344     
   3.0300000000000001E-002    -24.949956893920898     
   3.0600000000000002E-002    -21.986742019653320     
   3.0900000000000004E-002    -18.605041503906250     
   3.1199999999999999E-002    -15.031940460205078     
   3.1500000000000007E-002    -11.463927268981934     
   3.1800000000000002E-002    -8.0608425140380859     
   3.2099999999999997E-002    -4.9383296966552734     
   3.2400000000000005E-002    -2.1764831542968750     
   3.2700000000000000E-002    0.18295714259147644     
   3.3000000000000002E-002     2.1315069198608398     
   3.3300000000000003E-002     3.6788551807403564     
   3.3599999999999998E-002     4.8532047271728516     
   3.3900000000000000E-002     5.6916584968566895     
   3.4200000000000001E-002     6.2342252731323242     
   3.4500000000000003E-002     6.5215849876403809     
   3.4799999999999998E-002     6.5923852920532227     
   3.5099999999999999E-002     6.4825015068054199     
   3.5400000000000001E-002     6.2228899002075195     
   3.5699999999999996E-002     5.8425436019897461     
   3.6000000000000004E-002     5.3689298629760742     
   3.6299999999999999E-002     4.8261609077453613     
   3.6600000000000008E-002     4.2359738349914551     
   3.6900000000000002E-002     3.6178920269012451     
   3.7199999999999997E-002     2.9928443431854248     
   3.7500000000000006E-002     2.3753640651702881     
   3.7800000000000000E-002     1.7776588201522827     
   3.8100000000000009E-002     1.2151029109954834     
   3.8400000000000004E-002    0.69710659980773926     
   3.8699999999999998E-002    0.23511040210723877     
   3.9000000000000007E-002   -0.16010792553424835     
   3.9300000000000002E-002   -0.47885018587112427     
   3.9600000000000003E-002   -0.71001678705215454     
   3.9900000000000005E-002   -0.84806668758392334     
   4.0200000000000000E-002   -0.88660550117492676     
   4.0500000000000001E-002   -0.82471460103988647     
   4.0800000000000003E-002   -0.67136961221694946     
   4.1100000000000005E-002   -0.43684819340705872     
   4.1399999999999999E-002   -0.14163100719451904     
   4.1700000000000008E-002    0.18815228343009949     
   4.2000000000000003E-002    0.52346318960189819     
   4.2299999999999997E-002    0.83248424530029297     
   4.2600000000000006E-002     1.0890511274337769     
   4.2900000000000001E-002     1.2689677476882935     
   4.3200000000000002E-002     1.3575662374496460     
   4.3500000000000004E-002     1.3519990444183350     
   4.3799999999999999E-002     1.2579716444015503     
   4.4100000000000000E-002     1.0912538766860962     
   4.4400000000000002E-002    0.87539416551589966     
   4.4700000000000004E-002    0.63878184556961060     
   4.4999999999999998E-002    0.40942695736885071     
   4.5300000000000000E-002    0.21175463497638702     
   4.5600000000000002E-002     6.6231206059455872E-002
   4.5899999999999996E-002    -1.7580557614564896E-002
   4.6200000000000005E-002    -3.8257550448179245E-002
   4.6500000000000000E-002    -2.5316851679235697E-003
   4.6799999999999994E-002     7.5543299317359924E-002
   4.7100000000000003E-002    0.17608933150768280     
   4.7399999999999998E-002    0.27591773867607117     
   4.7700000000000006E-002    0.35627990961074829     
   4.8000000000000001E-002    0.39711511135101318     
   4.8300000000000010E-002    0.38243535161018372     
   4.8600000000000004E-002    0.30562284588813782     
   4.8899999999999999E-002    0.16107606887817383     
   4.9200000000000008E-002    -4.9799248576164246E-002
   4.9500000000000002E-002   -0.32014012336730957     
   4.9800000000000011E-002   -0.64099115133285522     
   5.0100000000000006E-002   -0.99809849262237549     
   5.0400000000000000E-002    -1.3774266242980957     
   5.0700000000000009E-002    -1.7597100734710693     
   5.1000000000000004E-002    -2.1254358291625977     
   5.1299999999999998E-002    -2.4568486213684082     
   5.1600000000000007E-002    -2.7323579788208008     
   5.1900000000000002E-002    -2.9340872764587402     
   5.2200000000000010E-002    -3.0486352443695068     
   5.2500000000000005E-002    -3.0636010169982910     
   5.2800000000000000E-002    -2.9735183715820312     
   5.3099999999999994E-002    -2.7800655364990234     
   5.3400000000000003E-002    -2.4922473430633545     
   5.3699999999999998E-002    -2.1232502460479736     
   5.4000000000000006E-002    -1.6926920413970947     
   5.4300000000000001E-002    -1.2251758575439453     
   5.4599999999999996E-002   -0.74427688121795654     
   5.4900000000000004E-002   -0.27294456958770752     
   5.5199999999999999E-002    0.16803680360317230     
   5.5499999999999994E-002    0.56192243099212646     
   5.5800000000000002E-002    0.89997553825378418     
   5.6099999999999997E-002     1.1782356500625610     
   5.6400000000000006E-002     1.3961175680160522     
   5.6700000000000000E-002     1.5589864253997803     
   5.6999999999999995E-002     1.6728188991546631     
   5.7300000000000004E-002     1.7436367273330688     
   5.7599999999999998E-002     1.7782881259918213     
   5.7900000000000007E-002     1.7783489227294922     
   5.8200000000000002E-002     1.7457270622253418     
   5.8499999999999996E-002     1.6799670457839966     
   5.8800000000000005E-002     1.5791146755218506     
   5.9100000000000000E-002     1.4428715705871582     
   5.9400000000000008E-002     1.2715327739715576     
   5.9700000000000003E-002     1.0702993869781494     
   6.0000000000000012E-002    0.84780502319335938     
   6.0300000000000006E-002    0.61454713344573975     
   6.0600000000000001E-002    0.38792622089385986     
   6.0900000000000010E-002    0.18481436371803284     
   6.1200000000000004E-002     2.0293101668357849E-002
   6.1500000000000013E-002    -8.8900126516819000E-002
   6.1800000000000008E-002   -0.13126291334629059     
   6.2100000000000002E-002   -0.10264462977647781     
   6.2399999999999997E-002    -2.8861188329756260E-003
   6.2700000000000006E-002    0.16056112945079803     
   6.3000000000000000E-002    0.37502613663673401     
   6.3300000000000009E-002    0.62233185768127441     
   6.3600000000000004E-002    0.88174545764923096     
   6.3899999999999998E-002     1.1340895891189575     
   6.4199999999999993E-002     1.3585178852081299     
   6.4500000000000002E-002     1.5372695922851562     
   6.4800000000000010E-002     1.6606171131134033     
   6.5100000000000005E-002     1.7196958065032959     
   6.5400000000000000E-002     1.7112971544265747     
   6.5700000000000008E-002     1.6392403841018677     
   6.5999999999999989E-002     1.5065677165985107     
   6.6299999999999998E-002     1.3196524381637573     
   6.6600000000000006E-002     1.0861268043518066     
   6.6900000000000001E-002    0.81224864721298218     
   6.7199999999999996E-002    0.50275355577468872     
   6.7500000000000004E-002    0.16001972556114197     
   6.7800000000000013E-002   -0.21362729370594025     
   6.8099999999999994E-002   -0.61527043581008911     
   6.8400000000000002E-002    -1.0444787740707397     
   6.8700000000000011E-002    -1.4965490102767944     
   6.8999999999999992E-002    -1.9622061252593994     
   6.9300000000000000E-002    -2.4311354160308838     
   6.9600000000000009E-002    -2.8867866992950439     
   6.9900000000000004E-002    -3.3059327602386475     
   7.0199999999999999E-002    -3.6655697822570801     
   7.0500000000000007E-002    -3.9384393692016602     
   7.0800000000000016E-002    -4.0965766906738281     
   7.1099999999999997E-002    -4.1169476509094238     
   7.1400000000000005E-002    -3.9803528785705566     
   7.1700000000000000E-002    -3.6777641773223877     
   7.1999999999999995E-002    -3.2078952789306641     
   7.2300000000000003E-002    -2.5819439888000488     
   7.2600000000000012E-002    -1.8262841701507568     
   7.2900000000000006E-002   -0.97325336933135986     
   7.3200000000000001E-002    -6.6404566168785095E-002
   7.3499999999999996E-002    0.84169501066207886     
   7.3800000000000004E-002     1.7017343044281006     
   7.4099999999999999E-002     2.4637527465820312     
   7.4400000000000008E-002     3.0844626426696777     
   7.4700000000000003E-002     3.5324118137359619     
   7.5000000000000011E-002     3.7872393131256104     
   7.5299999999999992E-002     3.8443982601165771     
   7.5600000000000001E-002     3.7123568058013916     
   7.5900000000000009E-002     3.4119627475738525     
   7.6200000000000004E-002     2.9760458469390869     
   7.6499999999999999E-002     2.4416158199310303     
   7.6800000000000007E-002     1.8478612899780273     
   7.7099999999999988E-002     1.2347575426101685     
   7.7399999999999997E-002    0.63792777061462402     
   7.7700000000000005E-002     8.5448391735553741E-002
   7.8000000000000014E-002   -0.39972129464149475     
   7.8299999999999995E-002   -0.80378234386444092     
   7.8600000000000003E-002    -1.1179708242416382     
   7.8900000000000012E-002    -1.3377456665039062     
   7.9199999999999993E-002    -1.4662578105926514     
   7.9500000000000001E-002    -1.5052464008331299     
   7.9800000000000010E-002    -1.4592825174331665     
   8.0100000000000018E-002    -1.3364222049713135     
   8.0399999999999999E-002    -1.1423460245132446     
   8.0700000000000008E-002   -0.88836151361465454     
   8.1000000000000003E-002   -0.58656769990921021     
   8.1299999999999997E-002   -0.24950435757637024     
   8.1600000000000006E-002    0.10398502647876740     
   8.1900000000000014E-002    0.45711925625801086     
   8.2199999999999995E-002    0.78963679075241089     
   8.2500000000000004E-002     1.0826241970062256     
   8.2799999999999999E-002     1.3203837871551514     
   8.3100000000000007E-002     1.4885474443435669     
   8.3400000000000002E-002     1.5790405273437500     
   8.3700000000000011E-002     1.5893300771713257     
   8.4000000000000005E-002     1.5200171470642090     
   8.4300000000000000E-002     1.3793483972549438     
   8.4599999999999995E-002     1.1779372692108154     
   8.4900000000000003E-002    0.92774987220764160     
   8.5199999999999998E-002    0.64341908693313599     
   8.5500000000000007E-002    0.33983820676803589     
   8.5800000000000001E-002     2.8277156874537468E-002
   8.6100000000000010E-002   -0.28037104010581970     
   8.6399999999999991E-002   -0.57661288976669312     
   8.6699999999999999E-002   -0.85483276844024658     
   8.7000000000000008E-002    -1.1087819337844849     
   8.7300000000000003E-002    -1.3351032733917236     
   8.7599999999999997E-002    -1.5300067663192749     
   8.7900000000000006E-002    -1.6891584396362305     
   8.8200000000000014E-002    -1.8114870786666870     
   8.8499999999999995E-002    -1.8930368423461914     
   8.8800000000000004E-002    -1.9311853647232056     
   8.9100000000000013E-002    -1.9271516799926758     
   8.9399999999999993E-002    -1.8784066438674927     
   8.9700000000000002E-002    -1.7868322134017944     
   9.0000000000000011E-002    -1.6549736261367798     
   9.0299999999999991E-002    -1.4850701093673706     
   9.0600000000000000E-002    -1.2812347412109375     
   9.0900000000000009E-002    -1.0461864471435547     
   9.1200000000000017E-002   -0.78444731235504150     
   9.1499999999999998E-002   -0.50122869014739990     
   9.1800000000000007E-002   -0.19860449433326721     
   9.2100000000000001E-002    0.11647622287273407     
   9.2399999999999996E-002    0.43704333901405334     
   9.2700000000000005E-002    0.75709182024002075     
   9.3000000000000013E-002     1.0661096572875977     
   9.3300000000000008E-002     1.3520524501800537     
   9.3600000000000003E-002     1.6041220426559448     
   9.3899999999999997E-002     1.8103882074356079     
   9.4200000000000006E-002     1.9586719274520874     
   9.4500000000000001E-002     2.0400700569152832     
   9.4800000000000009E-002     2.0497260093688965     
   9.5100000000000004E-002     1.9863133430480957     
   9.5399999999999999E-002     1.8517889976501465     
   9.5699999999999993E-002     1.6552690267562866     
   9.6000000000000002E-002     1.4098900556564331     
   9.6300000000000011E-002     1.1287485361099243     
   9.6600000000000005E-002    0.82955855131149292     
   9.6900000000000000E-002    0.53142172098159790     
   9.7200000000000009E-002    0.24725805222988129     
   9.7499999999999989E-002    -8.9352075010538101E-003
   9.7799999999999998E-002   -0.22666746377944946     
   9.8100000000000007E-002   -0.40120214223861694     
   9.8400000000000015E-002   -0.53190869092941284     
   9.8699999999999996E-002   -0.62017184495925903     
   9.9000000000000005E-002   -0.67059737443923950     
   9.9300000000000013E-002   -0.69058644771575928     
   9.9599999999999994E-002   -0.68880808353424072     
   9.9900000000000003E-002   -0.67103916406631470     
  0.10020000000000001        -0.64406740665435791     
  0.10049999999999999        -0.61531919240951538     
  0.10080000000000000        -0.58717620372772217     
  0.10110000000000001        -0.56032121181488037     
  0.10140000000000000        -0.53697288036346436     
  0.10170000000000000        -0.51420378684997559     
  0.10200000000000001        -0.48906284570693970     
  0.10230000000000002        -0.45879086852073669     
  0.10260000000000000        -0.41833639144897461     
  0.10290000000000001        -0.36562964320182800     
  0.10320000000000000        -0.29621711373329163     
  0.10350000000000001        -0.20938424766063690     
  0.10380000000000000        -0.10743796825408936     
  0.10410000000000001          8.7986811995506287E-003
  0.10440000000000001         0.13194251060485840     
  0.10470000000000000         0.25327855348587036     
  0.10500000000000000         0.36445555090904236     
  0.10530000000000000         0.45290648937225342     
  0.10560000000000000         0.50857037305831909     
  0.10590000000000001         0.52148568630218506     
  0.10620000000000000         0.48563769459724426     
  0.10650000000000001         0.39867258071899414     
  0.10679999999999999         0.26077207922935486     
  0.10710000000000000          7.9797081649303436E-002
  0.10740000000000001        -0.13250355422496796     
  0.10770000000000000        -0.36286893486976624     
  0.10800000000000000        -0.59381479024887085     
  0.10830000000000001        -0.80688124895095825     
  0.10859999999999999        -0.98538821935653687     
  0.10890000000000000         -1.1152467727661133     
  0.10920000000000001         -1.1847785711288452     
  0.10950000000000001         -1.1882758140563965     
  0.10979999999999999         -1.1241605281829834     
  0.11009999999999999        -0.99547731876373291     
  0.11040000000000001        -0.81074678897857666     
  0.11070000000000001        -0.57984709739685059     
  0.11100000000000000        -0.31692531704902649     
  0.11130000000000000         -3.6142524331808090E-002
  0.11160000000000002         0.24845486879348755     
  0.11190000000000001         0.52121567726135254     
  0.11220000000000001         0.77135199308395386     
  0.11250000000000000         0.98829251527786255     
  0.11280000000000000          1.1616939306259155     
  0.11309999999999999          1.2883514165878296     
  0.11340000000000001          1.3638266324996948     
  0.11369999999999998          1.3874918222427368     
  0.11400000000000000          1.3614113330841064     
  0.11430000000000000          1.2892280817031860     
  0.11460000000000002          1.1784787178039551     
  0.11489999999999999          1.0349549055099487     
  0.11520000000000001         0.86734265089035034     
  0.11550000000000001         0.68622851371765137     
  0.11580000000000000         0.49777519702911377     
  0.11609999999999999         0.30995869636535645     
  0.11640000000000002         0.12919096648693085     
  0.11670000000000001         -4.0385272353887558E-002
  0.11700000000000001        -0.19706131517887115     
  0.11730000000000000        -0.33956742286682129     
  0.11760000000000000        -0.46645313501358032     
  0.11789999999999999        -0.57964813709259033     
  0.11820000000000001        -0.67813283205032349     
  0.11850000000000001        -0.76044541597366333     
  0.11880000000000000        -0.82473534345626831     
  0.11910000000000000        -0.86796081066131592     
  0.11940000000000002        -0.88603764772415161     
  0.11970000000000001        -0.87291288375854492     
  0.12000000000000001        -0.82665324211120605     
  0.12030000000000000        -0.74501323699951172     
  0.12060000000000000        -0.62517881393432617     
  0.12089999999999999        -0.47303512692451477     
  0.12119999999999999        -0.29234650731086731     
  0.12150000000000001         -9.1417774558067322E-002
  0.12180000000000001         0.11800093948841095     
  0.12210000000000000         0.32432380318641663     
  0.12239999999999999         0.51348972320556641     
  0.12270000000000002         0.67511034011840820     
  0.12300000000000001         0.79776662588119507     
  0.12330000000000001         0.87138175964355469     
  0.12360000000000000         0.89481562376022339     
  0.12390000000000000         0.86434763669967651     
  0.12419999999999999         0.78083139657974243     
  0.12450000000000001         0.65087628364562988     
  0.12480000000000001         0.48135620355606079     
  0.12509999999999999         0.28106668591499329     
  0.12540000000000001          6.0489960014820099E-002
  0.12570000000000003        -0.16797141730785370     
  0.12600000000000000        -0.39364448189735413     
  0.12630000000000002        -0.60686600208282471     
  0.12659999999999999        -0.79633671045303345     
  0.12690000000000001        -0.95353275537490845     
  0.12719999999999998         -1.0734906196594238     
  0.12750000000000000         -1.1514612436294556     
  0.12780000000000002         -1.1848000288009644     
  0.12809999999999999         -1.1751841306686401     
  0.12840000000000001         -1.1267220973968506     
  0.12869999999999998         -1.0426943302154541     
  0.12900000000000000        -0.93137401342391968     
  0.12930000000000003        -0.80038392543792725     
  0.12959999999999999        -0.65643596649169922     
  0.12990000000000002        -0.50703418254852295     
  0.13019999999999998        -0.35689112544059753     
  0.13050000000000000        -0.20867700874805450     
  0.13080000000000003         -6.3585571944713593E-002
  0.13109999999999999          7.9947635531425476E-002
  0.13140000000000002         0.22264692187309265     
  0.13169999999999998         0.36915409564971924     
  0.13200000000000001         0.52130651473999023     
  0.13229999999999997         0.67824023962020874     
  0.13260000000000000         0.84008508920669556     
  0.13290000000000002          1.0021779537200928     
  0.13319999999999999          1.1575957536697388     
  0.13350000000000001          1.2977193593978882     
  0.13380000000000003          1.4124842882156372     
  0.13410000000000000          1.4925042390823364     
  0.13440000000000002          1.5288050174713135     
  0.13469999999999999          1.5150480270385742     
  0.13500000000000001          1.4488202333450317     
  0.13529999999999998          1.3299452066421509     
  0.13560000000000000          1.1638542413711548     
  0.13590000000000002         0.95897012948989868     
  0.13619999999999999         0.72640579938888550     
  0.13650000000000001         0.47764474153518677     
  0.13680000000000003         0.22812891006469727     
  0.13710000000000000         -9.7073921933770180E-003
  0.13740000000000002        -0.22481328248977661     
  0.13769999999999999        -0.40615087747573853     
  0.13800000000000001        -0.54707670211791992     
  0.13829999999999998        -0.64356952905654907     
  0.13860000000000000        -0.69359403848648071     
  0.13890000000000002        -0.69919693470001221     
  0.13919999999999999        -0.66356432437896729     
  0.13950000000000001        -0.59430050849914551     
  0.13979999999999998        -0.49970185756683350     
  0.14010000000000000        -0.38889506459236145     
  0.14040000000000002        -0.27477067708969116     
  0.14069999999999999        -0.16830524802207947     
  0.14100000000000001         -8.0599695444107056E-002
  0.14130000000000004         -2.2314524278044701E-002
  0.14160000000000000         -1.7420214135199785E-003
  0.14189999999999997         -2.4193385615944862E-002
  0.14219999999999999         -9.1535106301307678E-002
  0.14250000000000002        -0.20241926610469818     
  0.14279999999999998        -0.35285919904708862     
  0.14310000000000000        -0.53321957588195801     
  0.14339999999999997        -0.73308962583541870     
  0.14369999999999999        -0.94142252206802368     
  0.14400000000000002         -1.1449803113937378     
  0.14429999999999998         -1.3314244747161865     
  0.14460000000000001         -1.4914717674255371     
  0.14490000000000003         -1.6168144941329956     
  0.14520000000000000         -1.7023801803588867     
  0.14550000000000002         -1.7450981140136719     
  0.14579999999999999         -1.7449790239334106     
  0.14610000000000001         -1.7032877206802368     
  0.14640000000000003         -1.6219851970672607     
  0.14670000000000000         -1.5037912130355835     
  0.14699999999999996         -1.3517633676528931     
  0.14729999999999999         -1.1671713590621948     
  0.14760000000000001        -0.95125055313110352     
  0.14789999999999998        -0.70612710714340210     
  0.14820000000000000        -0.43173772096633911     