  -1.4999999999999999E-002     0.0000000000000000     
  -1.4700000000000000E-002    -1.7392738886043281E-027
  -1.4400000000000000E-002    -1.9482800671629975E-022
  -1.4100000000000000E-002     2.6734748195123615E-019
  -1.3800000000000000E-002     3.3257684294946748E-017
  -1.3500000000000000E-002     1.7584086799021429E-016
  -1.3200000000000000E-002    -5.6604208138974537E-015
  -1.2899999999999998E-002    -6.2279121934011401E-015
  -1.2600000000000000E-002     1.8089344267715252E-013
  -1.2299999999999998E-002     1.9604889806683744E-014
  -1.2000000000000000E-002    -1.7952677335320544E-012
  -1.1699999999999999E-002    -1.4578541031323490E-012
  -1.1399999999999999E-002     8.7088005302383019E-012
  -1.1099999999999999E-002     2.8226622243561254E-011
  -1.0799999999999999E-002    -3.5060998306368209E-011
  -1.0499999999999999E-002    -2.1699527500797973E-010
  -1.0199999999999999E-002     2.3900090553185552E-010
  -9.8999999999999991E-003     6.7451429333852687E-010
  -9.5999999999999992E-003    -1.1912572876512314E-009
  -9.2999999999999992E-003     2.2549530911901552E-010
  -8.9999999999999993E-003     1.9135486817167267E-009
  -8.6999999999999994E-003    -6.1062491035018875E-009
  -8.3999999999999995E-003     3.9109171245403968E-009
  -8.0999999999999996E-003     1.1900783563548442E-008
  -7.7999999999999988E-003    -1.6784548286693127E-008
  -7.4999999999999997E-003    -1.3585011311852490E-009
  -7.1999999999999998E-003     1.8041020585894803E-008
  -6.8999999999999981E-003    -2.0530732988928179E-008
  -6.5999999999999982E-003    -1.3650020322086194E-008
  -6.3000000000000000E-003     3.3006427351350866E-008
  -6.0000000000000001E-003     4.6154432211324195E-008
  -5.6999999999999985E-003    -4.6973384159533623E-008
  -5.3999999999999986E-003    -6.7296744413119271E-008
  -5.1000000000000004E-003     3.4927662501841820E-008
  -4.7999999999999987E-003    -2.0105084510450582E-008
  -4.5000000000000005E-003     8.9870220895090580E-008
  -4.1999999999999989E-003     1.1288578710016209E-007
  -3.8999999999999990E-003    -3.7021581907791741E-007
  -3.5999999999999990E-003    -8.5534306118432148E-008
  -3.2999999999999991E-003     1.1137001782813378E-006
  -2.9999999999999992E-003     3.2497287312228829E-007
  -2.6999999999999993E-003    -3.2682646508485025E-006
  -2.3999999999999994E-003    -2.4239833363569250E-006
  -2.0999999999999977E-003     7.4108557410618062E-006
  -1.7999999999999995E-003     1.0354411339693524E-005
  -1.4999999999999979E-003    -1.1111674004027855E-005
  -1.1999999999999997E-003    -3.4125344489807695E-005
  -8.9999999999999976E-004     1.7483806052885891E-006
  -5.9999999999999810E-004     1.3938595702776846E-004
  -2.9999999999999992E-004     3.5167640421717990E-004
   0.0000000000000000          5.6519633638866108E-004
   3.0000000000000165E-004     7.8465631186893509E-004
   5.9999999999999984E-004     1.1576955966001723E-003
   9.0000000000000149E-004     1.8535194371527147E-003
   1.2000000000000031E-003     2.9536597133778195E-003
   1.5000000000000013E-003     4.5447588272402445E-003
   1.8000000000000030E-003     6.8569788859543374E-003
   2.1000000000000012E-003     1.0247916142354638E-002
   2.3999999999999994E-003     1.5155595271492545E-002
   2.7000000000000010E-003     2.2165908864107298E-002
   2.9999999999999992E-003     3.2027317440444680E-002
   3.3000000000000008E-003     4.5583076253252308E-002
   3.6000000000000025E-003     6.3827056355023393E-002
   3.9000000000000007E-003     8.8004590176315345E-002
   4.2000000000000023E-003    0.11954189740056531     
   4.5000000000000005E-003    0.15987335478364706     
   4.7999999999999987E-003    0.21035865863428072     
   5.1000000000000004E-003    0.27218874284933481     
   5.4000000000000020E-003    0.34608716275869877     
   5.7000000000000037E-003    0.43197460519030528     
   5.9999999999999984E-003    0.52870126653628979     
   6.3000000000000000E-003    0.63364768124866977     
   6.6000000000000017E-003    0.74223575108056394     
   6.9000000000000034E-003    0.84764131856037039     
   7.2000000000000015E-003    0.94062385409586469     
   7.5000000000000032E-003     1.0092894557975356     
   7.8000000000000014E-003     1.0390592601448354     
   8.0999999999999996E-003     1.0131400169235505     
   8.4000000000000012E-003    0.91343630217482286     
   8.7000000000000029E-003    0.72167243582406826     
   9.0000000000000011E-003    0.42095440411914353     
   9.2999999999999992E-003    -2.4369799358829880E-003
   9.6000000000000009E-003   -0.55728779739451895     
   9.8999999999999991E-003    -1.2453163164682159     
   1.0200000000000001E-002    -2.0588082203690856     
   1.0500000000000002E-002    -2.9792760212307563     
   1.0800000000000004E-002    -3.9768503414864185     
   1.1099999999999999E-002    -5.0101209774040711     
   1.1400000000000000E-002    -6.0271331616568773     
   1.1700000000000002E-002    -6.9677528754201745     
   1.2000000000000004E-002    -7.7668932966702755     
   1.2300000000000002E-002    -8.3583172735989422     
   1.2600000000000000E-002    -8.6794492357802824     
   1.2900000000000002E-002    -8.6768997121759810     
   1.3200000000000000E-002    -8.3104435487843773     
   1.3500000000000002E-002    -7.5568146507472704     
   1.3800000000000003E-002    -6.4132970134459413     
   1.4100000000000001E-002    -4.8984103417634230     
   1.4400000000000000E-002    -3.0512057674722399     
   1.4700000000000001E-002   -0.92944468215705678     
   1.4999999999999999E-002     1.3941529558200898     
   1.5300000000000001E-002     3.8361439676049116     
   1.5600000000000003E-002     6.3087018172842626     
   1.5899999999999997E-002     8.7253532547390407     
   1.6199999999999999E-002     11.004422481870364     
   1.6500000000000001E-002     13.074329678814053     
   1.6800000000000002E-002     14.876636777746739     
   1.7100000000000004E-002     16.365761083638859     
   1.7400000000000006E-002     17.509288899547641     
   1.7700000000000000E-002     18.286028614342172     
   1.8000000000000002E-002     18.682710732399130     
   1.8300000000000004E-002     18.692129559566524     
   1.8600000000000005E-002     18.309435613944402     
   1.8900000000000000E-002     17.529583949060907     
   1.9200000000000002E-002     16.347296608934869     
   1.9500000000000003E-002     14.757278944464872     
   1.9799999999999998E-002     12.756615971435451     
   2.0100000000000000E-002     10.348648219474796     
   2.0400000000000001E-002     7.5463487544612917     
   2.0700000000000003E-002     4.3788742460952506     
   2.0999999999999998E-002    0.89524387654726212     
   2.1299999999999999E-002    -2.8330011584301928     
   2.1600000000000001E-002    -6.7090602178277265     
   2.1900000000000003E-002    -10.612597902582451     
   2.2200000000000004E-002    -14.404206243531988     
   2.2500000000000006E-002    -17.931643228846269     
   2.2800000000000001E-002    -21.038471545926484     
   2.3100000000000002E-002    -23.575373908211986     
   2.3400000000000004E-002    -25.412127789031160     
   2.3699999999999999E-002    -26.449240645433179     
   2.4000000000000000E-002    -26.627190101622091     
   2.4300000000000002E-002    -25.933735578191431     
   2.4599999999999997E-002    -24.409134868096430     
   2.4900000000000005E-002    -22.145831815832935     
   2.5200000000000000E-002    -19.283465554250256     
   2.5499999999999995E-002    -16.000302955498910     
   2.5800000000000003E-002    -12.501622747515682     
   2.6099999999999998E-002    -9.0048895239281705     
   2.6400000000000007E-002    -5.7216347504749763     
   2.6700000000000002E-002    -2.8403970740710065     
   2.6999999999999996E-002   -0.51114021838584378     
   2.7300000000000005E-002     1.1691774686992780     
   2.7600000000000000E-002     2.1677231803452699     
   2.7900000000000008E-002     2.5202579874874473     
   2.8200000000000003E-002     2.3318706251192722     
   2.8499999999999998E-002     1.7712634033788426     
   2.8800000000000006E-002     1.0560732442521257     
   2.9100000000000001E-002    0.43691063145821474     
   2.9400000000000003E-002    0.17571842888380473     
   2.9700000000000004E-002    0.51714837744819420     
   3.0000000000000006E-002     1.6643103437901203     
   3.0300000000000001E-002     3.7541418785305680     
   3.0600000000000002E-002     6.8353169216306569     
   3.0900000000000004E-002     10.855541151021200     
   3.1199999999999999E-002     15.655349018660303     
   3.1500000000000007E-002     20.972589993552361     
   3.1800000000000002E-002     26.457645700953350     
   3.2099999999999997E-002     31.696594635210616     
   3.2400000000000005E-002     36.245669994379469     
   3.2700000000000000E-002     39.669276498838002     
   3.3000000000000002E-002     41.576514309655067     
   3.3300000000000003E-002     41.661393410359665     
   3.3599999999999998E-002     39.734983654954817     
   3.3900000000000000E-002     35.745070655036557     
   3.4200000000000001E-002     29.789306777305796     
   3.4500000000000003E-002     22.111292397027853     
   3.4799999999999998E-002     13.085652585880979     
   3.5099999999999999E-002     3.1903196712841861     
   3.5400000000000001E-002    -7.0315636004033877     
   3.5699999999999996E-002    -17.009328190874726     
   3.6000000000000004E-002    -26.191390803960758     
   3.6299999999999999E-002    -34.088988181531931     
   3.6600000000000008E-002    -40.306414789712107     
   3.6900000000000002E-002    -44.566733913564804     
   3.7199999999999997E-002    -46.730756433676866     
   3.7500000000000006E-002    -46.797322226234940     
   3.7800000000000000E-002    -44.893123852727740     
   3.8100000000000009E-002    -41.255847891240137     
   3.8400000000000004E-002    -36.209433803544471     
   3.8699999999999998E-002    -30.132817113517717     
   3.9000000000000007E-002    -23.426895398169108     
   3.9300000000000002E-002    -16.486129380399575     
   3.9600000000000003E-002    -9.6728042738330515     
   3.9900000000000005E-002    -3.2934741749967174     
   4.0200000000000000E-002     2.4111840456848768     
   4.0500000000000001E-002     7.2726167750612376     
   4.0800000000000003E-002     11.197035644249013     
   4.1100000000000005E-002     14.157224468110371     
   4.1399999999999999E-002     16.182597509442019     
   4.1700000000000008E-002     17.347210490247335     
   4.2000000000000003E-002     17.755677894560165     
   4.2299999999999997E-002     17.530668249209839     
   4.2600000000000006E-002     16.801937931680072     
   4.2900000000000001E-002     15.696030325787490     
   4.3200000000000002E-002     14.330195365675252     
   4.3500000000000004E-002     12.809085690407642     
   4.3799999999999999E-002     11.221811083587511     
   4.4100000000000000E-002     9.6424319974090622     
   4.4400000000000002E-002     8.1297645376439220     
   4.4700000000000004E-002     6.7286172287306556     
   4.4999999999999998E-002     5.4721949650829345     
   4.5300000000000000E-002     4.3812693490460219     
   4.5600000000000002E-002     3.4667426740792564     
   4.5899999999999996E-002     2.7302672511405888     
   4.6200000000000005E-002     2.1628365800888218     
   4.6500000000000000E-002     1.7478223179067811     
   4.6799999999999994E-002     1.4614502717869868     
   4.7100000000000003E-002     1.2732935078734045     
   4.7399999999999998E-002     1.1498809390573399     
   4.7700000000000006E-002     1.0561396195156618     
   4.8000000000000001E-002    0.95769390621529027     
   4.8300000000000010E-002    0.82332017303231630     
   4.8600000000000004E-002    0.62812150398898225     
   4.8899999999999999E-002    0.35450848839045257     
   4.9200000000000008E-002    -6.8540669689515221E-003
   4.9500000000000002E-002   -0.45692516660347771     
   4.9800000000000011E-002   -0.98722195756882059     
   5.0100000000000006E-002    -1.5809300919189155     
   5.0400000000000000E-002    -2.2165125479517229     
   5.0700000000000009E-002    -2.8665282941246772     
   5.1000000000000004E-002    -3.5008428569109498     
   5.1299999999999998E-002    -4.0895121334272915     
   5.1600000000000007E-002    -4.6029883850391116     
   5.1900000000000002E-002    -5.0153289845658549     
   5.2200000000000010E-002    -5.3051903547982704     
   5.2500000000000005E-002    -5.4578508042797296     
   5.2800000000000000E-002    -5.4658989172894792     
   5.3099999999999994E-002    -5.3280009613252162     
   5.3400000000000003E-002    -5.0526379384087647     
   5.3699999999999998E-002    -4.6555639729508584     
   5.4000000000000006E-002    -4.1570499078832768     
   5.4300000000000001E-002    -3.5831856304853460     
   5.4599999999999996E-002    -2.9637235195080223     
   5.4900000000000004E-002    -2.3289768665065509     
   5.5199999999999999E-002    -1.7067021381803400     
   5.5499999999999994E-002    -1.1216969260186609     
   5.5800000000000002E-002   -0.59469670692335441     
   5.6099999999999997E-002   -0.13857461554724582     
   5.6400000000000006E-002    0.24081778875939186     
   5.6700000000000000E-002    0.54267354810004953     
   5.6999999999999995E-002    0.77228391167596155     
   5.7300000000000004E-002    0.94016412120713966     
   5.7599999999999998E-002     1.0583490665795843     
   5.7900000000000007E-002     1.1391048813009199     
   5.8200000000000002E-002     1.1945172301697156     
   5.8499999999999996E-002     1.2332705421364238     
   5.8800000000000005E-002     1.2599848942519500     
   5.9100000000000000E-002     1.2773436318625500     
   5.9400000000000008E-002     1.2852229980932037     
   5.9700000000000003E-002     1.2811853866741885     
   6.0000000000000012E-002     1.2609316366582348     
   6.0300000000000006E-002     1.2225546988009341     
   6.0600000000000001E-002     1.1669926582411918     
   6.0900000000000010E-002     1.0950962435636029     
   6.1200000000000004E-002     1.0123927938588864     
   6.1500000000000013E-002    0.92837407059932886     
   6.1800000000000008E-002    0.85319855745391848     
   6.2100000000000002E-002    0.79822586633695281     
   6.2399999999999997E-002    0.77369264638367241     
   6.2700000000000006E-002    0.79013851325086648     
   6.3000000000000000E-002    0.85344639692486624     
   6.3300000000000009E-002    0.96435071150381191     
   6.3600000000000004E-002     1.1216067608982030     
   6.3899999999999998E-002     1.3177805156004894     
   6.4199999999999993E-002     1.5407938259720524     
   6.4500000000000002E-002     1.7756864032713935     
   6.4800000000000010E-002     2.0050179800784207     
   6.5100000000000005E-002     2.2103794490522120     
   6.5400000000000000E-002     2.3724571697435977     
   6.5700000000000008E-002     2.4750156179600822     
   6.5999999999999989E-002     2.5038565069577032     
   6.6299999999999998E-002     2.4474764331810377     
   6.6600000000000006E-002     2.2997039232942598     
   6.6900000000000001E-002     2.0586252762825978     
   6.7199999999999996E-002     1.7281251936766679     
   6.7500000000000004E-002     1.3160144178396820     
   6.7800000000000013E-002    0.83534892246719750     
   6.8099999999999994E-002    0.30312433303931297     
   6.8400000000000002E-002   -0.26133796684557353     
   6.8700000000000011E-002   -0.83509878913179136     
   6.8999999999999992E-002    -1.3958348508592699     
   6.9300000000000000E-002    -1.9209721495744247     
   6.9600000000000009E-002    -2.3891345791146463     
   6.9900000000000004E-002    -2.7837296469380419     
   7.0199999999999999E-002    -3.0905779539530727     
   7.0500000000000007E-002    -3.3016980059171743     
   7.0800000000000016E-002    -3.4141267503622146     
   7.1099999999999997E-002    -3.4293325003158941     
   7.1400000000000005E-002    -3.3555447310829152     
   7.1700000000000000E-002    -3.2028786884638833     
   7.1999999999999995E-002    -2.9849278915729371     
   7.2300000000000003E-002    -2.7163432678245556     
   7.2600000000000012E-002    -2.4097085448885167     
   7.2900000000000006E-002    -2.0774980396085994     
   7.3200000000000001E-002    -1.7273975071301422     
   7.3499999999999996E-002    -1.3639609083494264     
   7.3800000000000004E-002   -0.98913907497547626     
   7.4099999999999999E-002   -0.60102908610613426     
   7.4400000000000008E-002   -0.19755568345467012     
   7.4700000000000003E-002    0.22306219437711139     
   7.5000000000000011E-002    0.65945630275670553     
   7.5299999999999992E-002     1.1057829524740228     
   7.5600000000000001E-002     1.5512033764103208     
   7.5900000000000009E-002     1.9772901959361917     
   7.6200000000000004E-002     2.3606373953157060     
   7.6499999999999999E-002     2.6734560132737784     
   7.6800000000000007E-002     2.8860094542496881     
   7.7099999999999988E-002     2.9710098204804893     
   7.7399999999999997E-002     2.9054874456843294     
   7.7700000000000005E-002     2.6766929693710182     
   7.8000000000000014E-002     2.2832108610653705     
   7.8299999999999995E-002     1.7384346821539367     
   7.8600000000000003E-002     1.0707800604209723     
   7.8900000000000012E-002    0.32160053952055634     
   7.9199999999999993E-002   -0.45474073036910079     
   7.9500000000000001E-002    -1.1986221357019495     
   7.9800000000000010E-002    -1.8478503501824086     
   8.0100000000000018E-002    -2.3440319308228936     
   8.0399999999999999E-002    -2.6411374180751039     
   8.0700000000000008E-002    -2.7066265591206502     
   8.1000000000000003E-002    -2.5282352694218559     
   8.1299999999999997E-002    -2.1159247603215547     
   8.1600000000000006E-002    -1.5002107092114443     
   8.1900000000000014E-002   -0.73210830345945865     
   8.2199999999999995E-002    0.12462810404609925     
   8.2500000000000004E-002    0.99570981662887448     
   8.2799999999999999E-002     1.8052222582332469     
   8.3100000000000007E-002     2.4844209022430168     
   8.3400000000000002E-002     2.9746579552349424     
   8.3700000000000011E-002     3.2363902115980068     
   8.4000000000000005E-002     3.2515127626351585     
   8.4300000000000000E-002     3.0235526270085984     
   8.4599999999999995E-002     2.5777077295371384     
   8.4900000000000003E-002     1.9576565719336543     
   8.5199999999999998E-002     1.2206469014067522     
   8.5500000000000007E-002    0.43037064713747153     
   8.5800000000000001E-002   -0.34895034509997558     
   8.6100000000000010E-002    -1.0581423868768027     
   8.6399999999999991E-002    -1.6493165711308109     
   8.6699999999999999E-002    -2.0892476996918532     
   8.7000000000000008E-002    -2.3608419707682931     
   8.7300000000000003E-002    -2.4628974936232240     
   8.7599999999999997E-002    -2.4096978180683024     
   8.7900000000000006E-002    -2.2266539263691527     
   8.8200000000000014E-002    -1.9461575704138312     
   8.8499999999999995E-002    -1.6057271099846275     
   8.8800000000000004E-002    -1.2405676697499466     
   8.9100000000000013E-002   -0.88194892788822443     
   8.9399999999999993E-002   -0.55583421957416235     
   8.9700000000000002E-002   -0.27896418039533444     
   9.0000000000000011E-002    -6.0392705436622673E-002
   9.0299999999999991E-002     9.9183808498296555E-002
   9.0600000000000000E-002    0.20556435888174862     
   9.0900000000000009E-002    0.26832602274226636     
   9.1200000000000017E-002    0.30160164325621630     
   9.1499999999999998E-002    0.31929715484267185     
   9.1800000000000007E-002    0.33415108564315577     
   9.2100000000000001E-002    0.35849080596206440     
   9.2399999999999996E-002    0.39982883916637757     
   9.2700000000000005E-002    0.46210315130066526     
   9.3000000000000013E-002    0.54620824544046087     
   9.3300000000000008E-002    0.64851595085524494     
   9.3600000000000003E-002    0.76200599367004784     
   9.3899999999999997E-002    0.87701851974907186     
   9.4200000000000006E-002    0.98203526925035334     
   9.4500000000000001E-002     1.0653260870482981     
   9.4800000000000009E-002     1.1151678723101810     
   9.5100000000000004E-002     1.1212590182718145     
   9.5399999999999999E-002     1.0768511009051487     
   9.5699999999999993E-002    0.97827677268832502     
   9.6000000000000002E-002    0.82622098258576671     
   9.6300000000000011E-002    0.62672954644810552     
   9.6600000000000005E-002    0.38869296451509960     
   9.6900000000000000E-002    0.12573702494343486     
   9.7200000000000009E-002   -0.14570475449989884     
   9.7499999999999989E-002   -0.40963837965056804     
   9.7799999999999998E-002   -0.64928370845479222     
   9.8100000000000007E-002   -0.85095223066283765     
   9.8400000000000015E-002    -1.0043185712955847     
   9.8699999999999996E-002    -1.1026387586485953     
   9.9000000000000005E-002    -1.1457387630870670     
   9.9300000000000013E-002    -1.1373034120892669     
   9.9599999999999994E-002    -1.0850554852260430     
   9.9900000000000003E-002    -1.0002857598438908     
  0.10020000000000001        -0.89481780182346071     
  0.10049999999999999        -0.78060213889090946     
  0.10080000000000000        -0.66772380506796125     
  0.10110000000000001        -0.56336555045712799     
  0.10140000000000000        -0.47086989739817042     
  0.10170000000000000        -0.38958557370488478     
  0.10200000000000001        -0.31501783089872326     
  0.10230000000000002        -0.24167368126087663     
  0.10260000000000000        -0.16193404451648563     
  0.10290000000000001         -6.7672832053551346E-002
  0.10320000000000000          4.6090922267348233E-002
  0.10350000000000001         0.18174470601610171     
  0.10380000000000000         0.33867852752719330     
  0.10410000000000001         0.51146833890098087     
  0.10440000000000001         0.69200016446733414     
  0.10470000000000000         0.86783572606629988     
  0.10500000000000000          1.0255497978171277     
  0.10530000000000000          1.1521043360626209     
  0.10560000000000000          1.2333002922585976     
  0.10590000000000001          1.2589768250794435     
  0.10620000000000000          1.2223147332687176     
  0.10650000000000001          1.1195023893294689     
  0.10679999999999999         0.95292841411522744     
  0.10710000000000000         0.72931125095630378     
  0.10740000000000001         0.45893498969206625     
  0.10770000000000000         0.15682501784890590     
  0.10800000000000000        -0.16019270433619837     
  0.10830000000000001        -0.47318672201893008     
  0.10859999999999999        -0.76305361486295098     
  0.10890000000000000         -1.0122861979215294     
  0.10920000000000001         -1.2047227021543705     
  0.10950000000000001         -1.3283755805178714     
  0.10979999999999999         -1.3756361968040594     
  0.11009999999999999         -1.3423338322521232     
  0.11040000000000001         -1.2307286544458904     
  0.11070000000000001         -1.0483999777014716     
  0.11100000000000000        -0.80572190305957392     
  0.11130000000000000        -0.51859870365068517     
  0.11160000000000002        -0.20520687107168811     
  0.11190000000000001         0.11542896574677375     
  0.11220000000000001         0.42365327767020666     
  0.11250000000000000         0.70204604274175253     
  0.11280000000000000         0.93482392029167016     
  0.11309999999999999          1.1099058161621613     
  0.11340000000000001          1.2211862081474507     
  0.11369999999999998          1.2652267442776832     
  0.11400000000000000          1.2438895474703671     
  0.11430000000000000          1.1634994095010640     
  0.11460000000000002          1.0323847124534460     
  0.11489999999999999         0.86184206672184160     
  0.11520000000000001         0.66349364950355749     
  0.11550000000000001         0.44904810938184347     
  0.11580000000000000         0.22934841340439283     
  0.11609999999999999          1.2682399458068483E-002
  0.11640000000000002        -0.19368218929682079     
  0.11670000000000001        -0.38496635484173325     
  0.11700000000000001        -0.55884789272044344     
  0.11730000000000000        -0.71425970892811108     
  0.11760000000000000        -0.84979638161377480     
  0.11789999999999999        -0.96527270361882245     
  0.11820000000000001         -1.0604382348065258     
  0.11850000000000001         -1.1328608613140574     
  0.11880000000000000         -1.1805789949451864     
  0.11910000000000000         -1.2002189588691365     
  0.11940000000000002         -1.1878218846934345     
  0.11970000000000001         -1.1406515633775598     
  0.12000000000000001         -1.0545347135191960     
  0.12030000000000000        -0.92859396759313029     
  0.12060000000000000        -0.76319298712765615     
  0.12089999999999999        -0.55991625926400346     
  0.12119999999999999        -0.32549473545734209     
  0.12150000000000001         -6.6555985233940351E-002
  0.12180000000000001         0.20730516521401121     
  0.12210000000000000         0.48397924952925031     
  0.12239999999999999         0.75174959956921938     
  0.12270000000000002         0.99684129750427886     
  0.12300000000000001          1.2076524273798839     
  0.12330000000000001          1.3738448976628845     
  0.12360000000000000          1.4857997879096203     
  0.12390000000000000          1.5381289750426674     
  0.12419999999999999          1.5280625179394818     
  0.12450000000000001          1.4555970995926373     
  0.12480000000000001          1.3249966203092072     
  0.12509999999999999          1.1432322297980093     
  0.12540000000000001         0.91995396726196432     
  0.12570000000000003         0.66704951171845650     
  0.12600000000000000         0.39787373579338947     
  0.12630000000000002         0.12636761703075239     
  0.12659999999999999        -0.13410763672793591     
  0.12690000000000001        -0.37196856050311311     
  0.12719999999999998        -0.57684017636177565     
  0.12750000000000000        -0.74125220329524666     
  0.12780000000000002        -0.86260746732491000     
  0.12809999999999999        -0.93974727021338111     
  0.12840000000000001        -0.97458833778749110     
  0.12869999999999998        -0.97313231509007281     
  0.12900000000000000        -0.94165772940153758     
  0.12930000000000003        -0.88794723687074395     
  0.12959999999999999        -0.81955488009352351     
  0.12990000000000002        -0.74228185793180756     
  0.13019999999999998        -0.66084528952308830     
  0.13050000000000000        -0.57684277601342515     
  0.13080000000000003        -0.49043520325506229     
  0.13109999999999999        -0.40034865062080272     
  0.13140000000000002        -0.30198625809226165     
  0.13169999999999998        -0.19243592863813230     
  0.13200000000000001         -6.9556071102308881E-002
  0.13229999999999997          6.8668901957474326E-002
  0.13260000000000000         0.22080205047975898     
  0.13290000000000002         0.38231160864818214     
  0.13319999999999999         0.54625481242919882     
  0.13350000000000001         0.70290811361943639     
  0.13380000000000003         0.84125713336369401     
  0.13410000000000000         0.94947838701675025     
  0.13440000000000002          1.0158379696984383     
  0.13469999999999999          1.0315009720560475     
  0.13500000000000001         0.99019196240137219     
  0.13529999999999998         0.88912564269221050     
  0.13560000000000000         0.73117471564566117     
  0.13590000000000002         0.52232895849238403     
  0.13619999999999999         0.27352406886239855     
  0.13650000000000001         -5.4549349540389258E-004
  0.13680000000000003        -0.28428698330114521     
  0.13710000000000000        -0.55927269321263040     
  0.13740000000000002        -0.80837956925719112     
  0.13769999999999999         -1.0159602792121518     
  0.13800000000000001         -1.1675272308402072     
  0.13829999999999998         -1.2539476887953143     
  0.13860000000000000         -1.2692973251125892     
  0.13890000000000002         -1.2112439838141924     
  0.13919999999999999         -1.0832923366251208     
  0.13950000000000001        -0.89260882396672869     
  0.13979999999999998        -0.64991938807676419     
  0.14010000000000000        -0.36922974188519042     
  0.14040000000000002         -6.7304819120417747E-002
  0.14069999999999999         0.23823611138187317     
  0.14100000000000001         0.52962809629740804     
  0.14130000000000004         0.79027044373201605     
  0.14160000000000000          1.0044703314651784     
  0.14189999999999997          1.1604489721274689     
  0.14219999999999999          1.2507193325445769     
  0.14250000000000002          1.2703501598906470     
  0.14279999999999998          1.2198550543982307     
  0.14310000000000000          1.1046882880901308     
  0.14339999999999997         0.93241904219989991     
  0.14369999999999999         0.71515092128437630     
  0.14400000000000002         0.46642729754999834     
  0.14429999999999998         0.20003633077936644     
  0.14460000000000001         -6.9229306118839595E-002
  0.14490000000000003        -0.32881243074146038     
  0.14520000000000000        -0.56775624723240625     
  0.14550000000000002        -0.77765393356182244     
  0.14579999999999999        -0.95314695086289447     
  0.14610000000000001         -1.0903243381079264     
  0.14640000000000003         -1.1879842449321600     
  0.14670000000000000         -1.2467153975013971     
  0.14699999999999996         -1.2667922116883545     
  0.14729999999999999         -1.2498704382208956     
  0.14760000000000001         -1.1973189862022906     
  0.14789999999999998         -1.1093692215927931     
  0.14820000000000000        -0.98690164190622198     