  -1.4999999999999999E-002     0.0000000000000000     
  -1.4700000000000000E-002     0.0000000000000000     
  -1.4400000000000000E-002     0.0000000000000000     
  -1.4100000000000000E-002     0.0000000000000000     
  -1.3800000000000000E-002     0.0000000000000000     
  -1.3500000000000000E-002     0.0000000000000000     
  -1.3200000000000000E-002     0.0000000000000000     
  -1.2899999999999998E-002     0.0000000000000000     
  -1.2600000000000000E-002     0.0000000000000000     
  -1.2299999999999998E-002     0.0000000000000000     
  -1.2000000000000000E-002     0.0000000000000000     
  -1.1699999999999999E-002     0.0000000000000000     
  -1.1399999999999999E-002     0.0000000000000000     
  -1.1099999999999999E-002     0.0000000000000000     
  -1.0799999999999999E-002     0.0000000000000000     
  -1.0499999999999999E-002     0.0000000000000000     
  -1.0199999999999999E-002     0.0000000000000000     
  -9.8999999999999991E-003     0.0000000000000000     
  -9.5999999999999992E-003     0.0000000000000000     
  -9.2999999999999992E-003     0.0000000000000000     
  -8.9999999999999993E-003     0.0000000000000000     
  -8.6999999999999994E-003     0.0000000000000000     
  -8.3999999999999995E-003     0.0000000000000000     
  -8.0999999999999996E-003     0.0000000000000000     
  -7.7999999999999988E-003     0.0000000000000000     
  -7.4999999999999997E-003     0.0000000000000000     
  -7.1999999999999998E-003     0.0000000000000000     
  -6.8999999999999981E-003     0.0000000000000000     
  -6.5999999999999982E-003     0.0000000000000000     
  -6.3000000000000000E-003     0.0000000000000000     
  -6.0000000000000001E-003     0.0000000000000000     
  -5.6999999999999985E-003     0.0000000000000000     
  -5.3999999999999986E-003     0.0000000000000000     
  -5.1000000000000004E-003     2.0096761610886874E-036
  -4.7999999999999987E-003    -3.9055964822977661E-036
  -4.5000000000000005E-003    -6.9170564582821099E-035
  -4.1999999999999989E-003     3.9442716526708543E-034
  -3.8999999999999990E-003     5.6522061696980969E-035
  -3.5999999999999990E-003    -4.1312234680870810E-033
  -3.2999999999999991E-003     8.9155986172650578E-033
  -2.9999999999999992E-003     2.4510503072696206E-032
  -2.6999999999999993E-003    -1.7245491892806350E-031
  -2.3999999999999994E-003     2.4082752433375484E-031
  -2.0999999999999977E-003     1.0996813598835184E-030
  -1.7999999999999995E-003    -5.7547076380098650E-030
  -1.4999999999999979E-003     9.7396925441336050E-030
  -1.1999999999999997E-003     3.7219179220481341E-030
  -8.9999999999999976E-004    -5.4710505820377982E-029
  -5.9999999999999810E-004     1.8315992197879858E-028
  -2.9999999999999992E-004    -6.0119756921619040E-028
   0.0000000000000000          1.7461954212222136E-027
   3.0000000000000165E-004    -3.0584091073099962E-027
   5.9999999999999984E-004    -1.1157507280188073E-027
   9.0000000000000149E-004     2.6799990022000900E-026
   1.2000000000000031E-003    -9.2827444410797461E-026
   1.5000000000000013E-003     1.6761960567978612E-025
   1.8000000000000030E-003    -4.8363348791821707E-026
   2.1000000000000012E-003    -7.4347665265990232E-025
   2.3999999999999994E-003     2.7720497267680359E-024
   2.7000000000000010E-003    -5.8401195082202564E-024
   2.9999999999999992E-003     7.4895653410258797E-024
   3.3000000000000008E-003    -1.9354867970387621E-024
   3.6000000000000025E-003    -1.7914843408673736E-023
   3.9000000000000007E-003     5.2284195651441501E-023
   4.2000000000000023E-003    -8.1077748065196888E-023
   4.5000000000000005E-003     5.6044206492868827E-023
   4.7999999999999987E-003     8.0012678558065412E-023
   5.1000000000000004E-003    -3.2654479390888379E-022
   5.4000000000000020E-003     5.1117560618307182E-022
   5.7000000000000037E-003    -1.6450488798921023E-022
   5.9999999999999984E-003    -1.5111103451180634E-021
   6.3000000000000000E-003     5.2017260898332815E-021
   6.6000000000000017E-003    -9.1551776663936571E-021
   6.9000000000000034E-003     9.5760312485273688E-022
   7.2000000000000015E-003     6.3125952404860457E-020
   7.5000000000000032E-003    -2.8751503037696714E-019
   7.8000000000000014E-003     8.1319329858748568E-019
   8.0999999999999996E-003    -1.5410064619133198E-018
   8.4000000000000012E-003     1.3609146635022294E-018
   8.7000000000000029E-003     2.4263664092599584E-018
   9.0000000000000011E-003    -1.0157176561845854E-017
   9.2999999999999992E-003     1.5393897374060849E-018
   9.6000000000000009E-003     9.5676547000105391E-017
   9.8999999999999991E-003    -3.6017153818321095E-016
   1.0200000000000001E-002     4.0968463735672426E-016
   1.0500000000000002E-002     2.1710932510620676E-015
   1.0800000000000004E-002    -1.4967350004790186E-014
   1.1099999999999999E-002     5.4392261365516364E-014
   1.1400000000000000E-002    -1.4877563157128515E-013
   1.1700000000000002E-002     3.4750661007630634E-013
   1.2000000000000004E-002    -7.1995100853206040E-013
   1.2300000000000002E-002     1.0414388535578967E-012
   1.2600000000000000E-002     9.7032776778804841E-013
   1.2900000000000002E-002    -1.3563682295381074E-011
   1.3200000000000000E-002     4.7291767724111367E-011
   1.3500000000000002E-002    -7.0099870352891003E-011
   1.3800000000000003E-002    -7.5277291344821862E-011
   1.4100000000000001E-002     5.2634724356792617E-010
   1.4400000000000000E-002    -5.7575144651877963E-010
   1.4700000000000001E-002    -1.3871573889545630E-009
   1.4999999999999999E-002     3.0037654585868268E-009
   1.5300000000000001E-002     4.3542853767064571E-009
   1.5600000000000003E-002    -1.0654305881985238E-008
   1.5899999999999997E-002    -3.0336700262978411E-008
   1.6199999999999999E-002     9.6811785255113136E-009
   1.6500000000000001E-002     1.2166617580078309E-007
   1.6800000000000002E-002     5.6542916127000353E-008
   1.7100000000000004E-002    -3.5041668411395221E-007
   1.7400000000000006E-002    -2.1245541859116202E-007
   1.7700000000000000E-002     2.2456797523773275E-006
   1.8000000000000002E-002     7.8135553849278949E-006
   1.8300000000000004E-002     1.5852654541959055E-005
   1.8600000000000005E-002     2.7005982701666653E-005
   1.8900000000000000E-002     4.5177697757026181E-005
   1.9200000000000002E-002     7.5777054007630795E-005
   1.9500000000000003E-002     1.2384627189021558E-004
   1.9799999999999998E-002     1.9611987227108330E-004
   2.0100000000000000E-002     3.0491114011965692E-004
   2.0400000000000001E-002     4.6984423534013331E-004
   2.0700000000000003E-002     7.1729609044268727E-004
   2.0999999999999998E-002     1.0807547951117158E-003
   2.1299999999999999E-002     1.6050712438300252E-003
   2.1600000000000001E-002     2.3528940510004759E-003
   2.1900000000000003E-002     3.4081514459103346E-003
   2.2200000000000004E-002     4.8763123340904713E-003
   2.2500000000000006E-002     6.8868552334606647E-003
   2.2800000000000001E-002     9.5992339774966240E-003
   2.3100000000000002E-002     1.3206455856561661E-002
   2.3400000000000004E-002     1.7932696267962456E-002
   2.3699999999999999E-002     2.4028815329074860E-002
   2.4000000000000000E-002     3.1767234206199646E-002
   2.4300000000000002E-002     4.1432507336139679E-002
   2.4599999999999997E-002     5.3301434963941574E-002
   2.4900000000000005E-002     6.7618116736412048E-002
   2.5200000000000000E-002     8.4566369652748108E-002
   2.5499999999999995E-002    0.10423472523689270     
   2.5800000000000003E-002    0.12657591700553894     
   2.6099999999999998E-002    0.15136554837226868     
   2.6400000000000007E-002    0.17816697061061859     
   2.6700000000000002E-002    0.20630438625812531     
   2.6999999999999996E-002    0.23483486473560333     
   2.7300000000000005E-002    0.26254403591156006     
   2.7600000000000000E-002    0.28796559572219849     
   2.7900000000000008E-002    0.30942949652671814     
   2.8200000000000003E-002    0.32512992620468140     
   2.8499999999999998E-002    0.33321022987365723     
   2.8800000000000006E-002    0.33188486099243164     
   2.9100000000000001E-002    0.31958425045013428     
   2.9400000000000003E-002    0.29510366916656494     
   2.9700000000000004E-002    0.25770708918571472     
   3.0000000000000006E-002    0.20725868642330170     
   3.0300000000000001E-002    0.14432530105113983     
   3.0600000000000002E-002     7.0211604237556458E-002
   3.0900000000000004E-002    -1.3066590763628483E-002
   3.1199999999999999E-002   -0.10285648703575134     
   3.1500000000000007E-002   -0.19601106643676758     
   3.1800000000000002E-002   -0.28909257054328918     
   3.2099999999999997E-002   -0.37858086824417114     
   3.2400000000000005E-002   -0.46111935377120972     
   3.2700000000000000E-002   -0.53382676839828491     
   3.3000000000000002E-002   -0.59454900026321411     
   3.3300000000000003E-002   -0.64205509424209595     
   3.3599999999999998E-002   -0.67618536949157715     
   3.3900000000000000E-002   -0.69787853956222534     
   3.4200000000000001E-002   -0.70914131402969360     
   3.4500000000000003E-002   -0.71293765306472778     
   3.4799999999999998E-002   -0.71294838190078735     
   3.5099999999999999E-002   -0.71316587924957275     
   3.5400000000000001E-002   -0.71751010417938232     
   3.5699999999999996E-002   -0.72938698530197144     
   3.6000000000000004E-002   -0.75120490789413452     
   3.6299999999999999E-002   -0.78394639492034912     
   3.6600000000000008E-002   -0.82682251930236816     
   3.6900000000000002E-002   -0.87696677446365356     
   3.7199999999999997E-002   -0.92940866947174072     
   3.7500000000000006E-002   -0.97717285156250000     
   3.7800000000000000E-002    -1.0115742683410645     
   3.8100000000000009E-002    -1.0227138996124268     
   3.8400000000000004E-002    -1.0001834630966187     
   3.8699999999999998E-002   -0.93397969007492065     
   3.9000000000000007E-002   -0.81538647413253784     
   3.9300000000000002E-002   -0.63790732622146606     
   3.9600000000000003E-002   -0.39827334880828857     
   3.9900000000000005E-002    -9.7201786935329437E-002
   4.0200000000000000E-002    0.26012369990348816     
   4.0500000000000001E-002    0.66392266750335693     
   4.0800000000000003E-002     1.0997318029403687     
   4.1100000000000005E-002     1.5489813089370728     
   4.1399999999999999E-002     1.9899475574493408     
   4.1700000000000008E-002     2.3989655971527100     
   4.2000000000000003E-002     2.7517788410186768     
   4.2299999999999997E-002     3.0251755714416504     
   4.2600000000000006E-002     3.1987102031707764     
   4.2900000000000001E-002     3.2563667297363281     
   4.3200000000000002E-002     3.1878454685211182     
   4.3500000000000004E-002     2.9895863533020020     
   4.3799999999999999E-002     2.6654157638549805     
   4.4100000000000000E-002     2.2266113758087158     
   4.4400000000000002E-002     1.6915789842605591     
   4.4700000000000004E-002     1.0848754644393921     
   4.4999999999999998E-002    0.43583306670188904     
   4.5300000000000000E-002   -0.22314514219760895     
   4.5600000000000002E-002   -0.85864746570587158     
   4.5899999999999996E-002    -1.4382759332656860     
   4.6200000000000005E-002    -1.9326261281967163     
   4.6500000000000000E-002    -2.3172037601470947     
   4.6799999999999994E-002    -2.5739119052886963     
   4.7100000000000003E-002    -2.6920311450958252     
   4.7399999999999998E-002    -2.6688866615295410     
   4.7700000000000006E-002    -2.5098769664764404     
   4.8000000000000001E-002    -2.2279374599456787     
   4.8300000000000010E-002    -1.8426978588104248     
   4.8600000000000004E-002    -1.3791563510894775     
   4.8899999999999999E-002   -0.86610543727874756     
   4.9200000000000008E-002   -0.33420866727828979     
   4.9500000000000002E-002    0.18589667975902557     
   4.9800000000000011E-002    0.66516214609146118     
   5.0100000000000006E-002     1.0778880119323730     
   5.0400000000000000E-002     1.4033390283584595     
   5.0700000000000009E-002     1.6268184185028076     
   5.1000000000000004E-002     1.7403713464736938     
   5.1299999999999998E-002     1.7429606914520264     
   5.1600000000000007E-002     1.6404670476913452     
   5.1900000000000002E-002     1.4452466964721680     
   5.2200000000000010E-002     1.1749891042709351     
   5.2500000000000005E-002    0.85126793384552002     
   5.2800000000000000E-002    0.49816980957984924     
   5.3099999999999994E-002    0.14044162631034851     
   5.3400000000000003E-002   -0.19830779731273651     
   5.3699999999999998E-002   -0.49712187051773071     
   5.4000000000000006E-002   -0.73919111490249634     
   5.4300000000000001E-002   -0.91284632682800293     
   5.4599999999999996E-002    -1.0120519399642944     
   5.4900000000000004E-002    -1.0365307331085205     
   5.5199999999999999E-002   -0.99146640300750732     
   5.5499999999999994E-002   -0.88664728403091431     
   5.5800000000000002E-002   -0.73517400026321411     
   5.6099999999999997E-002   -0.55219912528991699     
   5.6400000000000006E-002   -0.35373282432556152     
   5.6700000000000000E-002   -0.15505737066268921     
   5.6999999999999995E-002     3.0409533530473709E-002
   5.7300000000000004E-002    0.19150140881538391     
   5.7599999999999998E-002    0.31978207826614380     
   5.7900000000000007E-002    0.40989112854003906     
   5.8200000000000002E-002    0.45916393399238586     
   5.8499999999999996E-002    0.46655714511871338     
   5.8800000000000005E-002    0.43208312988281250     
   5.9100000000000000E-002    0.35655355453491211     
   5.9400000000000008E-002    0.24087511003017426     
   5.9700000000000003E-002     8.5288800299167633E-002
   6.0000000000000012E-002   -0.11026781052350998     
   6.0300000000000006E-002   -0.34547048807144165     
   6.0600000000000001E-002   -0.61902469396591187     
   6.0900000000000010E-002   -0.92769241333007812     
   6.1200000000000004E-002    -1.2653259038925171     
   6.1500000000000013E-002    -1.6217627525329590     
   6.1800000000000008E-002    -1.9821921586990356     
   6.2100000000000002E-002    -2.3270034790039062     
   6.2399999999999997E-002    -2.6325306892395020     
   6.2700000000000006E-002    -2.8722231388092041     
   6.3000000000000000E-002    -3.0185294151306152     
   6.3300000000000009E-002    -3.0455322265625000     
   6.3600000000000004E-002    -2.9316785335540771     
   6.3899999999999998E-002    -2.6625499725341797     
   6.4199999999999993E-002    -2.2336018085479736     
   6.4500000000000002E-002    -1.6520804166793823     
   6.4800000000000010E-002   -0.93766230344772339     
   6.5100000000000005E-002   -0.12219826877117157     
   6.5400000000000000E-002    0.75129848718643188     
   6.5700000000000008E-002     1.6316806077957153     
   6.5999999999999989E-002     2.4637537002563477     
   6.6299999999999998E-002     3.1922066211700439     
   6.6600000000000006E-002     3.7662217617034912     
   6.6900000000000001E-002     4.1443800926208496     
   6.7199999999999996E-002     4.2987065315246582     
   6.7500000000000004E-002     4.2169222831726074     
   6.7800000000000013E-002     3.9039368629455566     
   6.8099999999999994E-002     3.3822596073150635     
   6.8400000000000002E-002     2.6901519298553467     
   6.8700000000000011E-002     1.8781336545944214     
   6.8999999999999992E-002     1.0049047470092773     
   6.9300000000000000E-002    0.13291960954666138     
   6.9600000000000009E-002   -0.67724096775054932     
   6.9900000000000004E-002    -1.3718827962875366     
   7.0199999999999999E-002    -1.9083846807479858     
   7.0500000000000007E-002    -2.2582519054412842     
   7.0800000000000016E-002    -2.4090514183044434     
   7.1099999999999997E-002    -2.3647537231445312     
   7.1400000000000005E-002    -2.1448709964752197     
   7.1700000000000000E-002    -1.7819591760635376     
   7.1999999999999995E-002    -1.3178145885467529     
   7.2300000000000003E-002   -0.79961425065994263     
   7.2600000000000012E-002   -0.27591928839683533     
   7.2900000000000006E-002    0.20801094174385071     
   7.3200000000000001E-002    0.61435329914093018     
   7.3499999999999996E-002    0.91527128219604492     
   7.3800000000000004E-002     1.0947037935256958     
   7.4099999999999999E-002     1.1495417356491089     
   7.4400000000000008E-002     1.0895320177078247     
   7.4700000000000003E-002    0.93530267477035522     
   7.5000000000000011E-002    0.71613049507141113     
   7.5299999999999992E-002    0.46732410788536072     
   7.5600000000000001E-002    0.22680898010730743     
   7.5900000000000009E-002     3.1297538429498672E-002
   7.6200000000000004E-002    -8.6902312934398651E-002
   7.6499999999999999E-002   -0.10246968269348145     
   7.6800000000000007E-002     7.6455483213067055E-004
   7.7099999999999988E-002    0.22831426560878754     
   7.7399999999999997E-002    0.57450956106185913     
   7.7700000000000005E-002     1.0230489969253540     
   7.8000000000000014E-002     1.5481853485107422     
   7.8299999999999995E-002     2.1164464950561523     
   7.8600000000000003E-002     2.6889898777008057     
   7.8900000000000012E-002     3.2244868278503418     
   7.9199999999999993E-002     3.6822452545166016     
   7.9500000000000001E-002     4.0246000289916992     
   7.9800000000000010E-002     4.2189188003540039     
   8.0100000000000018E-002     4.2403607368469238     
   8.0399999999999999E-002     4.0739207267761230     
   8.0700000000000008E-002     3.7148888111114502     
   8.1000000000000003E-002     3.1688296794891357     
   8.1299999999999997E-002     2.4519300460815430     
   8.1600000000000006E-002     1.5903549194335938     
   8.1900000000000014E-002    0.61816614866256714     
   8.2199999999999995E-002   -0.42460975050926208     
   8.2500000000000004E-002    -1.4940891265869141     
   8.2799999999999999E-002    -2.5456838607788086     
   8.3100000000000007E-002    -3.5372908115386963     
   8.3400000000000002E-002    -4.4315795898437500     
   8.3700000000000011E-002    -5.1987490653991699     
   8.4000000000000005E-002    -5.8189911842346191     
   8.4300000000000000E-002    -6.2833976745605469     
   8.4599999999999995E-002    -6.5939245223999023     
   8.4900000000000003E-002    -6.7629222869873047     
   8.5199999999999998E-002    -6.8113083839416504     
   8.5500000000000007E-002    -6.7657885551452637     
   8.5800000000000001E-002    -6.6549367904663086     
   8.6100000000000010E-002    -6.5053505897521973     
   8.6399999999999991E-002    -6.3380432128906250     
   8.6699999999999999E-002    -6.1653571128845215     
   8.7000000000000008E-002    -5.9887294769287109     
   8.7300000000000003E-002    -5.7968530654907227     
   8.7599999999999997E-002    -5.5665168762207031     
   8.7900000000000006E-002    -5.2654471397399902     
   8.8200000000000014E-002    -4.8555359840393066     
   8.8499999999999995E-002    -4.2963247299194336     
   8.8800000000000004E-002    -3.5507893562316895     
   8.9100000000000013E-002    -2.5912172794342041     
   8.9399999999999993E-002    -1.4035445451736450     
   8.9700000000000002E-002     9.9356099963188171E-003
   9.0000000000000011E-002     1.6279805898666382     
   9.0299999999999991E-002     3.4095499515533447     
   9.0600000000000000E-002     5.2956848144531250     
   9.0900000000000009E-002     7.2133269309997559     
   9.1200000000000017E-002     9.0794639587402344     
   9.1499999999999998E-002     10.807005882263184     
   9.1800000000000007E-002     12.310836791992188     
   9.2100000000000001E-002     13.513484001159668     
   9.2399999999999996E-002     14.350545883178711     
   9.2700000000000005E-002     14.774868965148926     
   9.3000000000000013E-002     14.758807182312012     
   9.3300000000000008E-002     14.294695854187012     
   9.3600000000000003E-002     13.394937515258789     
   9.3899999999999997E-002     12.090348243713379     
   9.4200000000000006E-002     10.426054954528809     
   9.4500000000000001E-002     8.4581356048583984     
   9.4800000000000009E-002     6.2512025833129883     
   9.5100000000000004E-002     3.8741300106048584     
   9.5399999999999999E-002     1.3970770835876465     
   9.5699999999999993E-002    -1.1095271110534668     
   9.6000000000000002E-002    -3.5760996341705322     
   9.6300000000000011E-002    -5.9356408119201660     
   9.6600000000000005E-002    -8.1234340667724609     
   9.6900000000000000E-002    -10.076334953308105     
   9.7200000000000009E-002    -11.734167098999023     
   9.7499999999999989E-002    -13.041486740112305     
   9.7799999999999998E-002    -13.949068069458008     
   9.8100000000000007E-002    -14.416279792785645     
   9.8400000000000015E-002    -14.414426803588867     
   9.8699999999999996E-002    -13.930976867675781     
   9.9000000000000005E-002    -12.972996711730957     
   9.9300000000000013E-002    -11.568715095520020     
   9.9599999999999994E-002    -9.7688102722167969     
   9.9900000000000003E-002    -7.6468601226806641     
  0.10020000000000001         -5.2966771125793457     
  0.10049999999999999         -2.8275501728057861     
  0.10080000000000000        -0.35845571756362915     
  0.10110000000000001          1.9891893863677979     
  0.10140000000000000          4.0994195938110352     
  0.10170000000000000          5.8696246147155762     
  0.10200000000000001          7.2180800437927246     
  0.10230000000000002          8.0895652770996094     
  0.10260000000000000          8.4592437744140625     
  0.10290000000000001          8.3338384628295898     
  0.10320000000000000          7.7512307167053223     
  0.10350000000000001          6.7771458625793457     
  0.10380000000000000          5.4993128776550293     
  0.10410000000000001          4.0213074684143066     
  0.10440000000000001          2.4553897380828857     
  0.10470000000000000         0.91307181119918823     
  0.10500000000000000        -0.50184494256973267     
  0.10530000000000000         -1.6991381645202637     
  0.10560000000000000         -2.6087431907653809     
  0.10590000000000001         -3.1854627132415771     
  0.10620000000000000         -3.4090406894683838     
  0.10650000000000001         -3.2850558757781982     
  0.10679999999999999         -2.8445599079132080     
  0.10710000000000000         -2.1401820182800293     
  0.10740000000000001         -1.2402369976043701     
  0.10770000000000000        -0.22452065348625183     
  0.10800000000000000         0.82079416513442993     
  0.10830000000000001          1.8111386299133301     
  0.10859999999999999          2.6698703765869141     
  0.10890000000000000          3.3320789337158203     
  0.10920000000000001          3.7496306896209717     
  0.10950000000000001          3.8949794769287109     
  0.10979999999999999          3.7618823051452637     
  0.11009999999999999          3.3657009601593018     
  0.11040000000000001          2.7418274879455566     
  0.11070000000000001          1.9421044588088989     
  0.11100000000000000          1.0307899713516235     
  0.11130000000000000          7.9731419682502747E-002
  0.11160000000000002        -0.83823102712631226     
  0.11190000000000001         -1.6550556421279907     
  0.11220000000000001         -2.3119013309478760     
  0.11250000000000000         -2.7637798786163330     
  0.11280000000000000         -2.9842493534088135     
  0.11309999999999999         -2.9663348197937012     
  0.11340000000000001         -2.7214217185974121     
  0.11369999999999998         -2.2794792652130127     
  0.11400000000000000         -1.6863309144973755     
  0.11430000000000000        -0.99813365936279297     
  0.11460000000000002        -0.27661788463592529     
  0.11489999999999999         0.41552552580833435     
  0.11520000000000001          1.0205934047698975     
  0.11550000000000001          1.4905149936676025     
  0.11580000000000000          1.7908588647842407     
  0.11609999999999999          1.9032435417175293     
  0.11640000000000002          1.8264811038970947     
  0.11670000000000001          1.5755712985992432     
  0.11700000000000001          1.1800627708435059     
  0.11730000000000000         0.68111872673034668     
  0.11760000000000000         0.12651036679744720     
  0.11789999999999999        -0.43410763144493103     
  0.11820000000000001        -0.95265477895736694     
  0.11850000000000001         -1.3876848220825195     
  0.11880000000000000         -1.7088227272033691     
  0.11910000000000000         -1.8975222110748291     
  0.11940000000000002         -1.9478048086166382     
  0.11970000000000001         -1.8675982952117920     
  0.12000000000000001         -1.6766257286071777     
  0.12030000000000000         -1.4023137092590332     
  0.12060000000000000         -1.0773209333419800     
  0.12089999999999999        -0.73707813024520874     
  0.12119999999999999        -0.41526821255683899     
  0.12150000000000001        -0.13918846845626831     
  0.12180000000000001          7.1057334542274475E-002
  0.12210000000000000         0.20296606421470642     
  0.12239999999999999         0.25415644049644470     
  0.12270000000000002         0.23158288002014160     
  0.12300000000000001         0.14892739057540894     
  0.12330000000000001          2.4676505476236343E-002
  0.12360000000000000        -0.11994174122810364     
  0.12390000000000000        -0.26359289884567261     
  0.12419999999999999        -0.38706299662590027     
  0.12450000000000001        -0.47603821754455566     
  0.12480000000000001        -0.52214401960372925     
  0.12509999999999999        -0.52280133962631226     
  0.12540000000000001        -0.48089334368705750     
  0.12570000000000003        -0.40474694967269897     
  0.12600000000000000        -0.30625402927398682     
  0.12630000000000002        -0.19816268980503082     
  0.12659999999999999         -9.2266462743282318E-002
  0.12690000000000001          1.6578640788793564E-003
  0.12719999999999998          7.8157812356948853E-002
  0.12750000000000000         0.13706293702125549     
  0.12780000000000002         0.18280605971813202     
  0.12809999999999999         0.22460745275020599     
  0.12840000000000001         0.27594870328903198     
  0.12869999999999998         0.35128998756408691     
  0.12900000000000000         0.46407392621040344     
  0.12930000000000003         0.62576597929000854     
  0.12959999999999999         0.84399479627609253     
  0.12990000000000002          1.1195393800735474     
  0.13019999999999998          1.4454946517944336     
  0.13050000000000000          1.8090184926986694     
  0.13080000000000003          2.1916236877441406     
  0.13109999999999999          2.5694344043731689     
  0.13140000000000002          2.9159336090087891     
  0.13169999999999998          3.2047717571258545     
  0.13200000000000001          3.4120397567749023     
  0.13229999999999997          3.5180139541625977     
  0.13260000000000000          3.5084846019744873     
  0.13290000000000002          3.3764250278472900     
  0.13319999999999999          3.1225976943969727     
  0.13350000000000001          2.7546715736389160     
  0.13380000000000003          2.2858319282531738     
  0.13410000000000000          1.7341333627700806     
  0.13440000000000002          1.1217027902603149     
  0.13469999999999999         0.47257471084594727     
  0.13500000000000001        -0.18911656737327576     
  0.13529999999999998        -0.83952200412750244     
  0.13560000000000000         -1.4565081596374512     
  0.13590000000000002         -2.0213463306427002     
  0.13619999999999999         -2.5183200836181641     
  0.13650000000000001         -2.9357845783233643     
  0.13680000000000003         -3.2678232192993164     
  0.13710000000000000         -3.5137209892272949     
  0.13740000000000002         -3.6775166988372803     
  0.13769999999999999         -3.7680561542510986     
  0.13800000000000001         -3.7981522083282471     
  0.13829999999999998         -3.7831585407257080     
  0.13860000000000000         -3.7392146587371826     
  0.13890000000000002         -3.6806552410125732     
  0.13919999999999999         -3.6182124614715576     
  0.13950000000000001         -3.5586612224578857     
  0.13979999999999998         -3.5034890174865723     
  0.14010000000000000         -3.4480690956115723     
  0.14040000000000002         -3.3833556175231934     
  0.14069999999999999         -3.2985477447509766     
  0.14100000000000001         -3.1827368736267090     
  0.14130000000000004         -3.0266156196594238     
  0.14160000000000000         -2.8256626129150391     
  0.14189999999999997         -2.5812160968780518     
  0.14219999999999999         -2.2998464107513428     
  0.14250000000000002         -1.9930200576782227     
  0.14279999999999998         -1.6746940612792969     
  0.14310000000000000         -1.3575549125671387     
  0.14339999999999997         -1.0500552654266357     
  0.14369999999999999        -0.75375658273696899     
  0.14400000000000002        -0.46097546815872192     
  0.14429999999999998        -0.15345270931720734     
  0.14460000000000001         0.19559584558010101     
  0.14490000000000003         0.61786556243896484     
  0.14520000000000000          1.1462600231170654     
  0.14550000000000002          1.8091920614242554     
  0.14579999999999999          2.6241471767425537     
  0.14610000000000001          3.5927710533142090     
  0.14640000000000003          4.6976571083068848     
  0.14670000000000000          5.9010443687438965     
  0.14699999999999996          7.1458015441894531     
  0.14729999999999999          8.3597679138183594     
  0.14760000000000001          9.4629173278808594     
  0.14789999999999998          10.375353813171387     
  0.14820000000000000          11.026378631591797     