  -1.4999999999999999E-002     0.0000000000000000     
  -1.4700000000000000E-002     0.0000000000000000     
  -1.4400000000000000E-002     0.0000000000000000     
  -1.4100000000000000E-002     0.0000000000000000     
  -1.3800000000000000E-002     0.0000000000000000     
  -1.3500000000000000E-002     0.0000000000000000     
  -1.3200000000000000E-002     0.0000000000000000     
  -1.2899999999999998E-002     0.0000000000000000     
  -1.2600000000000000E-002     0.0000000000000000     
  -1.2299999999999998E-002     0.0000000000000000     
  -1.2000000000000000E-002     0.0000000000000000     
  -1.1699999999999999E-002     0.0000000000000000     
  -1.1399999999999999E-002     0.0000000000000000     
  -1.1099999999999999E-002     0.0000000000000000     
  -1.0799999999999999E-002     0.0000000000000000     
  -1.0499999999999999E-002     0.0000000000000000     
  -1.0199999999999999E-002     0.0000000000000000     
  -9.8999999999999991E-003     0.0000000000000000     
  -9.5999999999999992E-003     0.0000000000000000     
  -9.2999999999999992E-003     0.0000000000000000     
  -8.9999999999999993E-003     0.0000000000000000     
  -8.6999999999999994E-003     0.0000000000000000     
  -8.3999999999999995E-003     0.0000000000000000     
  -8.0999999999999996E-003     0.0000000000000000     
  -7.7999999999999988E-003     0.0000000000000000     
  -7.4999999999999997E-003     0.0000000000000000     
  -7.1999999999999998E-003     0.0000000000000000     
  -6.8999999999999981E-003     0.0000000000000000     
  -6.5999999999999982E-003     0.0000000000000000     
  -6.3000000000000000E-003     0.0000000000000000     
  -6.0000000000000001E-003     0.0000000000000000     
  -5.6999999999999985E-003     0.0000000000000000     
  -5.3999999999999986E-003     0.0000000000000000     
  -5.1000000000000004E-003     0.0000000000000000     
  -4.7999999999999987E-003     0.0000000000000000     
  -4.5000000000000005E-003     0.0000000000000000     
  -4.1999999999999989E-003     0.0000000000000000     
  -3.8999999999999990E-003     0.0000000000000000     
  -3.5999999999999990E-003     0.0000000000000000     
  -3.2999999999999991E-003     0.0000000000000000     
  -2.9999999999999992E-003     0.0000000000000000     
  -2.6999999999999993E-003     0.0000000000000000     
  -2.3999999999999994E-003     0.0000000000000000     
  -2.0999999999999977E-003     0.0000000000000000     
  -1.7999999999999995E-003     0.0000000000000000     
  -1.4999999999999979E-003     0.0000000000000000     
  -1.1999999999999997E-003     0.0000000000000000     
  -8.9999999999999976E-004     0.0000000000000000     
  -5.9999999999999810E-004     0.0000000000000000     
  -2.9999999999999992E-004     0.0000000000000000     
   0.0000000000000000          0.0000000000000000     
   3.0000000000000165E-004     0.0000000000000000     
   5.9999999999999984E-004     0.0000000000000000     
   9.0000000000000149E-004     0.0000000000000000     
   1.2000000000000031E-003     0.0000000000000000     
   1.5000000000000013E-003     0.0000000000000000     
   1.8000000000000030E-003     0.0000000000000000     
   2.1000000000000012E-003     0.0000000000000000     
   2.3999999999999994E-003     0.0000000000000000     
   2.7000000000000010E-003     0.0000000000000000     
   2.9999999999999992E-003     0.0000000000000000     
   3.3000000000000008E-003     0.0000000000000000     
   3.6000000000000025E-003     0.0000000000000000     
   3.9000000000000007E-003     0.0000000000000000     
   4.2000000000000023E-003     0.0000000000000000     
   4.5000000000000005E-003     0.0000000000000000     
   4.7999999999999987E-003     0.0000000000000000     
   5.1000000000000004E-003     0.0000000000000000     
   5.4000000000000020E-003     0.0000000000000000     
   5.7000000000000037E-003     0.0000000000000000     
   5.9999999999999984E-003     0.0000000000000000     
   6.3000000000000000E-003     0.0000000000000000     
   6.6000000000000017E-003     0.0000000000000000     
   6.9000000000000034E-003     0.0000000000000000     
   7.2000000000000015E-003     0.0000000000000000     
   7.5000000000000032E-003     0.0000000000000000     
   7.8000000000000014E-003     0.0000000000000000     
   8.0999999999999996E-003     0.0000000000000000     
   8.4000000000000012E-003     0.0000000000000000     
   8.7000000000000029E-003     0.0000000000000000     
   9.0000000000000011E-003     0.0000000000000000     
   9.2999999999999992E-003     1.9502755297664084E-038
   9.6000000000000009E-003     8.7716169127338763E-039
   9.8999999999999991E-003     4.5527937217806167E-037
   1.0200000000000001E-002    -1.5801545201873188E-036
   1.0500000000000002E-002     7.6682830736244620E-036
   1.0800000000000004E-002     1.0306199247827903E-034
   1.1099999999999999E-002    -2.2117475558287905E-034
   1.1400000000000000E-002    -2.4785169653942355E-033
   1.1700000000000002E-002     2.1789869874271910E-032
   1.2000000000000004E-002    -5.7176476649468424E-032
   1.2300000000000002E-002    -1.9234892757005304E-031
   1.2600000000000000E-002     2.3393608953325146E-030
   1.2900000000000002E-002    -9.4858381877594060E-030
   1.3200000000000000E-002     7.7825522509313950E-030
   1.3500000000000002E-002     1.3911416661157041E-028
   1.3800000000000003E-002    -9.4012978013023013E-028
   1.4100000000000001E-002     2.9691475894452810E-027
   1.4400000000000000E-002    -2.0847931002232425E-027
   1.4700000000000001E-002    -3.0073828832964005E-026
   1.4999999999999999E-002     1.9393551948969733E-025
   1.5300000000000001E-002    -7.4203130840276874E-025
   1.5600000000000003E-002     2.1458282593600405E-024
   1.5899999999999997E-002    -4.4250318439409287E-024
   1.6199999999999999E-002    -1.3620071782556114E-024
   1.6500000000000001E-002     9.5229985744908060E-023
   1.6800000000000002E-002    -7.6347043784167361E-022
   1.7100000000000004E-002     4.3501122278129268E-021
   1.7400000000000006E-002    -2.0319508158412977E-020
   1.7700000000000000E-002     8.1606985186681006E-020
   1.8000000000000002E-002    -2.8878757664090331E-019
   1.8300000000000004E-002     9.1748535589141222E-019
   1.8600000000000005E-002    -2.6943227503084358E-018
   1.8900000000000000E-002     7.8697033784748355E-018
   1.9200000000000002E-002    -2.6609199349541584E-017
   1.9500000000000003E-002     1.1777782623785264E-016
   1.9799999999999998E-002    -6.2483154544781588E-016
   2.0100000000000000E-002     3.3673759475892756E-015
   2.0400000000000001E-002    -1.6803167267257548E-014
   2.0700000000000003E-002     7.4516562122196569E-014
   2.0999999999999998E-002    -2.8485570834899686E-013
   2.1299999999999999E-002     8.9540787812176762E-013
   2.1600000000000001E-002    -2.0651492236985019E-012
   2.1900000000000003E-002     1.9925333109478449E-012
   2.2200000000000004E-002     9.4224344845586298E-012
   2.2500000000000006E-002    -5.9076982437897675E-011
   2.2800000000000001E-002     1.6488472634124173E-010
   2.3100000000000002E-002    -1.7537043216021033E-010
   2.3400000000000004E-002    -5.0171518103794523E-010
   2.3699999999999999E-002     2.4054729147265505E-009
   2.4000000000000000E-002    -3.0181424703029141E-009
   2.4300000000000002E-002    -5.5841803579124451E-009
   2.4599999999999997E-002     2.1996051832911883E-008
   2.4900000000000005E-002    -4.9241192611262748E-009
   2.5200000000000000E-002    -7.6003670210671034E-008
   2.5499999999999995E-002     5.0836091894451922E-008
   2.5800000000000003E-002     2.2410020005511557E-007
   2.6099999999999998E-002    -1.0728417841389059E-007
   2.6400000000000007E-002    -7.0178563992279316E-007
   2.6700000000000002E-002    -1.6341836328773181E-007
   2.6999999999999996E-002     2.6563172588353151E-006
   2.7300000000000005E-002     7.3467378313384058E-006
   2.7600000000000000E-002     1.2892335120189599E-005
   2.7900000000000008E-002     1.9687248568459764E-005
   2.8200000000000003E-002     2.9830689435146238E-005
   2.8499999999999998E-002     4.6307712166388133E-005
   2.8800000000000006E-002     7.2646724178763392E-005
   2.9100000000000001E-002     1.1300348311028136E-004
   2.9400000000000003E-002     1.7281179263294554E-004
   2.9700000000000004E-002     2.5986373085197349E-004
   3.0000000000000006E-002     3.8565030054973914E-004
   3.0300000000000001E-002     5.6654614025426070E-004
   3.0600000000000002E-002     8.2357409727270778E-004
   3.0900000000000004E-002     1.1814766635632953E-003
   3.1199999999999999E-002     1.6691532836942621E-003
   3.1500000000000007E-002     2.3215459389310383E-003
   3.1800000000000002E-002     3.1805944238781497E-003
   3.2099999999999997E-002     4.2929022255353277E-003
   3.2400000000000005E-002     5.7055861049115919E-003
   3.2700000000000000E-002     7.4629160354218460E-003
   3.3000000000000002E-002     9.6020442235996151E-003
   3.3300000000000003E-002     1.2145906757506320E-002
   3.3599999999999998E-002     1.5093369846154614E-002
   3.3900000000000000E-002     1.8409030020353656E-002
   3.4200000000000001E-002     2.2013029262325512E-002
   3.4500000000000003E-002     2.5770490059093820E-002
   3.4799999999999998E-002     2.9481610302401706E-002
   3.5099999999999999E-002     3.2875738831249723E-002
   3.5400000000000001E-002     3.5615823241951006E-002
   3.5699999999999996E-002     3.7303476594326312E-002
   3.6000000000000004E-002     3.7492824921406598E-002
   3.6299999999999999E-002     3.5719204347422817E-002
   3.6600000000000008E-002     3.1534024369537450E-002
   3.6900000000000002E-002     2.4557198498818877E-002
   3.7199999999999997E-002     1.4521795555070882E-002
   3.7500000000000006E-002     1.3276153386416328E-003
   3.7800000000000000E-002    -1.4902927381415576E-002
   3.8100000000000009E-002    -3.3787281139179060E-002
   3.8400000000000004E-002    -5.4650838926231016E-002
   3.8699999999999998E-002    -7.6534274060585439E-002
   3.9000000000000007E-002    -9.8210676275683806E-002
   3.9300000000000002E-002   -0.11824211149089070     
   3.9600000000000003E-002   -0.13506344071965515     
   3.9900000000000005E-002   -0.14709276991633580     
   4.0200000000000000E-002   -0.15285469721791500     
   4.0500000000000001E-002   -0.15110379075083280     
   4.0800000000000003E-002   -0.14096625174120359     
   4.1100000000000005E-002   -0.12203485780438106     
   4.1399999999999999E-002    -9.4438970894374030E-002
   4.1700000000000008E-002    -5.8883426315706644E-002
   4.2000000000000003E-002    -1.6620889485845169E-002
   4.2299999999999997E-002     3.0606027600978525E-002
   4.2600000000000006E-002     8.0664884587923424E-002
   4.2900000000000001E-002    0.13118776872576721     
   4.3200000000000002E-002    0.17972122136932001     
   4.3500000000000004E-002    0.22388528146429731     
   4.3799999999999999E-002    0.26153175469362111     
   4.4100000000000000E-002    0.29084577782009546     
   4.4400000000000002E-002    0.31045290722906849     
   4.4700000000000004E-002    0.31945211726570832     
   4.4999999999999998E-002    0.31740826151420620     
   4.5300000000000000E-002    0.30433749212490468     
   4.5600000000000002E-002    0.28062762680200493     
   4.5899999999999996E-002    0.24698085897119348     
   4.6200000000000005E-002    0.20432250326518986     
   4.6500000000000000E-002    0.15373307109911272     
   4.6799999999999994E-002     9.6391104327499977E-002
   4.7100000000000003E-002     3.3535037753501307E-002
   4.7399999999999998E-002    -3.3543884744658969E-002
   4.7700000000000006E-002   -0.10352745618031500     
   4.8000000000000001E-002   -0.17503786446168945     
   4.8300000000000010E-002   -0.24663428085070116     
   4.8600000000000004E-002   -0.31679174905760021     
   4.8899999999999999E-002   -0.38391494708226759     
   4.9200000000000008E-002   -0.44631221696640644     
   4.9500000000000002E-002   -0.50225109710754445     
   4.9800000000000011E-002   -0.55000687852240659     
   5.0100000000000006E-002   -0.58786510262952163     
   5.0400000000000000E-002   -0.61427910505232575     
   5.0700000000000009E-002   -0.62788648908145106     
   5.1000000000000004E-002   -0.62762025011199540     
   5.1299999999999998E-002   -0.61281969599000163     
   5.1600000000000007E-002   -0.58321876698144592     
   5.1900000000000002E-002   -0.53911613731171748     
   5.2200000000000010E-002   -0.48132201867501756     
   5.2500000000000005E-002   -0.41115890776444530     
   5.2800000000000000E-002   -0.33050876104434490     
   5.3099999999999994E-002   -0.24160319751275994     
   5.3400000000000003E-002   -0.14700217485887113     
   5.3699999999999998E-002    -4.9431724030727153E-002
   5.4000000000000006E-002     4.8437120369935083E-002
   5.4300000000000001E-002    0.14408456386235180     
   5.4599999999999996E-002    0.23540112068080887     
   5.4900000000000004E-002    0.32080791921348606     
   5.5199999999999999E-002    0.39930742624184212     
   5.5499999999999994E-002    0.47064596567628314     
   5.5800000000000002E-002    0.53518809212567575     
   5.6099999999999997E-002    0.59384706553488087     
   5.6400000000000006E-002    0.64799359046444494     
   5.6700000000000000E-002    0.69904946670000356     
   5.6999999999999995E-002    0.74842152777582527     
   5.7300000000000004E-002    0.79701602307583386     
   5.7599999999999998E-002    0.84503955385574159     
   5.7900000000000007E-002    0.89185431857261577     
   5.8200000000000002E-002    0.93554131706921950     
   5.8499999999999996E-002    0.97321043117163342     
   5.8800000000000005E-002     1.0008264212752351     
   5.9100000000000000E-002     1.0134807417940905     
   5.9400000000000008E-002     1.0059050175349356     
   5.9700000000000003E-002    0.97260412498827620     
   6.0000000000000012E-002    0.90877202330758777     
   6.0300000000000006E-002    0.81057385692701089     
   6.0600000000000001E-002    0.67571785731405143     
   6.0900000000000010E-002    0.50406918801066780     
   6.1200000000000004E-002    0.29756043423771988     
   6.1500000000000013E-002     6.0724487508289293E-002
   6.1800000000000008E-002   -0.19965498495473355     
   6.2100000000000002E-002   -0.47489720980306238     
   6.2399999999999997E-002   -0.75449016263592483     
   6.2700000000000006E-002    -1.0272701609672055     
   6.3000000000000000E-002    -1.2816735880883741     
   6.3300000000000009E-002    -1.5066082742477320     
   6.3600000000000004E-002    -1.6923526914684786     
   6.3899999999999998E-002    -1.8306147552359349     
   6.4199999999999993E-002    -1.9154959465399060     
   6.4500000000000002E-002    -1.9434240435932253     
   6.4800000000000010E-002    -1.9131885722706770     
   6.5100000000000005E-002    -1.8261029222731437     
   6.5400000000000000E-002    -1.6853850634386589     
   6.5700000000000008E-002    -1.4961142120166784     
   6.5999999999999989E-002    -1.2646816793905344     
   6.6299999999999998E-002   -0.99824911897266588     
   6.6600000000000006E-002   -0.70469799760819463     
   6.6900000000000001E-002   -0.39199550876386402     
   6.7199999999999996E-002    -6.8019774276038447E-002
   6.7500000000000004E-002    0.25948605920718215     
   6.7800000000000013E-002    0.58317817079086254     
   6.8099999999999994E-002    0.89614778608030221     
   6.8400000000000002E-002     1.1917983805634691     
   6.8700000000000011E-002     1.4643368077991070     
   6.8999999999999992E-002     1.7082413018106593     
   6.9300000000000000E-002     1.9186737938601155     
   6.9600000000000009E-002     2.0916145073642411     
   6.9900000000000004E-002     2.2234254527900248     
   7.0199999999999999E-002     2.3115526421184001     
   7.0500000000000007E-002     2.3538670514864606     
   7.0800000000000016E-002     2.3490523312884051     
   7.1099999999999997E-002     2.2964931833998463     
   7.1400000000000005E-002     2.1957400460186989     
   7.1700000000000000E-002     2.0470559893861306     
   7.1999999999999995E-002     1.8509586250215975     
   7.2300000000000003E-002     1.6081278910139005     
   7.2600000000000012E-002     1.3200795487830348     
   7.2900000000000006E-002    0.98885209828032927     
   7.3200000000000001E-002    0.61746217407869253     
   7.3499999999999996E-002    0.21085149857824348     
   7.3800000000000004E-002   -0.22478517125983899     
   7.4099999999999999E-002   -0.68047805169852538     
   7.4400000000000008E-002    -1.1450857095354650     
   7.4700000000000003E-002    -1.6051506193679401     
   7.5000000000000011E-002    -2.0447484727869565     
   7.5299999999999992E-002    -2.4471030772751732     
   7.5600000000000001E-002    -2.7944397532662748     
   7.5900000000000009E-002    -3.0697613976735170     
   7.6200000000000004E-002    -3.2582975962381084     
   7.6499999999999999E-002    -3.3478847253508661     
   7.6800000000000007E-002    -3.3315240822983583     
   7.7099999999999988E-002    -3.2070926630211289     
   7.7399999999999997E-002    -2.9781700939847582     
   7.7700000000000005E-002    -2.6546739274236160     
   7.8000000000000014E-002    -2.2511758817225456     
   7.8299999999999995E-002    -1.7868935786923288     
   7.8600000000000003E-002    -1.2840161174659279     
   7.8900000000000012E-002   -0.76547163740712953     
   7.9199999999999993E-002   -0.25416424225465306     
   7.9500000000000001E-002    0.22946924341137143     
   7.9800000000000010E-002    0.66887047784302212     
   8.0100000000000018E-002     1.0515283237601594     
   8.0399999999999999E-002     1.3708620970049168     
   8.0700000000000008E-002     1.6247415995366978     
   8.1000000000000003E-002     1.8154641056944953     
   8.1299999999999997E-002     1.9494332763848021     
   8.1600000000000006E-002     2.0340418468674812     
   8.1900000000000014E-002     2.0780739286643382     
   8.2199999999999995E-002     2.0892296614691190     
   8.2500000000000004E-002     2.0727418404060671     
   8.2799999999999999E-002     2.0318623716261115     
   8.3100000000000007E-002     1.9658264048145497     
   8.3400000000000002E-002     1.8715573838738280     
   8.3700000000000011E-002     1.7438239157078712     
   8.4000000000000005E-002     1.5757629986028547     
   8.4300000000000000E-002     1.3618696975257301     
   8.4599999999999995E-002     1.0975120723090335     
   8.4900000000000003E-002    0.78168087232266270     
   8.5199999999999998E-002    0.41785361026552792     
   8.5500000000000007E-002     1.3587766502364484E-002
   8.5800000000000001E-002   -0.41774060375405497     
   8.6100000000000010E-002   -0.85879225605422960     
   8.6399999999999991E-002    -1.2888697080403873     
   8.6699999999999999E-002    -1.6847277379927164     
   8.7000000000000008E-002    -2.0236011981722868     
   8.7300000000000003E-002    -2.2838570121523389     
   8.7599999999999997E-002    -2.4472268550303653     
   8.7900000000000006E-002    -2.5011307268261191     
   8.8200000000000014E-002    -2.4384502806061050     
   8.8499999999999995E-002    -2.2595425068521777     
   8.8800000000000004E-002    -1.9717619243321565     
   8.9100000000000013E-002    -1.5885137731104528     
   8.9399999999999993E-002    -1.1296420191697454     
   8.9700000000000002E-002   -0.61834057069914516     
   9.0000000000000011E-002    -8.0883499871657882E-002
   9.0299999999999991E-002    0.45585591342186937     
   9.0600000000000000E-002    0.96666894082590815     
   9.0900000000000009E-002     1.4282487135199773     
   9.1200000000000017E-002     1.8222586742470384     
   9.1499999999999998E-002     2.1348274271881280     
   9.1800000000000007E-002     2.3573368311967187     
   9.2100000000000001E-002     2.4870022682457602     
   9.2399999999999996E-002     2.5251605896807234     
   9.2700000000000005E-002     2.4775106722560452     
   9.3000000000000013E-002     2.3524817750465132     
   9.3300000000000008E-002     2.1600906145756156     
   9.3600000000000003E-002     1.9112009823453207     
   9.3899999999999997E-002     1.6161197175266437     
   9.4200000000000006E-002     1.2844697792886990     
   9.4500000000000001E-002    0.92471095285050353     
   9.4800000000000009E-002    0.54425044838524261     
   9.5100000000000004E-002    0.15024863185867154     
   9.5399999999999999E-002   -0.25016063408518185     
   9.5699999999999993E-002   -0.64882061802402546     
   9.6000000000000002E-002    -1.0357179728129005     
   9.6300000000000011E-002    -1.3992429945938625     
   9.6600000000000005E-002    -1.7256317712666061     
   9.6900000000000000E-002    -1.9994235853662872     
   9.7200000000000009E-002    -2.2049637187552520     
   9.7499999999999989E-002    -2.3269707183455779     
   9.7799999999999998E-002    -2.3529672098328120     
   9.8100000000000007E-002    -2.2743543925297516     
   9.8400000000000015E-002    -2.0883703007197738     
   9.8699999999999996E-002    -1.7994289100314660     
   9.9000000000000005E-002    -1.4193392234877713     
   9.9300000000000013E-002   -0.96760071584919771     
   9.9599999999999994E-002   -0.47011619595252974     
   9.9900000000000003E-002     4.2236234559398955E-002
  0.10020000000000001         0.53607987796423728     
  0.10049999999999999         0.97839099402630936     
  0.10080000000000000          1.3391596729613511     
  0.10110000000000001          1.5942665525592759     
  0.10140000000000000          1.7278457387574377     
  0.10170000000000000          1.7337919768631522     
  0.10200000000000001          1.6160104651593201     
  0.10230000000000002          1.3883103580330314     
  0.10260000000000000          1.0725737919692975     
  0.10290000000000001         0.69633589093929693     
  0.10320000000000000         0.29042630848573925     
  0.10350000000000001        -0.11473579933566658     
  0.10380000000000000        -0.49179028849056650     
  0.10410000000000001        -0.81906364905360718     
  0.10440000000000001         -1.0823180069583813     
  0.10470000000000000         -1.2753424441257337     
  0.10500000000000000         -1.3998463250102589     
  0.10530000000000000         -1.4640019399016637     
  0.10560000000000000         -1.4803090431824941     
  0.10590000000000001         -1.4635094468519299     
  0.10620000000000000         -1.4273130402148624     
  0.10650000000000001         -1.3825963711773070     
  0.10679999999999999         -1.3353522636085913     
  0.10710000000000000         -1.2853872509584789     
  0.10740000000000001         -1.2272040669958741     
  0.10770000000000000         -1.1498749601373035     
  0.10800000000000000         -1.0399406342203612     
  0.10830000000000001        -0.88309038014648422     
  0.10859999999999999        -0.66683297807803843     
  0.10890000000000000        -0.38342411708459778     
  0.10920000000000001         -3.0857226309067620E-002
  0.10950000000000001         0.38473891111977387     
  0.10979999999999999         0.84938731580487570     
  0.11009999999999999          1.3420352053465763     
  0.11040000000000001          1.8356343570443769     
  0.11070000000000001          2.2999018864169329     
  0.11100000000000000          2.7038091421455732     
  0.11130000000000000          3.0185603386493085     
  0.11160000000000002          3.2200897451957786     
  0.11190000000000001          3.2911740215344736     
  0.11220000000000001          3.2231171305422208     
  0.11250000000000000          3.0160064514180931     
  0.11280000000000000          2.6788438649413422     
  0.11309999999999999          2.2283302440322998     
  0.11340000000000001          1.6870661238947839     
  0.11369999999999998          1.0820383426026452     
  0.11400000000000000         0.44246227282044970     
  0.11430000000000000        -0.20282779924803873     
  0.11460000000000002        -0.82599765328007280     
  0.11489999999999999         -1.4022123425464414     
  0.11520000000000001         -1.9102185665122491     
  0.11550000000000001         -2.3325483651717605     
  0.11580000000000000         -2.6555405662938796     
  0.11609999999999999         -2.8689003984461152     
  0.11640000000000002         -2.9657053435789891     
  0.11670000000000001         -2.9417562578725551     
  0.11700000000000001         -2.7956977511820185     
  0.11730000000000000         -2.5291381455751889     
  0.11760000000000000         -2.1469329202821328     
  0.11789999999999999         -1.6582393745100390     
  0.11820000000000001         -1.0767624987792637     
  0.11850000000000001        -0.42147499035546687     
  0.11880000000000000         0.28311196783234482     
  0.11910000000000000          1.0069239859196486     
  0.11940000000000002          1.7151002178621653     
  0.11970000000000001          2.3696564521122809     
  0.12000000000000001          2.9311881269563145     
  0.12030000000000000          3.3617059057084049     
  0.12060000000000000          3.6276770926526893     
  0.12089999999999999          3.7027730803365131     
  0.12119999999999999          3.5711480979314842     
  0.12150000000000001          3.2292811448009502     
  0.12180000000000001          2.6876820607157015     
  0.12210000000000000          1.9714177450486075     
  0.12239999999999999          1.1187025493153726     
  0.12270000000000002         0.17928274347083395     
  0.12300000000000001        -0.78873520953012388     
  0.12330000000000001         -1.7236299860292021     
  0.12360000000000000         -2.5644201948521612     
  0.12390000000000000         -3.2553851496458321     
  0.12419999999999999         -3.7513816561399267     
  0.12450000000000001         -4.0207616939695470     
  0.12480000000000001         -4.0484597223419314     
  0.12509999999999999         -3.8377091139278718     
  0.12540000000000001         -3.4085199090243066     
  0.12570000000000003         -2.7980666980987721     
  0.12600000000000000         -2.0554635164321695     
  0.12630000000000002         -1.2386610510342599     
  0.12659999999999999        -0.41051146260245375     
  0.12690000000000001         0.36925023624085807     
  0.12719999999999998          1.0443926413232560     
  0.12750000000000000          1.5705444602771266     
  0.12780000000000002          1.9163212896418997     
  0.12809999999999999          2.0645300762279888     
  0.12840000000000001          2.0160908620413949     
  0.12869999999999998          1.7845616292422370     
  0.12900000000000000          1.3986343571148439     
  0.12930000000000003         0.89668385849404686     
  0.12959999999999999         0.32280948026598111     
  0.12990000000000002        -0.27388054958633745     
  0.13019999999999998        -0.84794619289135653     
  0.13050000000000000         -1.3567416931427587     
  0.13080000000000003         -1.7652945796105115     
  0.13109999999999999         -2.0494509885441232     
  0.13140000000000002         -2.1934400301528640     
  0.13169999999999998         -2.1939987039094504     
  0.13200000000000001         -2.0569929382442780     
  0.13229999999999997         -1.7962906046189175     
  0.13260000000000000         -1.4335361682513934     
  0.13290000000000002        -0.99283661218582875     
  0.13319999999999999        -0.50119126114991275     
  0.13350000000000001          1.4678524295606010E-002
  0.13380000000000003         0.53110061095089023     
  0.13410000000000000          1.0270779110560966     
  0.13440000000000002          1.4866172027617566     
  0.13469999999999999          1.8984671846720858     
  0.13500000000000001          2.2547516708341959     
  0.13529999999999998          2.5527887652064436     
  0.13560000000000000          2.7917641043097774     
  0.13590000000000002          2.9724118413044636     
  0.13619999999999999          3.0976191036176033     
  0.13650000000000001          3.1680885707766322     
  0.13680000000000003          3.1853640113416049     
  0.13710000000000000          3.1490959002209138     
  0.13740000000000002          3.0568461410327501     
  0.13769999999999999          2.9071263383239909     
  0.13800000000000001          2.6961152242671673     
  0.13829999999999998          2.4218567580198425     
  0.13860000000000000          2.0839786164687837     
  0.13890000000000002          1.6833920489841816     
  0.13919999999999999          1.2261614967956469     
  0.13950000000000001         0.72087476614012758     
  0.13979999999999998         0.18095992127217286     
  0.14010000000000000        -0.37527012421104811     
  0.14040000000000002        -0.92778004931613012     
  0.14069999999999999         -1.4528860888864301     
  0.14100000000000001         -1.9271226540727753     
  0.14130000000000004         -2.3288677945065928     
  0.14160000000000000         -2.6389538422816798     
  0.14189999999999997         -2.8452629331060848     
  0.14219999999999999         -2.9422082438762658     
  0.14250000000000002         -2.9322176101195936     
  0.14279999999999998         -2.8278626140537853     
  0.14310000000000000         -2.6479396231675452     
  0.14339999999999997         -2.4190329312868073     
  0.14369999999999999         -2.1718738371725195     
  0.14400000000000002         -1.9372428154559742     
  0.14429999999999998         -1.7455830997093145     
  0.14460000000000001         -1.6201214451381247     
  0.14490000000000003         -1.5766065350319849     
  0.14520000000000000         -1.6206267965437320     
  0.14550000000000002         -1.7447459814395998     
  0.14579999999999999         -1.9318332326851504     
  0.14610000000000001         -2.1533800463308665     
  0.14640000000000003         -2.3738189894652066     
  0.14670000000000000         -2.5537492740035077     
  0.14699999999999996         -2.6528006078535427     
  0.14729999999999999         -2.6357867841082268     
  0.14760000000000001         -2.4745680535494969     
  0.14789999999999998         -2.1523397802576874     
  0.14820000000000000         -1.6656423788138959     