  -1.4999999999999999E-002     0.0000000000000000     
  -1.4700000000000000E-002     3.2667378351487197E-016
  -1.4400000000000000E-002     4.7973506915441429E-013
  -1.4100000000000000E-002     1.1641549957016808E-011
  -1.3800000000000000E-002    -8.9360501092694984E-011
  -1.3500000000000000E-002    -7.4597203601144577E-010
  -1.3200000000000000E-002     2.5910846443117498E-009
  -1.2899999999999998E-002     8.7867872518522695E-009
  -1.2600000000000000E-002    -2.0403560020450506E-008
  -1.2299999999999998E-002    -3.5621004776371434E-008
  -1.2000000000000000E-002     3.5998917844655928E-008
  -1.1699999999999999E-002     8.1370026339757708E-008
  -1.1399999999999999E-002     1.0963807478755273E-007
  -1.1099999999999999E-002    -1.5467908329729969E-007
  -1.0799999999999999E-002    -4.1925094291479820E-007
  -1.0499999999999999E-002     1.1867392583782272E-007
  -1.0199999999999999E-002     2.1128209082358033E-007
  -9.8999999999999991E-003     8.1489945765743761E-008
  -9.5999999999999992E-003     1.1169584292159167E-006
  -9.2999999999999992E-003     4.2792912804880769E-007
  -8.9999999999999993E-003    -2.3465092977754049E-006
  -8.6999999999999994E-003    -1.7499210271386992E-006
  -8.3999999999999995E-003     1.3076607930109493E-006
  -8.0999999999999996E-003     9.3988255866908290E-007
  -7.7999999999999988E-003     1.3885604317856085E-007
  -7.4999999999999997E-003     1.7832576178390211E-006
  -7.1999999999999998E-003     1.4866028891044901E-006
  -6.8999999999999981E-003     2.4010580316060399E-006
  -6.5999999999999982E-003     5.0560063184631007E-006
  -6.3000000000000000E-003    -1.0571167229373338E-005
  -6.0000000000000001E-003    -4.3004638558430440E-005
  -5.6999999999999985E-003    -2.6649256695148924E-005
  -5.3999999999999986E-003     1.0995758560758341E-004
  -5.1000000000000004E-003     3.7349305543464236E-004
  -4.7999999999999987E-003     7.2505582983702120E-004
  -4.5000000000000005E-003     1.1368608340651359E-003
  -4.1999999999999989E-003     1.6404872438752147E-003
  -3.8999999999999990E-003     2.3774518874814903E-003
  -3.5999999999999990E-003     3.5864874356736631E-003
  -3.2999999999999991E-003     5.5173803527733753E-003
  -2.9999999999999992E-003     8.4638739833882495E-003
  -2.6999999999999993E-003     1.2848422076925811E-002
  -2.3999999999999994E-003     1.9166751054065956E-002
  -2.0999999999999977E-003     2.8032193248187731E-002
  -1.7999999999999995E-003     4.0386351316202218E-002
  -1.4999999999999979E-003     5.7443228711928140E-002
  -1.1999999999999997E-003     8.0453689227609870E-002
  -8.9999999999999976E-004    0.11084020326542010     
  -5.9999999999999810E-004    0.15037020725770445     
  -2.9999999999999992E-004    0.20072983915939702     
   0.0000000000000000         0.26317780295785154     
   3.0000000000000165E-004    0.33880447415495940     
   5.9999999999999984E-004    0.42814948039434864     
   9.0000000000000149E-004    0.53008502196459339     
   1.2000000000000031E-003    0.64166420679795522     
   1.5000000000000013E-003    0.75824132532160604     
   1.8000000000000030E-003    0.87232065441590478     
   2.1000000000000012E-003    0.97267494031180135     
   2.3999999999999994E-003     1.0448398605207458     
   2.7000000000000010E-003     1.0712867821213159     
   2.9999999999999992E-003     1.0308987831005183     
   3.3000000000000008E-003    0.89991809046799176     
   3.6000000000000025E-003    0.65445131416218594     
   3.9000000000000007E-003    0.27205449477206234     
   4.2000000000000023E-003   -0.26664444337335880     
   4.5000000000000005E-003   -0.97423519967738059     
   4.7999999999999987E-003    -1.8528570948501155     
   5.1000000000000004E-003    -2.8917378351627079     
   5.4000000000000020E-003    -4.0646560291020322     
   5.7000000000000037E-003    -5.3278621398781567     
   5.9999999999999984E-003    -6.6195382151884132     
   6.3000000000000000E-003    -7.8612888741731552     
   6.6000000000000017E-003    -8.9612637504488362     
   6.9000000000000034E-003    -9.8189158767289939     
   7.2000000000000015E-003    -10.331535584836644     
   7.5000000000000032E-003    -10.402405878517015     
   7.8000000000000014E-003    -9.9498943912248592     
   8.0999999999999996E-003    -8.9159364334248039     
   8.4000000000000012E-003    -7.2732222008415022     
   8.7000000000000029E-003    -5.0310008765438567     
   9.0000000000000011E-003    -2.2389392137655832     
   9.2999999999999992E-003     1.0135529438271362     
   9.6000000000000009E-003     4.6014182068348362     
   9.8999999999999991E-003     8.3698972990243021     
   1.0200000000000001E-002     12.144594807733284     
   1.0500000000000002E-002     15.743361020941173     
   1.0800000000000004E-002     18.988269114964254     
   1.1099999999999999E-002     21.718175477842635     
   1.1400000000000000E-002     23.798537140237784     
   1.1700000000000002E-002     25.129212029022199     
   1.2000000000000004E-002     25.649211498095610     
   1.2300000000000002E-002     25.336088058530777     
   1.2600000000000000E-002     24.203914336973412     
   1.2900000000000002E-002     22.296934678328057     
   1.3200000000000000E-002     19.680502580312691     
   1.3500000000000002E-002     16.433518877831659     
   1.3800000000000003E-002     12.639580925754331     
   1.4100000000000001E-002     8.3807929682692759     
   1.4400000000000000E-002     3.7353728650812634     
   1.4700000000000001E-002    -1.2227997550832583     
   1.4999999999999999E-002    -6.4196936901264507     
   1.5300000000000001E-002    -11.774853439649206     
   1.5600000000000003E-002    -17.192923806698090     
   1.5899999999999997E-002    -22.554381051639286     
   1.6199999999999999E-002    -27.709613357309223     
   1.6500000000000001E-002    -32.475846420972317     
   1.6800000000000002E-002    -36.637656288982726     
   1.7100000000000004E-002    -39.956180309952856     
   1.7400000000000006E-002    -42.184140861615333     
   1.7700000000000000E-002    -43.083581449136432     
   1.8000000000000002E-002    -42.449860788642468     
   1.8300000000000004E-002    -40.137572119521565     
   1.8600000000000005E-002    -36.083172139841736     
   1.8900000000000000E-002    -30.322951369031443     
   1.9200000000000002E-002    -23.005317726592523     
   1.9500000000000003E-002    -14.392747528698408     
   1.9799999999999998E-002    -4.8535455833374499     
   2.0100000000000000E-002     5.1606726692866118     
   2.0400000000000001E-002     15.140698101648013     
   2.0700000000000003E-002     24.555630885803794     
   2.0999999999999998E-002     32.895760918919677     
   2.1299999999999999E-002     39.708755794663830     
   2.1600000000000001E-002     44.635398968410527     
   2.1900000000000003E-002     47.437172967026243     
   2.2200000000000004E-002     48.013795516589823     
   2.2500000000000006E-002     46.409781467028552     
   2.2800000000000001E-002     42.803372668295992     
   2.3100000000000002E-002     37.490493987486730     
   2.3400000000000004E-002     30.860341083000890     
   2.3699999999999999E-002     23.358348193576319     
   2.4000000000000000E-002     15.450741156107853     
   2.4300000000000002E-002     7.5904581358044823     
   2.4599999999999997E-002    0.18625362919144095     
   2.4900000000000005E-002    -6.4230741829728686     
   2.5200000000000000E-002    -11.985482328165858     
   2.5499999999999995E-002    -16.343357337604175     
   2.5800000000000003E-002    -19.433936325957006     
   2.6099999999999998E-002    -21.279226585552124     
   2.6400000000000007E-002    -21.974940688982372     
   2.6700000000000002E-002    -21.672461908249886     
   2.6999999999999996E-002    -20.558199124228921     
   2.7300000000000005E-002    -18.836277488012456     
   2.7600000000000000E-002    -16.708795419389332     
   2.7900000000000008E-002    -14.364580732940453     
   2.8200000000000003E-002    -11.967547352389317     
   2.8499999999999998E-002    -9.6478132055261483     
   2.8800000000000006E-002    -7.5032568214115258     
   2.9100000000000001E-002    -5.5968690049617891     
   2.9400000000000003E-002    -3.9612441333150485     
   2.9700000000000004E-002    -2.6038632491990228     
   3.0000000000000006E-002    -1.5104330088911055     
   3.0300000000000001E-002   -0.65466035320798488     
   3.0600000000000002E-002    -1.2160309998492380E-003
   3.0900000000000004E-002    0.48977977696851482     
   3.1199999999999999E-002    0.85731567189990798     
   3.1500000000000007E-002     1.1372742810742551     
   3.1800000000000002E-002     1.3607209297574272     
   3.2099999999999997E-002     1.5545371434622517     
   3.2400000000000005E-002     1.7381412017197242     
   3.2700000000000000E-002     1.9247896693028252     
   3.3000000000000002E-002     2.1228365571363810     
   3.3300000000000003E-002     2.3344589168355867     
   3.3599999999999998E-002     2.5577952916509332     
   3.3900000000000000E-002     2.7856261148194079     
   3.4200000000000001E-002     3.0085395446136118     
   3.4500000000000003E-002     3.2142813417493983     
   3.4799999999999998E-002     3.3878090627199242     
   3.5099999999999999E-002     3.5163638793491572     
   3.5400000000000001E-002     3.5857397842491991     
   3.5699999999999996E-002     3.5845131868329787     
   3.6000000000000004E-002     3.5060719801251707     
   3.6299999999999999E-002     3.3450003440885894     
   3.6600000000000008E-002     3.1028210261527249     
   3.6900000000000002E-002     2.7860787528857855     
   3.7199999999999997E-002     2.4046541526053034     
   3.7500000000000006E-002     1.9740923361535678     
   3.7800000000000000E-002     1.5119849502236917     
   3.8100000000000009E-002     1.0396311202728796     
   3.8400000000000004E-002    0.57849613308942338     
   3.8699999999999998E-002    0.14871765180742802     
   3.9000000000000007E-002   -0.22985534106118433     
   3.9300000000000002E-002   -0.54108516380636829     
   3.9600000000000003E-002   -0.77409241278936491     
   3.9900000000000005E-002   -0.92191159820874446     
   4.0200000000000000E-002   -0.98303870245869263     
   4.0500000000000001E-002   -0.96260790545377262     
   4.0800000000000003E-002   -0.87069073669238506     
   4.1100000000000005E-002   -0.72102452532551453     
   4.1399999999999999E-002   -0.53279544136451840     
   4.1700000000000008E-002   -0.32653567345245005     
   4.2000000000000003E-002   -0.12346049723466290     
   4.2299999999999997E-002     5.5855348809079164E-002
   4.2600000000000006E-002    0.19510237556267995     
   4.2900000000000001E-002    0.28079674599473936     
   4.3200000000000002E-002    0.30672969736410938     
   4.3500000000000004E-002    0.27297967629214437     
   4.3799999999999999E-002    0.18426782750948911     
   4.4100000000000000E-002     5.4514180745622642E-002
   4.4400000000000002E-002    -9.9410102210597984E-002
   4.4700000000000004E-002   -0.25852886686821819     
   4.4999999999999998E-002   -0.40053005639843953     
   4.5300000000000000E-002   -0.50719472551977551     
   4.5600000000000002E-002   -0.56223749673269330     
   4.5899999999999996E-002   -0.55511026285249976     
   4.6200000000000005E-002   -0.48398008002793436     
   4.6500000000000000E-002   -0.35192653937010654     
   4.6799999999999994E-002   -0.17044729150133775     
   4.7100000000000003E-002     4.2101978834594211E-002
   4.7399999999999998E-002    0.26406932210823530     
   4.7700000000000006E-002    0.47031017252561469     
   4.8000000000000001E-002    0.63597610443508756     
   4.8300000000000010E-002    0.73907193848315877     
   4.8600000000000004E-002    0.76118355430877749     
   4.8899999999999999E-002    0.69100113149116993     
   4.9200000000000008E-002    0.52529329306232375     
   4.9500000000000002E-002    0.26718307646910811     
   4.9800000000000011E-002    -7.0941638204016222E-002
   5.0100000000000006E-002   -0.46991360972493013     
   5.0400000000000000E-002   -0.90635571717328745     
   5.0700000000000009E-002    -1.3510324220504089     
   5.1000000000000004E-002    -1.7751906019497241     
   5.1299999999999998E-002    -2.1510106636714710     
   5.1600000000000007E-002    -2.4524815054581097     
   5.1900000000000002E-002    -2.6595348970601691     
   5.2200000000000010E-002    -2.7575885828593698     
   5.2500000000000005E-002    -2.7396826395553688     
   5.2800000000000000E-002    -2.6070519644084840     
   5.3099999999999994E-002    -2.3657714195884125     
   5.3400000000000003E-002    -2.0306286218289884     
   5.3699999999999998E-002    -1.6221081182887360     
   5.4000000000000006E-002    -1.1618399301728388     
   5.4300000000000001E-002   -0.67501109489008826     
   5.4599999999999996E-002   -0.18775493734183168     
   5.4900000000000004E-002    0.27693965103429807     
   5.5199999999999999E-002    0.69792922857997119     
   5.5499999999999994E-002     1.0582191253453921     
   5.5800000000000002E-002     1.3464338599352530     
   5.6099999999999997E-002     1.5556420812665479     
   5.6400000000000006E-002     1.6858760708813065     
   5.6700000000000000E-002     1.7407504378334480     
   5.6999999999999995E-002     1.7283012693633921     
   5.7300000000000004E-002     1.6619205870700497     
   5.7599999999999998E-002     1.5544243240201965     
   5.7900000000000007E-002     1.4200659692014099     
   5.8200000000000002E-002     1.2741083402981914     
   5.8499999999999996E-002     1.1271183969909728     
   5.8800000000000005E-002    0.98825068380565639     
   5.9100000000000000E-002    0.86332673392983850     
   5.9400000000000008E-002    0.75282614964575245     
   5.9700000000000003E-002    0.65611587589549103     
   6.0000000000000012E-002    0.56909951741687337     
   6.0300000000000006E-002    0.48659315025824235     
   6.0600000000000001E-002    0.40479488516348905     
   6.0900000000000010E-002    0.32008789161060980     
   6.1200000000000004E-002    0.23425095708174370     
   6.1500000000000013E-002    0.15239848704037451     
   6.1800000000000008E-002     8.1753956319349896E-002
   6.2100000000000002E-002     3.5198897643460486E-002
   6.2399999999999997E-002     2.6641482434593577E-002
   6.2700000000000006E-002     6.8258898314977667E-002
   6.3000000000000000E-002    0.17050079351415537     
   6.3300000000000009E-002    0.33752076726314506     
   6.3600000000000004E-002    0.56605056341707183     
   6.3899999999999998E-002    0.84456470215553026     
   6.4199999999999993E-002     1.1507793960981658     
   6.4500000000000002E-002     1.4549285459466219     
   6.4800000000000010E-002     1.7223485692707285     
   6.5100000000000005E-002     1.9146080097626665     
   6.5400000000000000E-002     1.9958437209004245     
   6.5700000000000008E-002     1.9370372035034080     
   6.5999999999999989E-002     1.7183930008896411     
   6.6299999999999998E-002     1.3361059199389516     
   6.6600000000000006E-002    0.80048702442587860     
   6.6900000000000001E-002    0.13839246864414001     
   6.7199999999999996E-002   -0.60730893043303169     
   6.7500000000000004E-002    -1.3852355144164168     
   6.7800000000000013E-002    -2.1359165014629240     
   6.8099999999999994E-002    -2.7984820030512267     
   6.8400000000000002E-002    -3.3202672903278767     
   6.8700000000000011E-002    -3.6585352967230449     
   6.8999999999999992E-002    -3.7861700539376670     
   6.9300000000000000E-002    -3.6952416669503663     
   6.9600000000000009E-002    -3.3972798209552906     
   6.9900000000000004E-002    -2.9234973883695687     
   7.0199999999999999E-002    -2.3197412038112688     
   7.0500000000000007E-002    -1.6415179239408957     
   7.0800000000000016E-002   -0.95091130239127075     
   7.1099999999999997E-002   -0.30667701922317248     
   7.1400000000000005E-002    0.24088761949597703     
   7.1700000000000000E-002    0.65206187203420640     
   7.1999999999999995E-002    0.90586413129750554     
   7.2300000000000003E-002    0.99867785663624176     
   7.2600000000000012E-002    0.94254219165789266     
   7.2900000000000006E-002    0.76667463229580513     
   7.3200000000000001E-002    0.50985279742876655     
   7.3499999999999996E-002    0.21747143972579508     
   7.3800000000000004E-002    -6.4343171882924821E-002
   7.4099999999999999E-002   -0.29560563595000744     
   7.4400000000000008E-002   -0.44243364001692598     
   7.4700000000000003E-002   -0.48401087346729454     
   7.5000000000000011E-002   -0.41351679286659504     
   7.5299999999999992E-002   -0.23553390427728349     
   7.5600000000000001E-002     3.2368498661848655E-002
   7.5900000000000009E-002    0.36357096795978094     
   7.6200000000000004E-002    0.72680908222403673     
   7.6499999999999999E-002     1.0872600205611889     
   7.6800000000000007E-002     1.4123343367977093     
   7.7099999999999988E-002     1.6738535287975296     
   7.7399999999999997E-002     1.8502603137804208     
   7.7700000000000005E-002     1.9288747265789474     
   7.8000000000000014E-002     1.9052799468496886     
   7.8299999999999995E-002     1.7832314782684691     
   7.8600000000000003E-002     1.5757900640162301     
   7.8900000000000012E-002     1.3015512220566805     
   7.9199999999999993E-002    0.98250072857400639     
   7.9500000000000001E-002    0.64413228233671660     
   7.9800000000000010E-002    0.31148731654791106     
   8.0100000000000018E-002     8.0657310149088168E-003
   8.0399999999999999E-002   -0.24560651591963101     
   8.0700000000000008E-002   -0.43485478568858227     
   8.1000000000000003E-002   -0.55018654107186116     
   8.1299999999999997E-002   -0.58786905229284869     
   8.1600000000000006E-002   -0.55188322884721952     
   8.1900000000000014E-002   -0.45056108345353962     
   8.2199999999999995E-002   -0.29870538600512297     
   8.2500000000000004E-002   -0.11462903053030260     
   8.2799999999999999E-002     8.3351814295477222E-002
   8.3100000000000007E-002    0.27388994495877661     
   8.3400000000000002E-002    0.43732973787956908     
   8.3700000000000011E-002    0.55867311351328297     
   8.4000000000000005E-002    0.62567843249144772     
   8.4300000000000000E-002    0.63214568794996140     
   8.4599999999999995E-002    0.57602975291270297     
   8.4900000000000003E-002    0.46120098945504573     
   8.5199999999999998E-002    0.29681054302888654     
   8.5500000000000007E-002     9.3387251354779544E-002
   8.5800000000000001E-002   -0.13561746474475744     
   8.6100000000000010E-002   -0.37533440794541306     
   8.6399999999999991E-002   -0.61354156761955991     
   8.6699999999999999E-002   -0.83869274263574312     
   8.7000000000000008E-002    -1.0412048823814359     
   8.7300000000000003E-002    -1.2158898071480237     
   8.7599999999999997E-002    -1.3596115304467702     
   8.7900000000000006E-002    -1.4709446734543050     
   8.8200000000000014E-002    -1.5502636972037607     
   8.8499999999999995E-002    -1.5986813056998344     
   8.8800000000000004E-002    -1.6178985888197488     
   8.9100000000000013E-002    -1.6083748516360288     
   8.9399999999999993E-002    -1.5691257046313751     
   8.9700000000000002E-002    -1.5004564281658404     
   9.0000000000000011E-002    -1.3999997835847182     
   9.0299999999999991E-002    -1.2660738968201244     
   9.0600000000000000E-002    -1.0980044991182965     
   9.0900000000000009E-002   -0.89560828873661436     
   9.1200000000000017E-002   -0.65995341345556824     
   9.1499999999999998E-002   -0.39503747347113993     
   9.1800000000000007E-002   -0.10699292232806501     
   9.2100000000000001E-002    0.19669893097496560     
   9.2399999999999996E-002    0.50704869986840251     
   9.2700000000000005E-002    0.81331218831904550     
   9.3000000000000013E-002     1.1033091464562332     
   9.3300000000000008E-002     1.3665166745077357     
   9.3600000000000003E-002     1.5931579738032084     
   9.3899999999999997E-002     1.7730514384353242     
   9.4200000000000006E-002     1.8992543120171206     
   9.4500000000000001E-002     1.9675557977584930     
   9.4800000000000009E-002     1.9745258990227157     
   9.5100000000000004E-002     1.9214393500530420     
   9.5399999999999999E-002     1.8112932981158210     
   9.5699999999999993E-002     1.6493579404675316     
   9.6000000000000002E-002     1.4441484302791636     
   9.6300000000000011E-002     1.2056486600440905     
   9.6600000000000005E-002    0.94596220131820274     
   9.6900000000000000E-002    0.67689726128197591     
   9.7200000000000009E-002    0.41011959768981932     
   9.7499999999999989E-002    0.15820789943069480     
   9.7799999999999998E-002    -6.9084814078639978E-002
   9.8100000000000007E-002   -0.26481801989794640     
   9.8400000000000015E-002   -0.42382564386481647     
   9.8699999999999996E-002   -0.54470495699167287     
   9.9000000000000005E-002   -0.62822513772601596     
   9.9300000000000013E-002   -0.67780915607055192     
   9.9599999999999994E-002   -0.70053669582277678     
   9.9900000000000003E-002   -0.70298685445942510     
  0.10020000000000001        -0.69206606520016223     
  0.10049999999999999        -0.67465602456157114     
  0.10080000000000000        -0.65533331978366149     
  0.10110000000000001        -0.63738014564354017     
  0.10140000000000000        -0.62133341240247120     
  0.10170000000000000        -0.60474202239850783     
  0.10200000000000001        -0.58439943786444104     
  0.10230000000000002        -0.55564358129359448     
  0.10260000000000000        -0.51379434200869589     
  0.10290000000000001        -0.45506341798820671     
  0.10320000000000000        -0.37647078883220608     
  0.10350000000000001        -0.27897284835515812     
  0.10380000000000000        -0.16648664594716900     
  0.10410000000000001         -4.4147309844287164E-002
  0.10440000000000001          7.9792755897615475E-002
  0.10470000000000000         0.19445144024850070     
  0.10500000000000000         0.28984378119272058     
  0.10530000000000000         0.35536272773914312     
  0.10560000000000000         0.38319679676806651     
  0.10590000000000001         0.36752280047412178     
  0.10620000000000000         0.30576103120509579     
  0.10650000000000001         0.20008488394892332     
  0.10679999999999999          5.5509502884923290E-002
  0.10710000000000000        -0.11869077152181018     
  0.10740000000000001        -0.31010040726173305     
  0.10770000000000000        -0.50603110761891301     
  0.10800000000000000        -0.69200138065102124     
  0.10830000000000001        -0.85377744910380571     
  0.10859999999999999        -0.97872341382940320     
  0.10890000000000000         -1.0568511784017218     
  0.10920000000000001         -1.0806918737286324     
  0.10950000000000001         -1.0466899373511396     
  0.10979999999999999        -0.95498619405951857     
  0.11009999999999999        -0.80894528120600029     
  0.11040000000000001        -0.61558012776879423     
  0.11070000000000001        -0.38418850519087577     
  0.11100000000000000        -0.12715041322163145     
  0.11130000000000000         0.14258885838936919     
  0.11160000000000002         0.41192157810348462     
  0.11190000000000001         0.66596364233931382     
  0.11220000000000001         0.89275729783973645     
  0.11250000000000000          1.0826080949143488     
  0.11280000000000000          1.2269617890251396     
  0.11309999999999999          1.3211136780690325     
  0.11340000000000001          1.3626483076052978     
  0.11369999999999998          1.3533390811091408     
  0.11400000000000000          1.2979885341883772     
  0.11430000000000000          1.2025028044873096     
  0.11460000000000002          1.0752061795190784     
  0.11489999999999999         0.92567235820811078     
  0.11520000000000001         0.76271978864735246     
  0.11550000000000001         0.59526649095380790     
  0.11580000000000000         0.42982527385431979     
  0.11609999999999999         0.27147201697279044     
  0.11640000000000002         0.12454633420386552     
  0.11670000000000001         -9.9243461881483030E-003
  0.11700000000000001        -0.13173078591512688     
  0.11730000000000000        -0.24101136151359981     
  0.11760000000000000        -0.33935083954354006     
  0.11789999999999999        -0.42653401267943281     
  0.11820000000000001        -0.50249929408155758     
  0.11850000000000001        -0.56636301453019300     
  0.11880000000000000        -0.61526947621630868     
  0.11910000000000000        -0.64694028134940851     
  0.11940000000000002        -0.65749796126519300     
  0.11970000000000001        -0.64361849592171794     
  0.12000000000000001        -0.60372994672209046     
  0.12030000000000000        -0.53673687745114051     
  0.12060000000000000        -0.44311090284064569     
  0.12089999999999999        -0.32609519170512158     
  0.12119999999999999        -0.19070029354155604     
  0.12150000000000001         -4.4536093461725934E-002
  0.12180000000000001         0.10423934885137953     
  0.12210000000000000         0.24695775890342908     
  0.12239999999999999         0.37354582088831911     
  0.12270000000000002         0.47502549685848550     
  0.12300000000000001         0.54441892131260516     
  0.12330000000000001         0.57556338772825200     
  0.12360000000000000         0.56529798501500395     
  0.12390000000000000         0.51224947550577227     
  0.12419999999999999         0.41833611319034247     
  0.12450000000000001         0.28776266472429768     
  0.12480000000000001         0.12646035569994529     
  0.12509999999999999         -5.7297884612721450E-002
  0.12540000000000001        -0.25444904139452734     
  0.12570000000000003        -0.45509399842048381     
  0.12600000000000000        -0.64890418471732580     
  0.12630000000000002        -0.82592636687973453     
  0.12659999999999999        -0.97827869556237701     
  0.12690000000000001         -1.0989005051523293     
  0.12719999999999998         -1.1818102537719710     
  0.12750000000000000         -1.2246848257805922     
  0.12780000000000002         -1.2270817972455461     
  0.12809999999999999         -1.1903395992169692     
  0.12840000000000001         -1.1183845095134757     
  0.12869999999999998         -1.0157250261911486     
  0.12900000000000000        -0.88946848705584713     
  0.12930000000000003        -0.74534439955545295     
  0.12959999999999999        -0.58945449906580905     
  0.12990000000000002        -0.42771062433945062     
  0.13019999999999998        -0.26312767671277459     
  0.13050000000000000         -9.8240015217612608E-002
  0.13080000000000003          6.5645345318971371E-002
  0.13109999999999999         0.22944577253063780     
  0.13140000000000002         0.39403957778825571     
  0.13169999999999998         0.56050966236603372     
  0.13200000000000001         0.72891943161742390     
  0.13229999999999997         0.89846878707159306     
  0.13260000000000000          1.0670508629358366     
  0.13290000000000002          1.2296493162385644     
  0.13319999999999999          1.3797898709906562     
  0.13350000000000001          1.5108367834950016     
  0.13380000000000003          1.6143836613891480     
  0.13410000000000000          1.6819112802991327     
  0.13440000000000002          1.7076832407611704     
  0.13469999999999999          1.6866609628031313     
  0.13500000000000001          1.6166705889952695     
  0.13529999999999998          1.4987479903208296     
  0.13560000000000000          1.3378157670386059     
  0.13590000000000002          1.1413927043334553     
  0.13619999999999999         0.91833650411840395     
  0.13650000000000001         0.68025747789315361     
  0.13680000000000003         0.43993653417189904     
  0.13710000000000000         0.20881561935030324     
  0.13740000000000002         -2.3224773421101075E-003
  0.13769999999999999        -0.18436928829452714     
  0.13800000000000001        -0.33101499557719194     
  0.13829999999999998        -0.43884358594394435     
  0.13860000000000000        -0.50678381949025564     
  0.13890000000000002        -0.53755902351538865     
  0.13919999999999999        -0.53599500239181097     
  0.13950000000000001        -0.50907120931026029     
  0.13979999999999998        -0.46571345691441302     
  0.14010000000000000        -0.41526040683494791     
  0.14040000000000002        -0.36883650178825356     
  0.14069999999999999        -0.33588414607141637     
  0.14100000000000001        -0.32488049803286323     
  0.14130000000000004        -0.34353117900788810     
  0.14160000000000000        -0.39632861716937029     
  0.14189999999999997        -0.48609559767002697     
  0.14219999999999999        -0.61227999467191108     
  0.14250000000000002        -0.77069607718002686     
  0.14279999999999998        -0.95567983675478985     
  0.14310000000000000         -1.1586450338004113     
  0.14339999999999997         -1.3691000940330866     
  0.14369999999999999         -1.5754009196791969     
  0.14400000000000002         -1.7665099917590723     
  0.14429999999999998         -1.9315930981406595     
  0.14460000000000001         -2.0614049819376916     
  0.14490000000000003         -2.1483456984046185     
  0.14520000000000000         -2.1869859390787170     
  0.14550000000000002         -2.1750173614554811     
  0.14579999999999999         -2.1124080815348307     
  0.14610000000000001         -2.0005999402108046     
  0.14640000000000003         -1.8420508580538026     
  0.14670000000000000         -1.6407228919533807     
  0.14699999999999996         -1.4018853080332150     
  0.14729999999999999         -1.1290132019460728     
  0.14760000000000001        -0.82572688998508781     
  0.14789999999999998        -0.49625255401650570     
  0.14820000000000000        -0.14390412509707495     