  -1.4999999999999999E-002     0.0000000000000000     
  -1.4700000000000000E-002     0.0000000000000000     
  -1.4400000000000000E-002     0.0000000000000000     
  -1.4100000000000000E-002     0.0000000000000000     
  -1.3800000000000000E-002     0.0000000000000000     
  -1.3500000000000000E-002     0.0000000000000000     
  -1.3200000000000000E-002     0.0000000000000000     
  -1.2899999999999998E-002     0.0000000000000000     
  -1.2600000000000000E-002     0.0000000000000000     
  -1.2299999999999998E-002     0.0000000000000000     
  -1.2000000000000000E-002     0.0000000000000000     
  -1.1699999999999999E-002     0.0000000000000000     
  -1.1399999999999999E-002     0.0000000000000000     
  -1.1099999999999999E-002     0.0000000000000000     
  -1.0799999999999999E-002     0.0000000000000000     
  -1.0499999999999999E-002     0.0000000000000000     
  -1.0199999999999999E-002     0.0000000000000000     
  -9.8999999999999991E-003     0.0000000000000000     
  -9.5999999999999992E-003     0.0000000000000000     
  -9.2999999999999992E-003     0.0000000000000000     
  -8.9999999999999993E-003     0.0000000000000000     
  -8.6999999999999994E-003     0.0000000000000000     
  -8.3999999999999995E-003     0.0000000000000000     
  -8.0999999999999996E-003     0.0000000000000000     
  -7.7999999999999988E-003     0.0000000000000000     
  -7.4999999999999997E-003     0.0000000000000000     
  -7.1999999999999998E-003     0.0000000000000000     
  -6.8999999999999981E-003     0.0000000000000000     
  -6.5999999999999982E-003     0.0000000000000000     
  -6.3000000000000000E-003     0.0000000000000000     
  -6.0000000000000001E-003     0.0000000000000000     
  -5.6999999999999985E-003     0.0000000000000000     
  -5.3999999999999986E-003     0.0000000000000000     
  -5.1000000000000004E-003     0.0000000000000000     
  -4.7999999999999987E-003     0.0000000000000000     
  -4.5000000000000005E-003     0.0000000000000000     
  -4.1999999999999989E-003     0.0000000000000000     
  -3.8999999999999990E-003     0.0000000000000000     
  -3.5999999999999990E-003     0.0000000000000000     
  -3.2999999999999991E-003     0.0000000000000000     
  -2.9999999999999992E-003     0.0000000000000000     
  -2.6999999999999993E-003     0.0000000000000000     
  -2.3999999999999994E-003     0.0000000000000000     
  -2.0999999999999977E-003     0.0000000000000000     
  -1.7999999999999995E-003     0.0000000000000000     
  -1.4999999999999979E-003     0.0000000000000000     
  -1.1999999999999997E-003     0.0000000000000000     
  -8.9999999999999976E-004     0.0000000000000000     
  -5.9999999999999810E-004     0.0000000000000000     
  -2.9999999999999992E-004     0.0000000000000000     
   0.0000000000000000          0.0000000000000000     
   3.0000000000000165E-004     0.0000000000000000     
   5.9999999999999984E-004     0.0000000000000000     
   9.0000000000000149E-004     0.0000000000000000     
   1.2000000000000031E-003     0.0000000000000000     
   1.5000000000000013E-003     0.0000000000000000     
   1.8000000000000030E-003     0.0000000000000000     
   2.1000000000000012E-003     0.0000000000000000     
   2.3999999999999994E-003     0.0000000000000000     
   2.7000000000000010E-003     0.0000000000000000     
   2.9999999999999992E-003     0.0000000000000000     
   3.3000000000000008E-003     0.0000000000000000     
   3.6000000000000025E-003     0.0000000000000000     
   3.9000000000000007E-003     0.0000000000000000     
   4.2000000000000023E-003     0.0000000000000000     
   4.5000000000000005E-003     0.0000000000000000     
   4.7999999999999987E-003     0.0000000000000000     
   5.1000000000000004E-003     0.0000000000000000     
   5.4000000000000020E-003     0.0000000000000000     
   5.7000000000000037E-003     0.0000000000000000     
   5.9999999999999984E-003     0.0000000000000000     
   6.3000000000000000E-003     0.0000000000000000     
   6.6000000000000017E-003     0.0000000000000000     
   6.9000000000000034E-003     0.0000000000000000     
   7.2000000000000015E-003     0.0000000000000000     
   7.5000000000000032E-003     0.0000000000000000     
   7.8000000000000014E-003     0.0000000000000000     
   8.0999999999999996E-003     0.0000000000000000     
   8.4000000000000012E-003     0.0000000000000000     
   8.7000000000000029E-003     0.0000000000000000     
   9.0000000000000011E-003     0.0000000000000000     
   9.2999999999999992E-003     0.0000000000000000     
   9.6000000000000009E-003     0.0000000000000000     
   9.8999999999999991E-003     0.0000000000000000     
   1.0200000000000001E-002     0.0000000000000000     
   1.0500000000000002E-002     0.0000000000000000     
   1.0800000000000004E-002     0.0000000000000000     
   1.1099999999999999E-002     0.0000000000000000     
   1.1400000000000000E-002     0.0000000000000000     
   1.1700000000000002E-002     0.0000000000000000     
   1.2000000000000004E-002     0.0000000000000000     
   1.2300000000000002E-002     0.0000000000000000     
   1.2600000000000000E-002    -1.9665728481077680E-036
   1.2900000000000002E-002     2.8852371087688810E-035
   1.3200000000000000E-002     6.9814073123555673E-035
   1.3500000000000002E-002    -1.0453289226198586E-033
   1.3800000000000003E-002     8.9161062838878191E-035
   1.4100000000000001E-002     3.5108522102103909E-032
   1.4400000000000000E-002    -1.3386515561232000E-031
   1.4700000000000001E-002    -1.8676447026938039E-031
   1.4999999999999999E-002     3.3506561809736913E-030
   1.5300000000000001E-002    -1.2077863279218621E-029
   1.5600000000000003E-002     2.7090311153683146E-030
   1.5899999999999997E-002     1.7711446399455350E-028
   1.6199999999999999E-002    -9.7633497046054856E-028
   1.6500000000000001E-002     2.7941330003411797E-027
   1.6800000000000002E-002    -2.2849962787659089E-027
   1.7100000000000004E-002    -2.5095572836097307E-026
   1.7400000000000006E-002     1.9332526689994663E-025
   1.7700000000000000E-002    -9.3557029814562100E-025
   1.8000000000000002E-002     3.4852533491520161E-024
   1.8300000000000004E-002    -8.8659382940192922E-024
   1.8600000000000005E-002     4.4331142974162068E-025
   1.8900000000000000E-002     1.6699937976748943E-022
   1.9200000000000002E-002    -1.2721390576470050E-021
   1.9500000000000003E-002     6.5599106114120370E-021
   1.9799999999999998E-002    -2.7151964500157317E-020
   2.0100000000000000E-002     9.4364479936713832E-020
   2.0400000000000001E-002    -2.7539267265060837E-019
   2.0700000000000003E-002     6.4156138649370483E-019
   2.0999999999999998E-002    -9.6532039523484271E-019
   2.1299999999999999E-002    -3.6709944712858347E-019
   2.1600000000000001E-002     7.1762136760099171E-018
   2.1900000000000003E-002    -5.0753750978334647E-018
   2.2200000000000004E-002    -2.3529355017884825E-016
   2.2500000000000006E-002     2.3763740151697523E-015
   2.2800000000000001E-002    -1.5439081287840946E-014
   2.3100000000000002E-002     7.9040371253266684E-014
   2.3400000000000004E-002    -3.3304107627078749E-013
   2.3699999999999999E-002     1.1420370942330504E-012
   2.4000000000000000E-002    -2.9678935090787784E-012
   2.4300000000000002E-002     4.3666363927497009E-012
   2.4599999999999997E-002     5.9473554553379770E-012
   2.4900000000000005E-002    -6.3077598699834425E-011
   2.5200000000000000E-002     2.0700914593607678E-010
   2.5499999999999995E-002    -3.0075139600960199E-010
   2.5800000000000003E-002    -3.5805292064594596E-010
   2.6099999999999998E-002     2.7007409642010316E-009
   2.6400000000000007E-002    -4.4684376199199960E-009
   2.6700000000000002E-002    -3.9140748420152249E-009
   2.6999999999999996E-002     2.5055717500777064E-008
   2.7300000000000005E-002    -1.5161607080926842E-008
   2.7600000000000000E-002    -7.6042425689593074E-008
   2.7900000000000008E-002     8.1119054584632977E-008
   2.8200000000000003E-002     2.1660193283423723E-007
   2.8499999999999998E-002    -1.8589162209536880E-007
   2.8800000000000006E-002    -7.1525414568895940E-007
   2.9100000000000001E-002     4.3814324612867495E-008
   2.9400000000000003E-002     2.9600475954794092E-006
   2.9700000000000004E-002     7.3388873715884984E-006
   3.0000000000000006E-002     1.2278751455596648E-005
   3.0300000000000001E-002     1.8500662918086164E-005
   3.0600000000000002E-002     2.8207772629684769E-005
   3.0900000000000004E-002     4.4243184674996883E-005
   3.1199999999999999E-002     6.9890746090095490E-005
   3.1500000000000007E-002     1.0902003850787878E-004
   3.1800000000000002E-002     1.6672162746544927E-004
   3.2099999999999997E-002     2.5035737780854106E-004
   3.2400000000000005E-002     3.7102197529748082E-004
   3.2700000000000000E-002     5.4463389096781611E-004
   3.3000000000000002E-002     7.9132901737466455E-004
   3.3300000000000003E-002     1.1345662642270327E-003
   3.3599999999999998E-002     1.6019380418583751E-003
   3.3900000000000000E-002     2.2272907663136721E-003
   3.4200000000000001E-002     3.0514225363731384E-003
   3.4500000000000003E-002     4.1194315999746323E-003
   3.4799999999999998E-002     5.4770377464592457E-003
   3.5099999999999999E-002     7.1677681989967823E-003
   3.5400000000000001E-002     9.2289289459586143E-003
   3.5699999999999996E-002     1.1685118079185486E-002
   3.6000000000000004E-002     1.4538750052452087E-002
   3.6299999999999999E-002     1.7760783433914185E-002
   3.6600000000000008E-002     2.1281277760863304E-002
   3.6900000000000002E-002     2.4977957829833031E-002
   3.7199999999999997E-002     2.8667140752077103E-002
   3.7500000000000006E-002     3.2098513096570969E-002
   3.7800000000000000E-002     3.4956764429807663E-002
   3.8100000000000009E-002     3.6866635084152222E-002
   3.8400000000000004E-002     3.7403281778097153E-002
   3.8699999999999998E-002     3.6116320639848709E-002
   3.9000000000000007E-002     3.2563906162977219E-002
   3.9300000000000002E-002     2.6358230039477348E-002
   3.9600000000000003E-002     1.7205923795700073E-002
   3.9900000000000005E-002     4.9593592993915081E-003
   4.0200000000000000E-002    -1.0334531776607037E-002
   4.0500000000000001E-002    -2.8390770778059959E-002
   4.0800000000000003E-002    -4.8661932349205017E-002
   4.1100000000000005E-002    -7.0335075259208679E-002
   4.1399999999999999E-002    -9.2342220246791840E-002
   4.1700000000000008E-002   -0.11340865492820740     
   4.2000000000000003E-002   -0.13211989402770996     
   4.2299999999999997E-002   -0.14702689647674561     
   4.2600000000000006E-002   -0.15674169361591339     
   4.2900000000000001E-002   -0.16006098687648773     
   4.3200000000000002E-002   -0.15608988702297211     
   4.3500000000000004E-002   -0.14432473480701447     
   4.3799999999999999E-002   -0.12474232167005539     
   4.4100000000000000E-002    -9.7813069820404053E-002
   4.4400000000000002E-002    -6.4501598477363586E-002
   4.4700000000000004E-002    -2.6211710646748543E-002
   4.4999999999999998E-002     1.5306078828871250E-002
   4.5300000000000000E-002     5.8082256466150284E-002
   4.5600000000000002E-002    0.10009042173624039     
   4.5899999999999996E-002    0.13936799764633179     
   4.6200000000000005E-002    0.17419466376304626     
   4.6500000000000000E-002    0.20318241417407990     
   4.6799999999999994E-002    0.22536341845989227     
   4.7100000000000003E-002    0.24025507271289825     
   4.7399999999999998E-002    0.24780113995075226     
   4.7700000000000006E-002    0.24837855994701385     
   4.8000000000000001E-002    0.24268577992916107     
   4.8300000000000010E-002    0.23163354396820068     
   4.8600000000000004E-002    0.21626436710357666     
   4.8899999999999999E-002    0.19758889079093933     
   4.9200000000000008E-002    0.17652508616447449     
   4.9500000000000002E-002    0.15380796790122986     
   4.9800000000000011E-002    0.12991780042648315     
   5.0100000000000006E-002    0.10510099679231644     
   5.0400000000000000E-002     7.9346016049385071E-002
   5.0700000000000009E-002     5.2433520555496216E-002
   5.1000000000000004E-002     2.4009620770812035E-002
   5.1299999999999998E-002    -6.3909618183970451E-003
   5.1600000000000007E-002    -3.9188757538795471E-002
   5.1900000000000002E-002    -7.4752740561962128E-002
   5.2200000000000010E-002   -0.11329025775194168     
   5.2500000000000005E-002   -0.15475913882255554     
   5.2800000000000000E-002   -0.19889099895954132     
   5.3099999999999994E-002   -0.24508737027645111     
   5.3400000000000003E-002   -0.29246181249618530     
   5.3699999999999998E-002   -0.33986410498619080     
   5.4000000000000006E-002   -0.38585484027862549     
   5.4300000000000001E-002   -0.42887568473815918     
   5.4599999999999996E-002   -0.46721684932708740     
   5.4900000000000004E-002   -0.49916601181030273     
   5.5199999999999999E-002   -0.52312040328979492     
   5.5499999999999994E-002   -0.53759026527404785     
   5.5800000000000002E-002   -0.54138332605361938     
   5.6099999999999997E-002   -0.53359693288803101     
   5.6400000000000006E-002   -0.51368975639343262     
   5.6700000000000000E-002   -0.48154631257057190     
   5.6999999999999995E-002   -0.43739944696426392     
   5.7300000000000004E-002   -0.38188230991363525     
   5.7599999999999998E-002   -0.31596490740776062     
   5.7900000000000007E-002   -0.24085521697998047     
   5.8200000000000002E-002   -0.15805284678936005     
   5.8499999999999996E-002    -6.9174759089946747E-002
   5.8800000000000005E-002     2.4088943377137184E-002
   5.9100000000000000E-002    0.11996322125196457     
   5.9400000000000008E-002    0.21674402058124542     
   5.9700000000000003E-002    0.31276091933250427     
   6.0000000000000012E-002    0.40642249584197998     
   6.0300000000000006E-002    0.49628067016601562     
   6.0600000000000001E-002    0.58094328641891479     
   6.0900000000000010E-002    0.65915530920028687     
   6.1200000000000004E-002    0.72978520393371582     
   6.1500000000000013E-002    0.79173040390014648     
   6.1800000000000008E-002    0.84398442506790161     
   6.2100000000000002E-002    0.88556259870529175     
   6.2399999999999997E-002    0.91545939445495605     
   6.2700000000000006E-002    0.93272405862808228     
   6.3000000000000000E-002    0.93629199266433716     
   6.3300000000000009E-002    0.92510247230529785     
   6.3600000000000004E-002    0.89811688661575317     
   6.3899999999999998E-002    0.85420221090316772     
   6.4199999999999993E-002    0.79244560003280640     
   6.4500000000000002E-002    0.71207964420318604     
   6.4800000000000010E-002    0.61257225275039673     
   6.5100000000000005E-002    0.49396482110023499     
   6.5400000000000000E-002    0.35675081610679626     
   6.5700000000000008E-002    0.20216497778892517     
   6.5999999999999989E-002     3.2332416623830795E-002
   6.6299999999999998E-002   -0.14985695481300354     
   6.6600000000000006E-002   -0.34046906232833862     
   6.6900000000000001E-002   -0.53482484817504883     
   6.7199999999999996E-002   -0.72751623392105103     
   6.7500000000000004E-002   -0.91251140832901001     
   6.7800000000000013E-002    -1.0836657285690308     
   6.8099999999999994E-002    -1.2348009347915649     
   6.8400000000000002E-002    -1.3600463867187500     
   6.8700000000000011E-002    -1.4543354511260986     
   6.8999999999999992E-002    -1.5134290456771851     
   6.9300000000000000E-002    -1.5343878269195557     
   6.9600000000000009E-002    -1.5156228542327881     
   6.9900000000000004E-002    -1.4569216966629028     
   7.0199999999999999E-002    -1.3596305847167969     
   7.0500000000000007E-002    -1.2263243198394775     
   7.0800000000000016E-002    -1.0608619451522827     
   7.1099999999999997E-002   -0.86809945106506348     
   7.1400000000000005E-002   -0.65346014499664307     
   7.1700000000000000E-002   -0.42305243015289307     
   7.1999999999999995E-002   -0.18297322094440460     
   7.2300000000000003E-002     6.0779072344303131E-002
   7.2600000000000012E-002    0.30232539772987366     
   7.2900000000000006E-002    0.53662902116775513     
   7.3200000000000001E-002    0.75914794206619263     
   7.3499999999999996E-002    0.96617615222930908     
   7.3800000000000004E-002     1.1549794673919678     
   7.4099999999999999E-002     1.3233760595321655     
   7.4400000000000008E-002     1.4701184034347534     
   7.4700000000000003E-002     1.5943826436996460     
   7.5000000000000011E-002     1.6956230401992798     
   7.5299999999999992E-002     1.7735046148300171     
   7.5600000000000001E-002     1.8273190259933472     
   7.5900000000000009E-002     1.8559828996658325     
   7.6200000000000004E-002     1.8578170537948608     
   7.6499999999999999E-002     1.8303741216659546     
   7.6800000000000007E-002     1.7706279754638672     
   7.7099999999999988E-002     1.6751438379287720     
   7.7399999999999997E-002     1.5404620170593262     
   7.7700000000000005E-002     1.3636413812637329     
   7.8000000000000014E-002     1.1428041458129883     
   7.8299999999999995E-002    0.87776315212249756     
   7.8600000000000003E-002    0.57077956199645996     
   7.8900000000000012E-002    0.22666989266872406     
   7.9199999999999993E-002   -0.14665745198726654     
   7.9500000000000001E-002   -0.53848248720169067     
   7.9800000000000010E-002   -0.93557196855545044     
   8.0100000000000018E-002    -1.3228316307067871     
   8.0399999999999999E-002    -1.6844990253448486     
   8.0700000000000008E-002    -2.0049202442169189     
   8.1000000000000003E-002    -2.2701978683471680     
   8.1299999999999997E-002    -2.4689207077026367     
   8.1600000000000006E-002    -2.5932755470275879     
   8.1900000000000014E-002    -2.6398723125457764     
   8.2199999999999995E-002    -2.6094670295715332     
   8.2500000000000004E-002    -2.5072495937347412     
   8.2799999999999999E-002    -2.3419990539550781     
   8.3100000000000007E-002    -2.1249542236328125     
   8.3400000000000002E-002    -1.8690021038055420     
   8.3700000000000011E-002    -1.5868880748748779     
   8.4000000000000005E-002    -1.2903203964233398     
   8.4300000000000000E-002   -0.98904740810394287     
   8.4599999999999995E-002   -0.68978869915008545     
   8.4900000000000003E-002   -0.39659702777862549     
   8.5199999999999998E-002   -0.11062438040971756     
   8.5500000000000007E-002    0.16917043924331665     
   8.5800000000000001E-002    0.44476261734962463     
   8.6100000000000010E-002    0.71828401088714600     
   8.6399999999999991E-002    0.99078458547592163     
   8.6699999999999999E-002     1.2608448266983032     
   8.7000000000000008E-002     1.5245578289031982     
   8.7300000000000003E-002     1.7746058702468872     
   8.7599999999999997E-002     2.0006072521209717     
   8.7900000000000006E-002     2.1898179054260254     
   8.8200000000000014E-002     2.3276937007904053     
   8.8499999999999995E-002     2.3997035026550293     
   8.8800000000000004E-002     2.3923463821411133     
   8.9100000000000013E-002     2.2948203086853027     
   8.9399999999999993E-002     2.1004271507263184     
   8.9700000000000002E-002     1.8072602748870850     
   9.0000000000000011E-002     1.4194501638412476     
   9.0299999999999991E-002    0.94713640213012695     
   9.0600000000000000E-002    0.40616208314895630     
   9.0900000000000009E-002   -0.18204489350318909     
   9.1200000000000017E-002   -0.79207235574722290     
   9.1499999999999998E-002    -1.3955290317535400     
   9.1800000000000007E-002    -1.9626615047454834     
   9.2100000000000001E-002    -2.4644043445587158     
   9.2399999999999996E-002    -2.8734138011932373     
   9.2700000000000005E-002    -3.1665439605712891     
   9.3000000000000013E-002    -3.3256986141204834     
   9.3300000000000008E-002    -3.3392176628112793     
   9.3600000000000003E-002    -3.2029619216918945     
   9.3899999999999997E-002    -2.9199078083038330     
   9.4200000000000006E-002    -2.5010154247283936     
   9.4500000000000001E-002    -1.9641295671463013     
   9.4800000000000009E-002    -1.3328900337219238     
   9.5100000000000004E-002   -0.63613373041152954     
   9.5399999999999999E-002     9.4581708312034607E-002
   9.5699999999999993E-002    0.82631486654281616     
   9.6000000000000002E-002     1.5264043807983398     
   9.6300000000000011E-002     2.1648824214935303     
   9.6600000000000005E-002     2.7152264118194580     
   9.6900000000000000E-002     3.1563446521759033     
   9.7200000000000009E-002     3.4731945991516113     
   9.7499999999999989E-002     3.6568717956542969     
   9.7799999999999998E-002     3.7055954933166504     
   9.8100000000000007E-002     3.6232008934020996     
   9.8400000000000015E-002     3.4191434383392334     
   9.8699999999999996E-002     3.1077969074249268     
   9.9000000000000005E-002     2.7066087722778320     
   9.9300000000000013E-002     2.2359671592712402     
   9.9599999999999994E-002     1.7173519134521484     
   9.9900000000000003E-002     1.1725726127624512     
  0.10020000000000001         0.62355971336364746     
  0.10049999999999999          9.0533807873725891E-002
  0.10080000000000000        -0.40756922960281372     
  0.10110000000000001        -0.85382026433944702     
  0.10140000000000000         -1.2341854572296143     
  0.10170000000000000         -1.5372210741043091     
  0.10200000000000001         -1.7549057006835938     
  0.10230000000000002         -1.8826917409896851     
  0.10260000000000000         -1.9197678565979004     
  0.10290000000000001         -1.8693516254425049     
  0.10320000000000000         -1.7384228706359863     
  0.10350000000000001         -1.5376713275909424     
  0.10380000000000000         -1.2809761762619019     
  0.10410000000000001        -0.98453891277313232     
  0.10440000000000001        -0.66646432876586914     
  0.10470000000000000        -0.34537523984909058     
  0.10500000000000000         -3.9106838405132294E-002
  0.10530000000000000         0.23580086231231689     
  0.10560000000000000         0.46571263670921326     
  0.10590000000000001         0.64045852422714233     
  0.10620000000000000         0.75359696149826050     
  0.10650000000000001         0.80315929651260376     
  0.10679999999999999         0.79109191894531250     
  0.10710000000000000         0.72291988134384155     
  0.10740000000000001         0.60734790563583374     
  0.10770000000000000         0.45486453175544739     
  0.10800000000000000         0.27709946036338806     
  0.10830000000000001          8.5689701139926910E-002
  0.10859999999999999        -0.10887998342514038     
  0.10890000000000000        -0.29750832915306091     
  0.10920000000000001        -0.47373229265213013     
  0.10950000000000001        -0.63361424207687378     
  0.10979999999999999        -0.77579593658447266     
  0.11009999999999999        -0.90135800838470459     
  0.11040000000000001         -1.0127694606781006     
  0.11070000000000001         -1.1139253377914429     
  0.11100000000000000         -1.2084807157516479     
  0.11130000000000000         -1.2990533113479614     
  0.11160000000000002         -1.3871318101882935     
  0.11190000000000001         -1.4715105295181274     
  0.11220000000000001         -1.5485104322433472     
  0.11250000000000000         -1.6122387647628784     
  0.11280000000000000         -1.6543595790863037     
  0.11309999999999999         -1.6656240224838257     
  0.11340000000000001         -1.6365242004394531     
  0.11369999999999998         -1.5584858655929565     
  0.11400000000000000         -1.4254252910614014     
  0.11430000000000000         -1.2340676784515381     
  0.11460000000000002        -0.98582971096038818     
  0.11489999999999999        -0.68600994348526001     
  0.11520000000000001        -0.34396016597747803     
  0.11550000000000001          2.6313297450542450E-002
  0.11580000000000000         0.40912529826164246     
  0.11609999999999999         0.78666061162948608     
  0.11640000000000002          1.1408281326293945     
  0.11670000000000001          1.4556305408477783     
  0.11700000000000001          1.7164850234985352     
  0.11730000000000000          1.9127323627471924     
  0.11760000000000000          2.0370919704437256     
  0.11789999999999999          2.0857827663421631     
  0.11820000000000001          2.0593667030334473     
  0.11850000000000001          1.9603090286254883     
  0.11880000000000000          1.7940279245376587     
  0.11910000000000000          1.5674098730087280     
  0.11940000000000002          1.2878990173339844     
  0.11970000000000001         0.96450471878051758     
  0.12000000000000001         0.60592442750930786     
  0.12030000000000000         0.22242131829261780     
  0.12060000000000000        -0.17441082000732422     
  0.12089999999999999        -0.57198536396026611     
  0.12119999999999999        -0.95493990182876587     
  0.12150000000000001         -1.3064199686050415     
  0.12180000000000001         -1.6074913740158081     
  0.12210000000000000         -1.8386374711990356     
  0.12239999999999999         -1.9808350801467896     
  0.12270000000000002         -2.0166363716125488     
  0.12300000000000001         -1.9331089258193970     
  0.12330000000000001         -1.7224798202514648     
  0.12360000000000000         -1.3847194910049438     
  0.12390000000000000        -0.92849951982498169     
  0.12419999999999999        -0.37106549739837646     
  0.12450000000000001         0.26155394315719604     
  0.12480000000000001         0.93587511777877808     
  0.12509999999999999          1.6129902601242065     
  0.12540000000000001          2.2517895698547363     
  0.12570000000000003          2.8113186359405518     
  0.12600000000000000          3.2544870376586914     
  0.12630000000000002          3.5512163639068604     
  0.12659999999999999          3.6801731586456299     
  0.12690000000000001          3.6316857337951660     
  0.12719999999999998          3.4074451923370361     
  0.12750000000000000          3.0207624435424805     
  0.12780000000000002          2.4956140518188477     
  0.12809999999999999          1.8636379241943359     
  0.12840000000000001          1.1628870964050293     
  0.12869999999999998         0.43320605158805847     
  0.12900000000000000        -0.28549355268478394     
  0.12930000000000003        -0.95588940382003784     
  0.12959999999999999         -1.5473694801330566     
  0.12990000000000002         -2.0345816612243652     
  0.13019999999999998         -2.4008901119232178     
  0.13050000000000000         -2.6373744010925293     
  0.13080000000000003         -2.7411937713623047     
  0.13109999999999999         -2.7174367904663086     
  0.13140000000000002         -2.5743026733398438     
  0.13169999999999998         -2.3247997760772705     
  0.13200000000000001         -1.9846165180206299     
  0.13229999999999997         -1.5695989131927490     
  0.13260000000000000         -1.0987200736999512     
  0.13290000000000002        -0.59068286418914795     
  0.13319999999999999         -6.5687045454978943E-002
  0.13350000000000001         0.45418891310691833     
  0.13380000000000003         0.94638645648956299     
  0.13410000000000000          1.3856538534164429     
  0.13440000000000002          1.7468945980072021     
  0.13469999999999999          2.0053038597106934     
  0.13500000000000001          2.1374993324279785     
  0.13529999999999998          2.1250846385955811     
  0.13560000000000000          1.9549076557159424     
  0.13590000000000002          1.6231626272201538     
  0.13619999999999999          1.1363971233367920     
  0.13650000000000001         0.51186966896057129     
  0.13680000000000003        -0.22011931240558624     
  0.13710000000000000         -1.0193890333175659     
  0.13740000000000002         -1.8371419906616211     
  0.13769999999999999         -2.6189205646514893     
  0.13800000000000001         -3.3096518516540527     
  0.13829999999999998         -3.8574509620666504     
  0.13860000000000000         -4.2189335823059082     
  0.13890000000000002         -4.3631315231323242     
  0.13919999999999999         -4.2746548652648926     
  0.13950000000000001         -3.9558451175689697     
  0.13979999999999998         -3.4266695976257324     
  0.14010000000000000         -2.7238287925720215     
  0.14040000000000002         -1.8972147703170776     
  0.14069999999999999         -1.0052974224090576     
  0.14100000000000001        -0.11078218370676041     
  0.14130000000000004         0.72579026222229004     
  0.14160000000000000          1.4511327743530273     
  0.14189999999999997          2.0233128070831299     
  0.14219999999999999          2.4154536724090576     
  0.14250000000000002          2.6173703670501709     
  0.14279999999999998          2.6353895664215088     
  0.14310000000000000          2.4910004138946533     
  0.14339999999999997          2.2176208496093750     
  0.14369999999999999          1.8565958738327026     
  0.14400000000000002          1.4533243179321289     
  0.14429999999999998          1.0519618988037109     
  0.14460000000000001         0.69214659929275513     
  0.14490000000000003         0.40538454055786133     
  0.14520000000000000         0.21278521418571472     
  0.14550000000000002         0.12505182623863220     
  0.14579999999999999         0.14134819805622101     
  0.14610000000000001         0.25190261006355286     
  0.14640000000000003         0.43966150283813477     
  0.14670000000000000         0.68234235048294067     
  0.14699999999999996         0.95623439550399780     
  0.14729999999999999          1.2375316619873047     
  0.14760000000000001          1.5055029392242432     
  0.14789999999999998          1.7433047294616699     
  0.14820000000000000          1.9390504360198975     