  -1.4999999999999999E-002     0.0000000000000000     
  -1.4700000000000000E-002     0.0000000000000000     
  -1.4400000000000000E-002     0.0000000000000000     
  -1.4100000000000000E-002     0.0000000000000000     
  -1.3800000000000000E-002     0.0000000000000000     
  -1.3500000000000000E-002     0.0000000000000000     
  -1.3200000000000000E-002     0.0000000000000000     
  -1.2899999999999998E-002     0.0000000000000000     
  -1.2600000000000000E-002     0.0000000000000000     
  -1.2299999999999998E-002     0.0000000000000000     
  -1.2000000000000000E-002     0.0000000000000000     
  -1.1699999999999999E-002     0.0000000000000000     
  -1.1399999999999999E-002     0.0000000000000000     
  -1.1099999999999999E-002     0.0000000000000000     
  -1.0799999999999999E-002     0.0000000000000000     
  -1.0499999999999999E-002     0.0000000000000000     
  -1.0199999999999999E-002     0.0000000000000000     
  -9.8999999999999991E-003     0.0000000000000000     
  -9.5999999999999992E-003     0.0000000000000000     
  -9.2999999999999992E-003     0.0000000000000000     
  -8.9999999999999993E-003     0.0000000000000000     
  -8.6999999999999994E-003     0.0000000000000000     
  -8.3999999999999995E-003     0.0000000000000000     
  -8.0999999999999996E-003     0.0000000000000000     
  -7.7999999999999988E-003     0.0000000000000000     
  -7.4999999999999997E-003     0.0000000000000000     
  -7.1999999999999998E-003     0.0000000000000000     
  -6.8999999999999981E-003     0.0000000000000000     
  -6.5999999999999982E-003     0.0000000000000000     
  -6.3000000000000000E-003     0.0000000000000000     
  -6.0000000000000001E-003     0.0000000000000000     
  -5.6999999999999985E-003     0.0000000000000000     
  -5.3999999999999986E-003     0.0000000000000000     
  -5.1000000000000004E-003     0.0000000000000000     
  -4.7999999999999987E-003     0.0000000000000000     
  -4.5000000000000005E-003     0.0000000000000000     
  -4.1999999999999989E-003     0.0000000000000000     
  -3.8999999999999990E-003     0.0000000000000000     
  -3.5999999999999990E-003     0.0000000000000000     
  -3.2999999999999991E-003     0.0000000000000000     
  -2.9999999999999992E-003     0.0000000000000000     
  -2.6999999999999993E-003     0.0000000000000000     
  -2.3999999999999994E-003     0.0000000000000000     
  -2.0999999999999977E-003     0.0000000000000000     
  -1.7999999999999995E-003     0.0000000000000000     
  -1.4999999999999979E-003     0.0000000000000000     
  -1.1999999999999997E-003     0.0000000000000000     
  -8.9999999999999976E-004     0.0000000000000000     
  -5.9999999999999810E-004     0.0000000000000000     
  -2.9999999999999992E-004     0.0000000000000000     
   0.0000000000000000          0.0000000000000000     
   3.0000000000000165E-004     0.0000000000000000     
   5.9999999999999984E-004     0.0000000000000000     
   9.0000000000000149E-004     0.0000000000000000     
   1.2000000000000031E-003     0.0000000000000000     
   1.5000000000000013E-003     0.0000000000000000     
   1.8000000000000030E-003     0.0000000000000000     
   2.1000000000000012E-003     0.0000000000000000     
   2.3999999999999994E-003     0.0000000000000000     
   2.7000000000000010E-003     0.0000000000000000     
   2.9999999999999992E-003     0.0000000000000000     
   3.3000000000000008E-003     0.0000000000000000     
   3.6000000000000025E-003     0.0000000000000000     
   3.9000000000000007E-003     0.0000000000000000     
   4.2000000000000023E-003     0.0000000000000000     
   4.5000000000000005E-003     0.0000000000000000     
   4.7999999999999987E-003     0.0000000000000000     
   5.1000000000000004E-003     0.0000000000000000     
   5.4000000000000020E-003     0.0000000000000000     
   5.7000000000000037E-003     0.0000000000000000     
   5.9999999999999984E-003     0.0000000000000000     
   6.3000000000000000E-003     0.0000000000000000     
   6.6000000000000017E-003     0.0000000000000000     
   6.9000000000000034E-003     0.0000000000000000     
   7.2000000000000015E-003     0.0000000000000000     
   7.5000000000000032E-003     0.0000000000000000     
   7.8000000000000014E-003     0.0000000000000000     
   8.0999999999999996E-003     0.0000000000000000     
   8.4000000000000012E-003     0.0000000000000000     
   8.7000000000000029E-003    -3.6635627766099563E-037
   9.0000000000000011E-003     2.3013528715346048E-036
   9.2999999999999992E-003    -3.1076313989976569E-036
   9.6000000000000009E-003    -3.8633187919512515E-036
   9.8999999999999991E-003     2.8088007034010319E-035
   1.0200000000000001E-002    -5.6226640681165135E-034
   1.0500000000000002E-002     1.0592752447374034E-033
   1.0800000000000004E-002     1.9452521327788772E-032
   1.1099999999999999E-002    -1.1100867888572233E-031
   1.1400000000000000E-002     3.0581755070540698E-032
   1.1700000000000002E-002     2.1888218268243433E-030
   1.2000000000000004E-002    -1.0972369711027349E-029
   1.2300000000000002E-002     1.6331830256991305E-029
   1.2600000000000000E-002     9.0818207548145529E-029
   1.2900000000000002E-002    -7.1955386061155803E-028
   1.3200000000000000E-002     2.6387404983362622E-027
   1.3500000000000002E-002    -5.1964679091198420E-027
   1.3800000000000003E-002    -3.5358367405018923E-027
   1.4100000000000001E-002     8.3382351162828066E-026
   1.4400000000000000E-002    -4.6626067537347090E-025
   1.4700000000000001E-002     2.0066738023411325E-024
   1.4999999999999999E-002    -7.8050718377908338E-024
   1.5300000000000001E-002     2.7561329591694821E-023
   1.5600000000000003E-002    -7.8355142956676747E-023
   1.5899999999999997E-002     1.0152470718416343E-022
   1.6199999999999999E-002     6.9935121857741202E-022
   1.6500000000000001E-002    -7.4613040267539897E-021
   1.6800000000000002E-002     4.6048970217416590E-020
   1.7100000000000004E-002    -2.3047619670230784E-019
   1.7400000000000006E-002     1.0267961481670540E-018
   1.7700000000000000E-002    -4.2737096984552477E-018
   1.8000000000000002E-002     1.7180291514181394E-017
   1.8300000000000004E-002    -6.8270643790459794E-017
   1.8600000000000005E-002     2.7111629405390672E-016
   1.8900000000000000E-002    -1.0713550120162616E-015
   1.9200000000000002E-002     4.1324192162530814E-015
   1.9500000000000003E-002    -1.5069595351853253E-014
   1.9799999999999998E-002     4.9611817475384012E-014
   2.0100000000000000E-002    -1.3638992279324524E-013
   2.0400000000000001E-002     2.5428782885784929E-013
   2.0700000000000003E-002     5.7605260622359267E-014
   2.0999999999999998E-002    -3.0314717749946318E-012
   2.1299999999999999E-002     1.4893791061565409E-011
   2.1600000000000001E-002    -4.2216376228143560E-011
   2.1900000000000003E-002     5.6576944518216266E-011
   2.2200000000000004E-002     9.7822902556110591E-011
   2.2500000000000006E-002    -7.0021155540445079E-010
   2.2800000000000001E-002     1.4337713238887773E-009
   2.3100000000000002E-002     2.7431931726162873E-010
   2.3400000000000004E-002    -7.6908843738010546E-009
   2.3699999999999999E-002     1.1891447826428703E-008
   2.4000000000000000E-002     1.5509757034237737E-008
   2.4300000000000002E-002    -5.9700397514461656E-008
   2.4599999999999997E-002    -1.9648574323127832E-008
   2.4900000000000005E-002     1.9046929367050325E-007
   2.5200000000000000E-002     7.6606504251230945E-008
   2.5499999999999995E-002    -5.2752824331037118E-007
   2.5800000000000003E-002    -5.6862000974433613E-007
   2.6099999999999998E-002     1.4193281003826996E-006
   2.6400000000000007E-002     5.6657086133782286E-006
   2.6700000000000002E-002     1.1172369340783916E-005
   2.6999999999999996E-002     1.7658909200690687E-005
   2.7300000000000005E-002     2.6654393877834082E-005
   2.7600000000000000E-002     4.0909479139372706E-005
   2.7900000000000008E-002     6.3849474827293307E-005
   2.8200000000000003E-002     9.9518503702711314E-005
   2.8499999999999998E-002     1.5299455844797194E-004
   2.8800000000000006E-002     2.3134844377636909E-004
   2.9100000000000001E-002     3.4485314972698689E-004
   2.9400000000000003E-002     5.0834845751523972E-004
   2.9700000000000004E-002     7.4165064143016934E-004
   3.0000000000000006E-002     1.0687089525163174E-003
   3.0300000000000001E-002     1.5173770952969790E-003
   3.0600000000000002E-002     2.1208410616964102E-003
   3.0900000000000004E-002     2.9191700741648674E-003
   3.1199999999999999E-002     3.9580916054546833E-003
   3.1500000000000007E-002     5.2852518856525421E-003
   3.1800000000000002E-002     6.9464039988815784E-003
   3.2099999999999997E-002     8.9814709499478340E-003
   3.2400000000000005E-002     1.1418390087783337E-002
   3.2700000000000000E-002     1.4263498596847057E-002
   3.3000000000000002E-002     1.7491385340690613E-002
   3.3300000000000003E-002     2.1034240722656250E-002
   3.3599999999999998E-002     2.4772202596068382E-002
   3.3900000000000000E-002     2.8522342443466187E-002
   3.4200000000000001E-002     3.2031424343585968E-002
   3.4500000000000003E-002     3.4977160394191742E-002
   3.4799999999999998E-002     3.6974351853132248E-002
   3.5099999999999999E-002     3.7586774677038193E-002
   3.5400000000000001E-002     3.6351148039102554E-002
   3.5699999999999996E-002     3.2812111079692841E-002
   3.6000000000000004E-002     2.6570366695523262E-002
   3.6299999999999999E-002     1.7335897311568260E-002
   3.6600000000000008E-002     4.9739899113774300E-003
   3.6900000000000002E-002    -1.0435082018375397E-002
   3.7199999999999997E-002    -2.8547067195177078E-002
   3.7500000000000006E-002    -4.8728760331869125E-002
   3.7800000000000000E-002    -7.0044718682765961E-002
   3.8100000000000009E-002    -9.1283708810806274E-002
   3.8400000000000004E-002   -0.11099827289581299     
   3.8699999999999998E-002   -0.12759101390838623     
   3.9000000000000007E-002   -0.13942290842533112     
   3.9300000000000002E-002   -0.14493560791015625     
   3.9600000000000003E-002   -0.14279446005821228     
   3.9900000000000005E-002   -0.13202382624149323     
   4.0200000000000000E-002   -0.11212594807147980     
   4.0500000000000001E-002    -8.3168804645538330E-002
   4.0800000000000003E-002    -4.5827075839042664E-002
   4.1100000000000005E-002    -1.3875046279281378E-003
   4.1399999999999999E-002     4.8307217657566071E-002
   4.1700000000000008E-002    0.10095261782407761     
   4.2000000000000003E-002    0.15393169224262238     
   4.2299999999999997E-002    0.20447324216365814     
   4.2600000000000006E-002    0.24983139336109161     
   4.2900000000000001E-002    0.28745460510253906     
   4.3200000000000002E-002    0.31513029336929321     
   4.3500000000000004E-002    0.33111369609832764     
   4.3799999999999999E-002    0.33418938517570496     
   4.4100000000000000E-002    0.32372295856475830     
   4.4400000000000002E-002    0.29964777827262878     
   4.4700000000000004E-002    0.26242539286613464     
   4.4999999999999998E-002    0.21300065517425537     
   4.5300000000000000E-002    0.15270440280437469     
   4.5600000000000002E-002     8.3209536969661713E-002
   4.5899999999999996E-002     6.4343567937612534E-003
   4.6200000000000005E-002    -7.5521305203437805E-002
   4.6500000000000000E-002   -0.16042514145374298     
   4.6799999999999994E-002   -0.24597191810607910     
   4.7100000000000003E-002   -0.32981696724891663     
   4.7399999999999998E-002   -0.40960511565208435     
   4.7700000000000006E-002   -0.48302766680717468     
   4.8000000000000001E-002   -0.54785895347595215     
   4.8300000000000010E-002   -0.60200709104537964     
   4.8600000000000004E-002   -0.64359056949615479     
   4.8899999999999999E-002   -0.67098301649093628     
   4.9200000000000008E-002   -0.68289864063262939     
   4.9500000000000002E-002   -0.67843365669250488     
   4.9800000000000011E-002   -0.65715312957763672     
   5.0100000000000006E-002   -0.61914920806884766     
   5.0400000000000000E-002   -0.56501698493957520     
   5.0700000000000009E-002   -0.49596813321113586     
   5.1000000000000004E-002   -0.41371220350265503     
   5.1299999999999998E-002   -0.32045301795005798     
   5.1600000000000007E-002   -0.21887485682964325     
   5.1900000000000002E-002   -0.11188162863254547     
   5.2200000000000010E-002    -2.6142885908484459E-003
   5.2500000000000005E-002    0.10581287741661072     
   5.2800000000000000E-002    0.21053560078144073     
   5.3099999999999994E-002    0.30893754959106445     
   5.3400000000000003E-002    0.39912205934524536     
   5.3699999999999998E-002    0.47976273298263550     
   5.4000000000000006E-002    0.55031234025955200     
   5.4300000000000001E-002    0.61112374067306519     
   5.4599999999999996E-002    0.66313689947128296     
   5.4900000000000004E-002    0.70803767442703247     
   5.5199999999999999E-002    0.74777609109878540     
   5.5499999999999994E-002    0.78437685966491699     
   5.5800000000000002E-002    0.81967455148696899     
   5.6099999999999997E-002    0.85476547479629517     
   5.6400000000000006E-002    0.88991951942443848     
   5.6700000000000000E-002    0.92414790391921997     
   5.6999999999999995E-002    0.95512336492538452     
   5.7300000000000004E-002    0.97921764850616455     
   5.7599999999999998E-002    0.99151372909545898     
   5.7900000000000007E-002    0.98632192611694336     
   5.8200000000000002E-002    0.95751667022705078     
   5.8499999999999996E-002    0.89911127090454102     
   5.8800000000000005E-002    0.80604559183120728     
   5.9100000000000000E-002    0.67474514245986938     
   5.9400000000000008E-002    0.50374305248260498     
   5.9700000000000003E-002    0.29413482546806335     
   6.0000000000000012E-002     4.9810741096735001E-002
   6.0300000000000006E-002   -0.22254303097724915     
   6.0600000000000001E-002   -0.51362824440002441     
   6.0900000000000010E-002   -0.81200408935546875     
   6.1200000000000004E-002    -1.1049437522888184     
   6.1500000000000013E-002    -1.3790167570114136     
   6.1800000000000008E-002    -1.6212958097457886     
   6.2100000000000002E-002    -1.8200124502182007     
   6.2399999999999997E-002    -1.9653946161270142     
   6.2700000000000006E-002    -2.0504000186920166     
   6.3000000000000000E-002    -2.0708153247833252     
   6.3300000000000009E-002    -2.0255753993988037     
   6.3600000000000004E-002    -1.9166080951690674     
   6.3899999999999998E-002    -1.7483582496643066     
   6.4199999999999993E-002    -1.5274357795715332     
   6.4500000000000002E-002    -1.2619084119796753     
   6.4800000000000010E-002   -0.96072965860366821     
   6.5100000000000005E-002   -0.63324248790740967     
   6.5400000000000000E-002   -0.28859153389930725     
   6.5700000000000008E-002     6.4489908516407013E-002
   6.5999999999999989E-002    0.41795319318771362     
   6.6299999999999998E-002    0.76434814929962158     
   6.6600000000000006E-002     1.0969599485397339     
   6.6900000000000001E-002     1.4095940589904785     
   6.7199999999999996E-002     1.6964138746261597     
   6.7500000000000004E-002     1.9520126581192017     
   6.7800000000000013E-002     2.1712222099304199     
   6.8099999999999994E-002     2.3491280078887939     
   6.8400000000000002E-002     2.4811224937438965     
   6.8700000000000011E-002     2.5629832744598389     
   6.8999999999999992E-002     2.5911319255828857     
   6.9300000000000000E-002     2.5626480579376221     
   6.9600000000000009E-002     2.4754226207733154     
   6.9900000000000004E-002     2.3283576965332031     
   7.0199999999999999E-002     2.1212530136108398     
   7.0500000000000007E-002     1.8552000522613525     
   7.0800000000000016E-002     1.5324602127075195     
   7.1099999999999997E-002     1.1566239595413208     
   7.1400000000000005E-002    0.73310309648513794     
   7.1700000000000000E-002    0.26877251267433167     
   7.1999999999999995E-002   -0.22710826992988586     
   7.2300000000000003E-002   -0.74348759651184082     
   7.2600000000000012E-002    -1.2668719291687012     
   7.2900000000000006E-002    -1.7815269231796265     
   7.3200000000000001E-002    -2.2702479362487793     
   7.3499999999999996E-002    -2.7141711711883545     
   7.3800000000000004E-002    -3.0944287776947021     
   7.4099999999999999E-002    -3.3927731513977051     
   7.4400000000000008E-002    -3.5927543640136719     
   7.4700000000000003E-002    -3.6815495491027832     
   7.5000000000000011E-002    -3.6506309509277344     
   7.5299999999999992E-002    -3.4972236156463623     
   7.5600000000000001E-002    -3.2248578071594238     
   7.5900000000000009E-002    -2.8434133529663086     
   7.6200000000000004E-002    -2.3691678047180176     
   7.6499999999999999E-002    -1.8235396146774292     
   7.6800000000000007E-002    -1.2319372892379761     
   7.7099999999999988E-002   -0.62207752466201782     
   7.7399999999999997E-002    -2.1813774481415749E-002
   7.7700000000000005E-002    0.54268801212310791     
   7.8000000000000014E-002     1.0488244295120239     
   7.8299999999999995E-002     1.4791417121887207     
   7.8600000000000003E-002     1.8221178054809570     
   7.8900000000000012E-002     2.0727176666259766     
   7.9199999999999993E-002     2.2321755886077881     
   7.9500000000000001E-002     2.3071513175964355     
   7.9800000000000010E-002     2.3083183765411377     
   8.0100000000000018E-002     2.2491130828857422     
   8.0399999999999999E-002     2.1437494754791260     
   8.0700000000000008E-002     2.0056664943695068     
   8.1000000000000003E-002     1.8464524745941162     
   8.1299999999999997E-002     1.6744080781936646     
   8.1600000000000006E-002     1.4944512844085693     
   8.1900000000000014E-002     1.3081790208816528     
   8.2199999999999995E-002     1.1141272783279419     
   8.2500000000000004E-002    0.90915495157241821     
   8.2799999999999999E-002    0.68914139270782471     
   8.3100000000000007E-002    0.45071971416473389     
   8.3400000000000002E-002    0.19220051169395447     
   8.3700000000000011E-002    -8.5606575012207031E-002
   8.4000000000000005E-002   -0.37831768393516541     
   8.4300000000000000E-002   -0.67850869894027710     
   8.4599999999999995E-002   -0.97544813156127930     
   8.4900000000000003E-002    -1.2560873031616211     
   8.5199999999999998E-002    -1.5061804056167603     
   8.5500000000000007E-002    -1.7110160589218140     
   8.5800000000000001E-002    -1.8572787046432495     
   8.6100000000000010E-002    -1.9340637922286987     
   8.6399999999999991E-002    -1.9337422847747803     
   8.6699999999999999E-002    -1.8529592752456665     
   8.7000000000000008E-002    -1.6926573514938354     
   8.7300000000000003E-002    -1.4584286212921143     
   8.7599999999999997E-002    -1.1598434448242188     
   8.7900000000000006E-002   -0.81000399589538574     
   8.8200000000000014E-002   -0.42480787634849548     
   8.8499999999999995E-002    -2.1229356527328491E-002
   8.8800000000000004E-002    0.38284024596214294     
   8.9100000000000013E-002    0.77016592025756836     
   8.9399999999999993E-002     1.1250562667846680     
   8.9700000000000002E-002     1.4335948228836060     
   9.0000000000000011E-002     1.6848063468933105     
   9.0299999999999991E-002     1.8701138496398926     
   9.0600000000000000E-002     1.9840466976165771     
   9.0900000000000009E-002     2.0239996910095215     
   9.1200000000000017E-002     1.9895908832550049     
   9.1499999999999998E-002     1.8829770088195801     
   9.1800000000000007E-002     1.7080757617950439     
   9.2100000000000001E-002     1.4706344604492188     
   9.2399999999999996E-002     1.1781308650970459     
   9.2700000000000005E-002    0.83939623832702637     
   9.3000000000000013E-002    0.46495738625526428     
   9.3300000000000008E-002     6.6869162023067474E-002
   9.3600000000000003E-002   -0.34124743938446045     
   9.3899999999999997E-002   -0.74417507648468018     
   9.4200000000000006E-002    -1.1255462169647217     
   9.4500000000000001E-002    -1.4683706760406494     
   9.4800000000000009E-002    -1.7555143833160400     
   9.5100000000000004E-002    -1.9712250232696533     
   9.5399999999999999E-002    -2.1018524169921875     
   9.5699999999999993E-002    -2.1369361877441406     
   9.6000000000000002E-002    -2.0708637237548828     
   9.6300000000000011E-002    -1.9031380414962769     
   9.6600000000000005E-002    -1.6394910812377930     
   9.6900000000000000E-002    -1.2916772365570068     
   9.7200000000000009E-002   -0.87675744295120239     
   9.7499999999999989E-002   -0.41686490178108215     
   9.7799999999999998E-002     6.3172861933708191E-002
   9.8100000000000007E-002    0.53687846660614014     
   9.8400000000000015E-002    0.97817033529281616     
   9.8699999999999996E-002     1.3636759519577026     
   9.9000000000000005E-002     1.6736310720443726     
   9.9300000000000013E-002     1.8939763307571411     
   9.9599999999999994E-002     2.0165207386016846     
   9.9900000000000003E-002     2.0392816066741943     
  0.10020000000000001          1.9662783145904541     
  0.10049999999999999          1.8060314655303955     
  0.10080000000000000          1.5711680650711060     
  0.10110000000000001          1.2763928174972534     
  0.10140000000000000         0.93718725442886353     
  0.10170000000000000         0.56908965110778809     
  0.10200000000000001         0.18595623970031738     
  0.10230000000000002        -0.19969718158245087     
  0.10260000000000000        -0.57724750041961670     
  0.10290000000000001        -0.93801748752593994     
  0.10320000000000000         -1.2739142179489136     
  0.10350000000000001         -1.5775938034057617     
  0.10380000000000000         -1.8414205312728882     
  0.10410000000000001         -2.0573389530181885     
  0.10440000000000001         -2.2167851924896240     
  0.10470000000000000         -2.3105196952819824     
  0.10500000000000000         -2.3299984931945801     
  0.10530000000000000         -2.2676362991333008     
  0.10560000000000000         -2.1181719303131104     
  0.10590000000000001         -1.8798753023147583     
  0.10620000000000000         -1.5548394918441772     
  0.10650000000000001         -1.1505100727081299     
  0.10679999999999999        -0.67939794063568115     
  0.10710000000000000        -0.15858428180217743     
  0.10740000000000001         0.39039820432662964     
  0.10770000000000000         0.94345879554748535     
  0.10800000000000000          1.4749966859817505     
  0.10830000000000001          1.9596724510192871     
  0.10859999999999999          2.3744509220123291     
  0.10890000000000000          2.6995031833648682     
  0.10920000000000001          2.9198737144470215     
  0.10950000000000001          3.0260553359985352     
  0.10979999999999999          3.0143463611602783     
  0.11009999999999999          2.8869242668151855     
  0.11040000000000001          2.6508595943450928     
  0.11070000000000001          2.3181700706481934     
  0.11100000000000000          1.9039722681045532     
  0.11130000000000000          1.4257025718688965     
  0.11160000000000002         0.90283769369125366     
  0.11190000000000001         0.35497882962226868     
  0.11220000000000001        -0.19802172482013702     
  0.11250000000000000        -0.73650437593460083     
  0.11280000000000000         -1.2420346736907959     
  0.11309999999999999         -1.6962260007858276     
  0.11340000000000001         -2.0823628902435303     
  0.11369999999999998         -2.3849861621856689     
  0.11400000000000000         -2.5896093845367432     
  0.11430000000000000         -2.6849088668823242     
  0.11460000000000002         -2.6616325378417969     
  0.11489999999999999         -2.5149261951446533     
  0.11520000000000001         -2.2448258399963379     
  0.11550000000000001         -1.8564835786819458     
  0.11580000000000000         -1.3625860214233398     
  0.11609999999999999        -0.78201514482498169     
  0.11640000000000002        -0.14064848423004150     
  0.11670000000000001         0.52906113862991333     
  0.11700000000000001          1.1905797719955444     
  0.11730000000000000          1.8040497303009033     
  0.11760000000000000          2.3298871517181396     
  0.11789999999999999          2.7311880588531494     
  0.11820000000000001          2.9765887260437012     
  0.11850000000000001          3.0440220832824707     
  0.11880000000000000          2.9219238758087158     
  0.11910000000000000          2.6119325160980225     
  0.11940000000000002          2.1292464733123779     
  0.11970000000000001          1.5013819932937622     
  0.12000000000000001         0.76751983165740967     
  0.12030000000000000         -2.4664279073476791E-002
  0.12060000000000000        -0.82281714677810669     
  0.12089999999999999         -1.5735971927642822     
  0.12119999999999999         -2.2270984649658203     
  0.12150000000000001         -2.7407777309417725     
  0.12180000000000001         -3.0828764438629150     
  0.12210000000000000         -3.2349023818969727     
  0.12239999999999999         -3.1927962303161621     
  0.12270000000000002         -2.9670958518981934     
  0.12300000000000001         -2.5813777446746826     
  0.12330000000000001         -2.0699532032012939     
  0.12360000000000000         -1.4752968549728394     
  0.12390000000000000        -0.84349691867828369     
  0.12419999999999999        -0.22093984484672546     
  0.12450000000000001         0.34906765818595886     
  0.12480000000000001         0.83033484220504761     
  0.12509999999999999          1.1953284740447998     
  0.12540000000000001          1.4270093441009521     
  0.12570000000000003          1.5195684432983398     
  0.12600000000000000          1.4778118133544922     
  0.12630000000000002          1.3162072896957397     
  0.12659999999999999          1.0570559501647949     
  0.12690000000000001         0.72825235128402710     
  0.12719999999999998         0.36096325516700745     
  0.12750000000000000         -1.2872057035565376E-002
  0.12780000000000002        -0.36286219954490662     
  0.12809999999999999        -0.66197967529296875     
  0.12840000000000001        -0.88858300447463989     
  0.12869999999999998         -1.0268679857254028     
  0.12900000000000000         -1.0681658983230591     
  0.12930000000000003         -1.0107147693634033     
  0.12959999999999999        -0.85939431190490723     
  0.12990000000000002        -0.62526035308837891     
  0.13019999999999998        -0.32395696640014648     
  0.13050000000000000          2.5051759555935860E-002
  0.13080000000000003         0.40042141079902649     
  0.13109999999999999         0.78060424327850342     
  0.13140000000000002          1.1447892189025879     
  0.13169999999999998          1.4750299453735352     
  0.13200000000000001          1.7572256326675415     
  0.13229999999999997          1.9815059900283813     
  0.13260000000000000          2.1430637836456299     
  0.13290000000000002          2.2415370941162109     
  0.13319999999999999          2.2805249691009521     
  0.13350000000000001          2.2667927742004395     
  0.13380000000000003          2.2084863185882568     
  0.13410000000000000          2.1141028404235840     
  0.13440000000000002          1.9910809993743896     
  0.13469999999999999          1.8441629409790039     
  0.13500000000000001          1.6754056215286255     
  0.13529999999999998          1.4835735559463501     
  0.13560000000000000          1.2646621465682983     
  0.13590000000000002          1.0134562253952026     
  0.13619999999999999         0.72358614206314087     
  0.13650000000000001         0.39100444316864014     
  0.13680000000000003          1.4740478247404099E-002
  0.13710000000000000        -0.40267977118492126     
  0.13740000000000002        -0.85186153650283813     
  0.13769999999999999         -1.3191740512847900     
  0.13800000000000001         -1.7855192422866821     
  0.13829999999999998         -2.2282483577728271     
  0.13860000000000000         -2.6247158050537109     
  0.13890000000000002         -2.9520735740661621     
  0.13919999999999999         -3.1929407119750977     
  0.13950000000000001         -3.3358232975006104     
  0.13979999999999998         -3.3768949508666992     
  0.14010000000000000         -3.3224098682403564     
  0.14040000000000002         -3.1855061054229736     
  0.14069999999999999         -2.9877367019653320     
  0.14100000000000001         -2.7549955844879150     
  0.14130000000000004         -2.5138571262359619     
  0.14160000000000000         -2.2902328968048096     
  0.14189999999999997         -2.1030995845794678     
  0.14219999999999999         -1.9640805721282959     
  0.14250000000000002         -1.8746248483657837     
  0.14279999999999998         -1.8244645595550537     
  0.14310000000000000         -1.7943700551986694     
  0.14339999999999997         -1.7560025453567505     
  0.14369999999999999         -1.6761820316314697     
  0.14400000000000002         -1.5209422111511230     
  0.14429999999999998         -1.2583928108215332     
  0.14460000000000001        -0.86487495899200439     
  0.14490000000000003        -0.32661595940589905     
  0.14520000000000000         0.35744142532348633     
  0.14550000000000002          1.1732772588729858     
  0.14579999999999999          2.0941102504730225     
  0.14610000000000001          3.0801830291748047     
  0.14640000000000003          4.0828175544738770     
  0.14670000000000000          5.0483775138854980     
  0.14699999999999996          5.9214434623718262     
  0.14729999999999999          6.6507430076599121     
  0.14760000000000001          7.1923007965087891     
  0.14789999999999998          7.5123910903930664     
  0.14820000000000000          7.5910453796386719     