  -1.4999999999999999E-002     0.0000000000000000     
  -1.4700000000000000E-002     0.0000000000000000     
  -1.4400000000000000E-002     0.0000000000000000     
  -1.4100000000000000E-002     0.0000000000000000     
  -1.3800000000000000E-002     0.0000000000000000     
  -1.3500000000000000E-002     0.0000000000000000     
  -1.3200000000000000E-002     0.0000000000000000     
  -1.2899999999999998E-002     0.0000000000000000     
  -1.2600000000000000E-002     0.0000000000000000     
  -1.2299999999999998E-002     0.0000000000000000     
  -1.2000000000000000E-002     0.0000000000000000     
  -1.1699999999999999E-002     0.0000000000000000     
  -1.1399999999999999E-002     0.0000000000000000     
  -1.1099999999999999E-002     0.0000000000000000     
  -1.0799999999999999E-002     0.0000000000000000     
  -1.0499999999999999E-002     0.0000000000000000     
  -1.0199999999999999E-002     0.0000000000000000     
  -9.8999999999999991E-003     0.0000000000000000     
  -9.5999999999999992E-003     0.0000000000000000     
  -9.2999999999999992E-003     0.0000000000000000     
  -8.9999999999999993E-003     0.0000000000000000     
  -8.6999999999999994E-003     0.0000000000000000     
  -8.3999999999999995E-003     0.0000000000000000     
  -8.0999999999999996E-003     0.0000000000000000     
  -7.7999999999999988E-003     0.0000000000000000     
  -7.4999999999999997E-003     0.0000000000000000     
  -7.1999999999999998E-003     0.0000000000000000     
  -6.8999999999999981E-003     0.0000000000000000     
  -6.5999999999999982E-003     0.0000000000000000     
  -6.3000000000000000E-003     0.0000000000000000     
  -6.0000000000000001E-003     0.0000000000000000     
  -5.6999999999999985E-003     0.0000000000000000     
  -5.3999999999999986E-003     0.0000000000000000     
  -5.1000000000000004E-003     0.0000000000000000     
  -4.7999999999999987E-003     0.0000000000000000     
  -4.5000000000000005E-003     0.0000000000000000     
  -4.1999999999999989E-003     0.0000000000000000     
  -3.8999999999999990E-003     0.0000000000000000     
  -3.5999999999999990E-003     0.0000000000000000     
  -3.2999999999999991E-003     0.0000000000000000     
  -2.9999999999999992E-003     0.0000000000000000     
  -2.6999999999999993E-003     0.0000000000000000     
  -2.3999999999999994E-003     0.0000000000000000     
  -2.0999999999999977E-003     0.0000000000000000     
  -1.7999999999999995E-003     0.0000000000000000     
  -1.4999999999999979E-003     0.0000000000000000     
  -1.1999999999999997E-003     0.0000000000000000     
  -8.9999999999999976E-004     0.0000000000000000     
  -5.9999999999999810E-004     0.0000000000000000     
  -2.9999999999999992E-004     0.0000000000000000     
   0.0000000000000000          0.0000000000000000     
   3.0000000000000165E-004     0.0000000000000000     
   5.9999999999999984E-004     0.0000000000000000     
   9.0000000000000149E-004     0.0000000000000000     
   1.2000000000000031E-003     0.0000000000000000     
   1.5000000000000013E-003     0.0000000000000000     
   1.8000000000000030E-003     0.0000000000000000     
   2.1000000000000012E-003     0.0000000000000000     
   2.3999999999999994E-003     0.0000000000000000     
   2.7000000000000010E-003     0.0000000000000000     
   2.9999999999999992E-003     0.0000000000000000     
   3.3000000000000008E-003     0.0000000000000000     
   3.6000000000000025E-003     0.0000000000000000     
   3.9000000000000007E-003     0.0000000000000000     
   4.2000000000000023E-003     0.0000000000000000     
   4.5000000000000005E-003     0.0000000000000000     
   4.7999999999999987E-003     0.0000000000000000     
   5.1000000000000004E-003     0.0000000000000000     
   5.4000000000000020E-003     0.0000000000000000     
   5.7000000000000037E-003     0.0000000000000000     
   5.9999999999999984E-003     0.0000000000000000     
   6.3000000000000000E-003     0.0000000000000000     
   6.6000000000000017E-003     0.0000000000000000     
   6.9000000000000034E-003     0.0000000000000000     
   7.2000000000000015E-003     0.0000000000000000     
   7.5000000000000032E-003    -1.9868189764761487E-037
   7.8000000000000014E-003    -2.7447917866063065E-036
   8.0999999999999996E-003     1.4732226202789410E-035
   8.4000000000000012E-003     2.6717536281838485E-035
   8.7000000000000029E-003    -1.4170376989421719E-034
   9.0000000000000011E-003    -2.0644445358146864E-036
   9.2999999999999992E-003     1.6877811534005680E-033
   9.6000000000000009E-003    -1.7063057309474218E-033
   9.8999999999999991E-003    -2.0651059521469780E-032
   1.0200000000000001E-002     1.0243021034956047E-031
   1.0500000000000002E-002     2.8775156654758068E-032
   1.0800000000000004E-002    -2.4109208627746070E-030
   1.1099999999999999E-002     1.0908211071444112E-029
   1.1400000000000000E-002    -6.6664958501760558E-030
   1.1700000000000002E-002    -1.5757405372825549E-028
   1.2000000000000004E-002     8.6208404989412490E-028
   1.2300000000000002E-002    -1.8300303753590747E-027
   1.2600000000000000E-002    -2.5932646893265979E-027
   1.2900000000000002E-002     3.2608129779712666E-026
   1.3200000000000000E-002    -1.1436939658858136E-025
   1.3500000000000002E-002     1.7804250772398135E-025
   1.3800000000000003E-002     2.1348527182078678E-025
   1.4100000000000001E-002    -2.1094972703486634E-024
   1.4400000000000000E-002     7.0445964543645384E-024
   1.4700000000000001E-002    -2.0070834810121510E-023
   1.4999999999999999E-002     7.6638475651187567E-023
   1.5300000000000001E-002    -3.2520352490949048E-022
   1.5600000000000003E-002     9.1641064911930232E-022
   1.5899999999999997E-002     7.8689619600961887E-022
   1.6199999999999999E-002    -2.9842403697203527E-020
   1.6500000000000001E-002     2.3554395250634119E-019
   1.6800000000000002E-002    -1.3453361565795984E-018
   1.7100000000000004E-002     6.5124722571547095E-018
   1.7400000000000006E-002    -2.8353956293024952E-017
   1.7700000000000000E-002     1.1402235844375118E-016
   1.8000000000000002E-002    -4.2639178682532226E-016
   1.8300000000000004E-002     1.4649417486103231E-015
   1.8600000000000005E-002    -4.4499549956567949E-015
   1.8900000000000000E-002     1.0824655249603617E-014
   1.9200000000000002E-002    -1.3889055995534035E-014
   1.9500000000000003E-002    -4.5366410695599285E-014
   1.9799999999999998E-002     4.2621583391262249E-013
   2.0100000000000000E-002    -1.8597803282491470E-012
   2.0400000000000001E-002     5.2901643239194103E-012
   2.0700000000000003E-002    -8.1576716744045738E-012
   2.0999999999999998E-002    -7.3715794553115740E-012
   2.1299999999999999E-002     8.2234777187922299E-011
   2.1600000000000001E-002    -2.0833855123005095E-010
   2.1900000000000003E-002     8.3405606624194764E-011
   2.2200000000000004E-002     9.2304210213875116E-010
   2.2500000000000006E-002    -2.1438303795231619E-009
   2.2800000000000001E-002    -1.0144439401301273E-009
   2.3100000000000002E-002     1.0236197093483201E-008
   2.3400000000000004E-002    -4.1718809389425409E-009
   2.3699999999999999E-002    -3.7397991001258131E-008
   2.4000000000000000E-002     1.5425881951045695E-008
   2.4300000000000002E-002     1.1585439759061478E-007
   2.4599999999999997E-002    -6.5473098559943919E-009
   2.4900000000000005E-002    -3.1385155513342738E-007
   2.5200000000000000E-002    -1.2916791241467857E-007
   2.5499999999999995E-002     9.9186948276925989E-007
   2.5800000000000003E-002     2.3298576690538374E-006
   2.6099999999999998E-002     3.0016612590941873E-006
   2.6400000000000007E-002     3.7900396029534741E-006
   2.6700000000000002E-002     6.5805871781441142E-006
   2.6999999999999996E-002     1.1908767541408776E-005
   2.7300000000000005E-002     1.8780720430674189E-005
   2.7600000000000000E-002     2.7516239758160915E-005
   2.7900000000000008E-002     4.1132576915633035E-005
   2.8200000000000003E-002     6.2966835099753041E-005
   2.8499999999999998E-002     9.4775195677832946E-005
   2.8800000000000006E-002     1.3896378331649866E-004
   2.9100000000000001E-002     2.0127789206310712E-004
   2.9400000000000003E-002     2.8934685881315102E-004
   2.9700000000000004E-002     4.1002835015294288E-004
   3.0000000000000006E-002     5.7085683570545949E-004
   3.0300000000000001E-002     7.8329318413370569E-004
   3.0600000000000002E-002     1.0615271904477960E-003
   3.0900000000000004E-002     1.4181230679970180E-003
   3.1199999999999999E-002     1.8635015561871415E-003
   3.1500000000000007E-002     2.4092289238228648E-003
   3.1800000000000002E-002     3.0676058097272585E-003
   3.2099999999999997E-002     3.8453789300709335E-003
   3.2400000000000005E-002     4.7394278894577480E-003
   3.2700000000000000E-002     5.7381039308085358E-003
   3.3000000000000002E-002     6.8217812835010827E-003
   3.3300000000000003E-002     7.9572677950844328E-003
   3.3599999999999998E-002     9.0926405406863142E-003
   3.3900000000000000E-002     1.0159382528003080E-002
   3.4200000000000001E-002     1.1077296612078791E-002
   3.4500000000000003E-002     1.1754207966276242E-002
   3.4799999999999998E-002     1.2086547524339408E-002
   3.5099999999999999E-002     1.1967347279197182E-002
   3.5400000000000001E-002     1.1298704767539747E-002
   3.5699999999999996E-002     1.0001353515593059E-002
   3.6000000000000004E-002     8.0182731627505555E-003
   3.6299999999999999E-002     5.3266641301758233E-003
   3.6600000000000008E-002     1.9523680153333556E-003
   3.6900000000000002E-002    -2.0235085474781603E-003
   3.7199999999999997E-002    -6.4678340819888658E-003
   3.7500000000000006E-002    -1.1195887116848269E-002
   3.7800000000000000E-002    -1.5969876781109005E-002
   3.8100000000000009E-002    -2.0506369608984221E-002
   3.8400000000000004E-002    -2.4491756729200120E-002
   3.8699999999999998E-002    -2.7599550518251470E-002
   3.9000000000000007E-002    -2.9501812507367053E-002
   3.9300000000000002E-002    -2.9877997157831127E-002
   3.9600000000000003E-002    -2.8431139760233815E-002
   3.9900000000000005E-002    -2.4900936958647368E-002
   4.0200000000000000E-002    -1.9067556697130117E-002
   4.0500000000000001E-002    -1.0754399322780994E-002
   4.0800000000000003E-002     1.6202780145327389E-004
   4.1100000000000005E-002     1.3739689871055810E-002
   4.1399999999999999E-002     2.9965939255666985E-002
   4.1700000000000008E-002     4.8747877432704367E-002
   4.2000000000000003E-002     6.9877058081655008E-002
   4.2299999999999997E-002     9.2998276512366029E-002
   4.2600000000000006E-002    0.11759662986796249     
   4.2900000000000001E-002    0.14297866123057279     
   4.3200000000000002E-002    0.16824874825017666     
   4.3500000000000004E-002    0.19230099504544729     
   4.3799999999999999E-002    0.21385366890152291     
   4.4100000000000000E-002    0.23150647979991845     
   4.4400000000000002E-002    0.24380499598498684     
   4.4700000000000004E-002    0.24932445530907454     
   4.4999999999999998E-002    0.24677446293282568     
   4.5300000000000000E-002    0.23512299202325160     
   4.5600000000000002E-002    0.21370629900424287     
   4.5899999999999996E-002    0.18231274587207480     
   4.6200000000000005E-002    0.14121495675420537     
   4.6500000000000000E-002     9.1189342611143420E-002
   4.6799999999999994E-002     3.3495554441191455E-002
   4.7100000000000003E-002    -3.0205043763339878E-002
   4.7399999999999998E-002    -9.7976742115292725E-002
   4.7700000000000006E-002   -0.16775920903042740     
   4.8000000000000001E-002   -0.23749488070004432     
   4.8300000000000010E-002   -0.30527002518842838     
   4.8600000000000004E-002   -0.36945621523608807     
   4.8899999999999999E-002   -0.42877070681229945     
   4.9200000000000008E-002   -0.48232151828956660     
   4.9500000000000002E-002   -0.52958727372298320     
   4.9800000000000011E-002   -0.57032253111524511     
   5.0100000000000006E-002   -0.60449381177061667     
   5.0400000000000000E-002   -0.63213448721939614     
   5.0700000000000009E-002   -0.65319448775988675     
   5.1000000000000004E-002   -0.66743524399765519     
   5.1299999999999998E-002   -0.67428669547200926     
   5.1600000000000007E-002   -0.67280973868519212     
   5.1900000000000002E-002   -0.66169118825749607     
   5.2200000000000010E-002   -0.63923063817102488     
   5.2500000000000005E-002   -0.60351332726104800     
   5.2800000000000000E-002   -0.55251650032155553     
   5.3099999999999994E-002   -0.48428241223905921     
   5.3400000000000003E-002   -0.39721707737706247     
   5.3699999999999998E-002   -0.29027508805456037     
   5.4000000000000006E-002   -0.16323502794981781     
   5.4300000000000001E-002    -1.6967406674064600E-002
   5.4599999999999996E-002    0.14650877071388857     
   5.4900000000000004E-002    0.32385266278035685     
   5.5199999999999999E-002    0.51031609225987928     
   5.5499999999999994E-002    0.69999830267303409     
   5.5800000000000002E-002    0.88595829573559470     
   5.6099999999999997E-002     1.0604844233330866     
   5.6400000000000006E-002     1.2156451939774442     
   5.6700000000000000E-002     1.3436796498380659     
   5.6999999999999995E-002     1.4375025225360147     
   5.7300000000000004E-002     1.4912796253299021     
   5.7599999999999998E-002     1.5009074362348542     
   5.7900000000000007E-002     1.4643676755604886     
   5.8200000000000002E-002     1.3819429263167109     
   5.8499999999999996E-002     1.2563488503032048     
   5.8800000000000005E-002     1.0926763134345450     
   5.9100000000000000E-002    0.89809049893208126     
   5.9400000000000008E-002    0.68145884269604551     
   5.9700000000000003E-002    0.45284396199093457     
   6.0000000000000012E-002    0.22276481980526341     
   6.0300000000000006E-002     1.6047103091292314E-003
   6.0600000000000001E-002   -0.20098526885210632     
   6.0900000000000010E-002   -0.37679697180715888     
   6.1200000000000004E-002   -0.51957192395486196     
   6.1500000000000013E-002   -0.62534827152368955     
   6.1800000000000008E-002   -0.69267848744077298     
   6.2100000000000002E-002   -0.72275747362799692     
   6.2399999999999997E-002   -0.71929446973894073     
   6.2700000000000006E-002   -0.68824300879218114     
   6.3000000000000000E-002   -0.63739538060099932     
   6.3300000000000009E-002   -0.57582978804625284     
   6.3600000000000004E-002   -0.51323184357908502     
   6.3899999999999998E-002   -0.45918145146612233     
   6.4199999999999993E-002   -0.42250497518161900     
   6.4500000000000002E-002   -0.41047164405438785     
   6.4800000000000010E-002   -0.42806875849920623     
   6.5100000000000005E-002   -0.47765734642935875     
   6.5400000000000000E-002   -0.55856451327055190     
   6.5700000000000008E-002   -0.66683141025818671     
   6.5999999999999989E-002   -0.79534477308358831     
   6.6299999999999998E-002   -0.93430954927065457     
   6.6600000000000006E-002    -1.0718183665460188     
   6.6900000000000001E-002    -1.1945226280643837     
   6.7199999999999996E-002    -1.2886859706450480     
   6.7500000000000004E-002    -1.3413959375394242     
   6.7800000000000013E-002    -1.3416374260015544     
   6.8099999999999994E-002    -1.2812077063481908     
   6.8400000000000002E-002    -1.1557554351336066     
   6.8700000000000011E-002   -0.96533167760976468     
   6.8999999999999992E-002   -0.71472827803084371     
   6.9300000000000000E-002   -0.41348496178894933     
   6.9600000000000009E-002    -7.5356114692302301E-002
   6.9900000000000004E-002    0.28251724603164785     
   7.0199999999999999E-002    0.64052936429946428     
   7.0500000000000007E-002    0.97804296754220843     
   7.0800000000000016E-002     1.2748979650530856     
   7.1099999999999997E-002     1.5129801623122390     
   7.1400000000000005E-002     1.6773802628646663     
   7.1700000000000000E-002     1.7575402777848481     
   7.1999999999999995E-002     1.7482962706390381     
   7.2300000000000003E-002     1.6502327753729702     
   7.2600000000000012E-002     1.4696032351733948     
   7.2900000000000006E-002     1.2181162346359073     
   7.3200000000000001E-002    0.91197503744444219     
   7.3499999999999996E-002    0.57089995908159175     
   7.3800000000000004E-002    0.21683134052859554     
   7.4099999999999999E-002   -0.12762734109940777     
   7.4400000000000008E-002   -0.44064098110666317     
   7.4700000000000003E-002   -0.70260155903545929     
   7.5000000000000011E-002   -0.89739670467580268     
   7.5299999999999992E-002    -1.0132570792706659     
   7.5600000000000001E-002    -1.0435593185281959     
   7.5900000000000009E-002   -0.98733661303831965     
   7.6200000000000004E-002   -0.84879802188111242     
   7.6499999999999999E-002   -0.63731440955082519     
   7.6800000000000007E-002   -0.36672056247104656     
   7.7099999999999988E-002    -5.4205227456769034E-002
   7.7399999999999997E-002    0.28079614967290123     
   7.7700000000000005E-002    0.61802525324038537     
   7.8000000000000014E-002    0.93741413616951696     
   7.8299999999999995E-002     1.2202402261605592     
   7.8600000000000003E-002     1.4505284100416844     
   7.8900000000000012E-002     1.6155952663919635     
   7.9199999999999993E-002     1.7065483054087380     
   7.9500000000000001E-002     1.7186736352427445     
   7.9800000000000010E-002     1.6511801673489686     
   8.0100000000000018E-002     1.5069793951521291     
   8.0399999999999999E-002     1.2923055714521965     
   8.0700000000000008E-002     1.0160910448483378     
   8.1000000000000003E-002    0.68951470331313658     
   8.1299999999999997E-002    0.32512531222362728     
   8.1600000000000006E-002    -6.3563440575492791E-002
   8.1900000000000014E-002   -0.46207899455255941     
   8.2199999999999995E-002   -0.85568996679366993     
   8.2500000000000004E-002    -1.2298036649247006     
   8.2799999999999999E-002    -1.5700844351441852     
   8.3100000000000007E-002    -1.8629570498149164     
   8.3400000000000002E-002    -2.0958991133994900     
   8.3700000000000011E-002    -2.2581874333459453     
   8.4000000000000005E-002    -2.3418647923615339     
   8.4300000000000000E-002    -2.3418082810892287     
   8.4599999999999995E-002    -2.2563039252632819     
   8.4900000000000003E-002    -2.0880141289713379     
   8.5199999999999998E-002    -1.8439700741888032     
   8.5500000000000007E-002    -1.5350176360296715     
   8.5800000000000001E-002    -1.1754674250744657     
   8.6100000000000010E-002   -0.78234814104536810     
   8.6399999999999991E-002   -0.37456002714334780     
   8.6699999999999999E-002     2.8848861978656437E-002
   8.7000000000000008E-002    0.41009955233496242     
   8.7300000000000003E-002    0.75344151258872061     
   8.7599999999999997E-002     1.0463127102753127     
   8.7900000000000006E-002     1.2801390169608418     
   8.8200000000000014E-002     1.4503269758554040     
   8.8499999999999995E-002     1.5565078257545792     
   8.8800000000000004E-002     1.6016032022596249     
   8.9100000000000013E-002     1.5912678686717427     
   8.9399999999999993E-002     1.5331984161713521     
   8.9700000000000002E-002     1.4358284637932570     
   9.0000000000000011E-002     1.3075262941092873     
   9.0299999999999991E-002     1.1559962468848468     
   9.0600000000000000E-002    0.98803460938472298     
   9.0900000000000009E-002    0.80934011335270739     
   9.1200000000000017E-002    0.62420886056739278     
   9.1499999999999998E-002    0.43598361460287371     
   9.1800000000000007E-002    0.24796435781486181     
   9.2100000000000001E-002     6.3429245527380829E-002
   9.2399999999999996E-002   -0.11440950032421249     
   9.2700000000000005E-002   -0.28160152872140909     
   9.3000000000000013E-002   -0.43350422566383884     
   9.3300000000000008E-002   -0.56512158444096272     
   9.3600000000000003E-002   -0.67122208010516715     
   9.3899999999999997E-002   -0.74706587461309581     
   9.4200000000000006E-002   -0.78863831052108679     
   9.4500000000000001E-002   -0.79299645014213738     
   9.4800000000000009E-002   -0.75897472179671510     
   9.5100000000000004E-002   -0.68746423806523893     
   9.5399999999999999E-002   -0.58162395728246707     
   9.5699999999999993E-002   -0.44647982474011627     
   9.6000000000000002E-002   -0.28892537053933331     
   9.6300000000000011E-002   -0.11790266772686397     
   9.6600000000000005E-002     5.6442061613706462E-002
   9.6900000000000000E-002    0.22339591880754384     
   9.7200000000000009E-002    0.37210613746864141     
   9.7499999999999989E-002    0.49220813918130801     
   9.7799999999999998E-002    0.57405813696963648     
   9.8100000000000007E-002    0.60976494857035490     
   9.8400000000000015E-002    0.59407900896025723     
   9.8699999999999996E-002    0.52459931543851823     
   9.9000000000000005E-002    0.40192221348291213     
   9.9300000000000013E-002    0.23030637007307764     
   9.9599999999999994E-002     1.8249515680287987E-002
   9.9900000000000003E-002   -0.22205051365321715     
  0.10020000000000001        -0.47530617058875801     
  0.10049999999999999        -0.72361748984692120     
  0.10080000000000000        -0.94727588479271674     
  0.10110000000000001         -1.1262816708589796     
  0.10140000000000000         -1.2422637254422639     
  0.10170000000000000         -1.2796271920029056     
  0.10200000000000001         -1.2272111581247316     
  0.10230000000000002         -1.0799659164013349     
  0.10260000000000000        -0.83947878891044780     
  0.10290000000000001        -0.51447861959092478     
  0.10320000000000000        -0.12098767000394772     
  0.10350000000000001         0.31911971697883068     
  0.10380000000000000         0.77938270482775796     
  0.10410000000000001          1.2307793371102882     
  0.10440000000000001          1.6440627743762128     
  0.10470000000000000          1.9919892479689096     
  0.10500000000000000          2.2520713450709948     
  0.10530000000000000          2.4082050597517366     
  0.10560000000000000          2.4515673039045680     
  0.10590000000000001          2.3816112852131681     
  0.10620000000000000          2.2057842696652727     
  0.10650000000000001          1.9383770880412783     
  0.10679999999999999          1.5991317474595306     
  0.10710000000000000          1.2107265073746944     
  0.10740000000000001         0.79696211426971075     
  0.10770000000000000         0.38107246445737175     
  0.10800000000000000         -1.6713883640461002E-002
  0.10830000000000001        -0.38082548146866912     
  0.10859999999999999        -0.70053040045539205     
  0.10890000000000000        -0.96988000981939670     
  0.10920000000000001         -1.1874643431345611     
  0.10950000000000001         -1.3560470660659476     
  0.10979999999999999         -1.4809158970706804     
  0.11009999999999999         -1.5681455240259297     
  0.11040000000000001         -1.6239007089197557     
  0.11070000000000001         -1.6534770724109507     
  0.11100000000000000         -1.6606242153649546     
  0.11130000000000000         -1.6471357204895440     
  0.11160000000000002         -1.6124334478715312     
  0.11190000000000001         -1.5551369240132118     
  0.11220000000000001         -1.4738254133626256     
  0.11250000000000000         -1.3667702902156122     
  0.11280000000000000         -1.2328548817302902     
  0.11309999999999999         -1.0731894687063104     
  0.11340000000000001        -0.89132742299206669     
  0.11369999999999998        -0.69314764385242711     
  0.11400000000000000        -0.48619218175151246     
  0.11430000000000000        -0.28041670244235917     
  0.11460000000000002         -8.7343595198424273E-002
  0.11489999999999999          8.1278012722883375E-002
  0.11520000000000001         0.21396444324831787     
  0.11550000000000001         0.30068050187217477     
  0.11580000000000000         0.33340655327347202     
  0.11609999999999999         0.30699584148479442     
  0.11640000000000002         0.22029416611574604     
  0.11670000000000001          7.6504305725112243E-002
  0.11700000000000001        -0.11695394066816478     
  0.11730000000000000        -0.34824162547331028     
  0.11760000000000000        -0.60131218059591163     
  0.11789999999999999        -0.85662465809771149     
  0.11820000000000001         -1.0920227167603187     
  0.11850000000000001         -1.2841092543835444     
  0.11880000000000000         -1.4097172129624695     
  0.11910000000000000         -1.4476081810671033     
  0.11940000000000002         -1.3803595294818436     
  0.11970000000000001         -1.1956292624031164     
  0.12000000000000001        -0.88802512071820061     
  0.12030000000000000        -0.46112634834146249     
  0.12060000000000000          7.2742273549017078E-002
  0.12089999999999999         0.69285074306038830     
  0.12119999999999999          1.3697125870110476     
  0.12150000000000001          2.0666225580572046     
  0.12180000000000001          2.7422013608961677     
  0.12210000000000000          3.3535124467270805     
  0.12239999999999999          3.8590504820520977     
  0.12270000000000002          4.2213356117498080     
  0.12300000000000001          4.4108233914517143     
  0.12330000000000001          4.4092491750606655     
  0.12360000000000000          4.2106966185185684     
  0.12390000000000000          3.8223545182557075     
  0.12419999999999999          3.2643018494463547     
  0.12450000000000001          2.5688277811751163     
  0.12480000000000001          1.7782721523942868     
  0.12509999999999999         0.94000574622894817     
  0.12540000000000001         0.10335980369099040     
  0.12570000000000003        -0.68295374644645435     
  0.12600000000000000         -1.3760092909385655     
  0.12630000000000002         -1.9424476777353803     
  0.12659999999999999         -2.3594122477408561     
  0.12690000000000001         -2.6164953668975741     
  0.12719999999999998         -2.7161056057741177     
  0.12750000000000000         -2.6731111436330082     
  0.12780000000000002         -2.5121946338300774     
  0.12809999999999999         -2.2652031022617933     
  0.12840000000000001         -1.9691077322655985     
  0.12869999999999998         -1.6621515442748915     
  0.12900000000000000         -1.3797624647175795     
  0.12930000000000003         -1.1522626456690332     
  0.12959999999999999         -1.0024278897016572     
  0.12990000000000002        -0.94332945795972378     
  0.13019999999999998        -0.97721504335971687     
  0.13050000000000000         -1.0949920874128480     
  0.13080000000000003         -1.2779669305351220     
  0.13109999999999999         -1.4989811560931301     
  0.13140000000000002         -1.7241498825899200     
  0.13169999999999998         -1.9160209300533779     
  0.13200000000000001         -2.0371972750883032     
  0.13229999999999997         -2.0536633253391159     
  0.13260000000000000         -1.9378897345764940     
  0.13290000000000002         -1.6706342718425731     
  0.13319999999999999         -1.2439447230007872     
  0.13350000000000001        -0.66345299312730965     
  0.13380000000000003          5.3028552573699983E-002
  0.13410000000000000         0.87551516698168541     
  0.13440000000000002          1.7630484605306354     
  0.13469999999999999          2.6661496272028948     
  0.13500000000000001          3.5300769301739336     
  0.13529999999999998          4.2986120586551664     
  0.13560000000000000          4.9175116164960713     
  0.13590000000000002          5.3381162174903807     
  0.13619999999999999          5.5219844741213251     
  0.13650000000000001          5.4430543005446737     
  0.13680000000000003          5.0896345210517495     
  0.13710000000000000          4.4665694185743803     
  0.13740000000000002          3.5957911513466172     
  0.13769999999999999          2.5147334487414810     
  0.13800000000000001          1.2746605448543917     
  0.13829999999999998         -6.2301012832836733E-002
  0.13860000000000000         -1.4268526773307286     
  0.13890000000000002         -2.7469976744379032     
  0.13919999999999999         -3.9537388108194733     
  0.13950000000000001         -4.9854827420937440     
  0.13979999999999998         -5.7914569237677540     
  0.14010000000000000         -6.3362581989754574     
  0.14040000000000002         -6.6019474132006337     
  0.14069999999999999         -6.5884494674357654     
  0.14100000000000001         -6.3127675220387687     
  0.14130000000000004         -5.8064939100059405     
  0.14160000000000000         -5.1131908309829441     
  0.14189999999999997         -4.2838758759423285     
  0.14219999999999999         -3.3713843507784276     
  0.14250000000000002         -2.4259281526745156     
  0.14279999999999998         -1.4915798202395862     
  0.14310000000000000        -0.60307427919012113     
  0.14339999999999997         0.21633791828291749     
  0.14369999999999999         0.95604144335815988     
  0.14400000000000002          1.6160697714109737     
  0.14429999999999998          2.2048825352534651     
  0.14460000000000001          2.7371418054868890     
  0.14490000000000003          3.2299794427325423     
  0.14520000000000000          3.6992096264273400     
  0.14550000000000002          4.1564853630825738     
  0.14579999999999999          4.6062118862893584     
  0.14610000000000001          5.0446781646702874     
  0.14640000000000003          5.4598477836315737     
  0.14670000000000000          5.8311533752192730     
  0.14699999999999996          6.1318188014526811     
  0.14729999999999999          6.3313008631319008     
  0.14760000000000001          6.3976822036223666     
  0.14789999999999998          6.3011528129308090     
  0.14820000000000000          6.0171004453689250     