  -1.4999999999999999E-002     0.0000000000000000     
  -1.4700000000000000E-002     3.3748158357679349E-007
  -1.4400000000000000E-002    -1.5022033812648630E-007
  -1.4100000000000000E-002    -1.6094807279498666E-005
  -1.3800000000000000E-002     3.0605335548111739E-006
  -1.3500000000000000E-002     7.0437818721129429E-005
  -1.3200000000000000E-002     6.4589619152942174E-005
  -1.2899999999999998E-002     9.1999187173210143E-006
  -1.2600000000000000E-002    -5.0519221514695972E-005
  -1.2299999999999998E-002    -3.0852568052877030E-005
  -1.2000000000000000E-002     1.2006151112954491E-004
  -1.1699999999999999E-002     3.5856752613949174E-004
  -1.1399999999999999E-002     8.0661480274424801E-004
  -1.1099999999999999E-002     1.2852747915144819E-003
  -1.0799999999999999E-002     1.5927389746789463E-003
  -1.0499999999999999E-002     2.1824663506111175E-003
  -1.0199999999999999E-002     3.3849073388075440E-003
  -9.8999999999999991E-003     4.7824975277929033E-003
  -9.5999999999999992E-003     6.5166655749580443E-003
  -9.2999999999999992E-003     9.4854116024198076E-003
  -8.9999999999999993E-003     1.3710067137168672E-002
  -8.6999999999999994E-003     1.8955692132130816E-002
  -8.3999999999999995E-003     2.5831057432853022E-002
  -8.0999999999999996E-003     3.5399495817089233E-002
  -7.7999999999999988E-003     4.7670123064661341E-002
  -7.4999999999999997E-003     6.2060209333466343E-002
  -7.1999999999999998E-003     7.9230515736826934E-002
  -6.8999999999999981E-003     9.8847203230485237E-002
  -6.5999999999999982E-003    0.11916690626019455     
  -6.3000000000000000E-003    0.13827678760850670     
  -6.0000000000000001E-003    0.15315990961536619     
  -5.6999999999999985E-003    0.15908999182114680     
  -5.3999999999999986E-003    0.14855584443023551     
  -5.1000000000000004E-003    0.11206159298861784     
  -4.7999999999999987E-003     3.7930984764334319E-002
  -4.5000000000000005E-003    -8.8130982781809308E-002
  -4.1999999999999989E-003   -0.28236901902211820     
  -3.8999999999999990E-003   -0.56340124163786243     
  -3.5999999999999990E-003   -0.94947216552085756     
  -3.2999999999999991E-003    -1.4564830539955356     
  -2.9999999999999992E-003    -2.0958128561071980     
  -2.6999999999999993E-003    -2.8712006097325169     
  -2.3999999999999994E-003    -3.7753959634138834     
  -2.0999999999999977E-003    -4.7851023527434462     
  -1.7999999999999995E-003    -5.8594248086625207     
  -1.4999999999999979E-003    -6.9363558085413572     
  -1.1999999999999997E-003    -7.9311935165036758     
  -8.9999999999999976E-004    -8.7394169791586194     
  -5.9999999999999810E-004    -9.2385142085957739     
  -2.9999999999999992E-004    -9.2963172417339308     
   0.0000000000000000         -8.7805354125875965     
   3.0000000000000165E-004    -7.5710522544911498     
   5.9999999999999984E-004    -5.5758769208864436     
   9.0000000000000149E-004    -2.7444475344947108     
   1.2000000000000031E-003    0.91521883247531832     
   1.5000000000000013E-003     5.3256116470819848     
   1.8000000000000030E-003     10.333096880416122     
   2.1000000000000012E-003     15.704971673655166     
   2.3999999999999994E-003     21.138651252156563     
   2.7000000000000010E-003     26.274667702587863     
   2.9999999999999992E-003     30.720820502599231     
   3.3000000000000008E-003     34.082097068110812     
   3.6000000000000025E-003     35.993499405508317     
   3.9000000000000007E-003     36.157237700689620     
   4.2000000000000023E-003     34.373634802246215     
   4.5000000000000005E-003     30.570404260385430     
   4.7999999999999987E-003     24.819157351760737     
   5.1000000000000004E-003     17.338005309535674     
   5.4000000000000020E-003     8.4881900755425441     
   5.7000000000000037E-003    -1.2509130915643709     
   5.9999999999999984E-003    -11.315605242364200     
   6.3000000000000000E-003    -21.099124553840397     
   6.6000000000000017E-003    -30.001768059344158     
   6.9000000000000034E-003    -37.476716935524678     
   7.2000000000000015E-003    -43.076181812972322     
   7.5000000000000032E-003    -46.485449218560007     
   7.8000000000000014E-003    -47.545084826535344     
   8.0999999999999996E-003    -46.262351962538673     
   8.4000000000000012E-003    -42.802326235444639     
   8.7000000000000029E-003    -37.470984590158082     
   9.0000000000000011E-003    -30.684015398226961     
   9.2999999999999992E-003    -22.926650220447129     
   9.6000000000000009E-003    -14.716132242726815     
   9.8999999999999991E-003    -6.5576042793823142     
   1.0200000000000001E-002     1.0930497110063868     
   1.0500000000000002E-002     7.8567335350273879     
   1.0800000000000004E-002     13.454089958779150     
   1.1099999999999999E-002     17.711778572937533     
   1.1400000000000000E-002     20.564800856192278     
   1.1700000000000002E-002     22.049232630020185     
   1.2000000000000004E-002     22.283761151825900     
   1.2300000000000002E-002     21.450976359343997     
   1.2600000000000000E-002     19.773621947071035     
   1.2900000000000002E-002     17.494721668025647     
   1.3200000000000000E-002     14.856935352782671     
   1.3500000000000002E-002     12.083972350346812     
   1.3800000000000003E-002     9.3681825002683752     
   1.4100000000000001E-002     6.8643428402524762     
   1.4400000000000000E-002     4.6865231025296339     
   1.4700000000000001E-002     2.9050242334451184     
   1.4999999999999999E-002     1.5515324963782700     
   1.5300000000000001E-002    0.62526687428041150     
   1.5600000000000003E-002     9.7293999696663747E-002
   1.5899999999999997E-002    -8.0301927352776303E-002
   1.6199999999999999E-002     3.0045996699791577E-002
   1.6500000000000001E-002    0.35839363944889691     
   1.6800000000000002E-002    0.83318575474788759     
   1.7100000000000004E-002     1.3831575862118157     
   1.7400000000000006E-002     1.9429044171849625     
   1.7700000000000000E-002     2.4535907873872418     
   1.8000000000000002E-002     2.8636196081854450     
   1.8300000000000004E-002     3.1328468473197617     
   1.8600000000000005E-002     3.2312997947865654     
   1.8900000000000000E-002     3.1394697323746925     
   1.9200000000000002E-002     2.8506083366087225     
   1.9500000000000003E-002     2.3682356661877186     
   1.9799999999999998E-002     1.7081430810862628     
   2.0100000000000000E-002    0.89768792345099158     
   2.0400000000000001E-002    -2.8702292599638746E-002
   2.0700000000000003E-002    -1.0277542800467998     
   2.0999999999999998E-002    -2.0506582501200583     
   2.1299999999999999E-002    -3.0483468025013849     
   2.1600000000000001E-002    -3.9706341138037118     
   2.1900000000000003E-002    -4.7734998107618480     
   2.2200000000000004E-002    -5.4191660063892755     
   2.2500000000000006E-002    -5.8787918999064459     
   2.2800000000000001E-002    -6.1365014036035461     
   2.3100000000000002E-002    -6.1861476836096756     
   2.3400000000000004E-002    -6.0347377034029819     
   2.3699999999999999E-002    -5.7005804279607162     
   2.4000000000000000E-002    -5.2088958741569797     
   2.4300000000000002E-002    -4.5929848711283512     
   2.4599999999999997E-002    -3.8901861848205641     
   2.4900000000000005E-002    -3.1381018345414731     
   2.5200000000000000E-002    -2.3740029422632176     
   2.5499999999999995E-002    -1.6308507853255776     
   2.5800000000000003E-002   -0.93677790481117285     
   2.6099999999999998E-002   -0.31427054527371467     
   2.6400000000000007E-002    0.22099575213072553     
   2.6700000000000002E-002    0.66005146603923137     
   2.6999999999999996E-002    0.99999858989001922     
   2.7300000000000005E-002     1.2429261514319592     
   2.7600000000000000E-002     1.3950358148203463     
   2.7900000000000008E-002     1.4660837489220455     
   2.8200000000000003E-002     1.4684514339201868     
   2.8499999999999998E-002     1.4149628966529377     
   2.8800000000000006E-002     1.3192429137187531     
   2.9100000000000001E-002     1.1947885274189929     
   2.9400000000000003E-002     1.0539789074465808     
   2.9700000000000004E-002    0.90834773218599096     
   3.0000000000000006E-002    0.76766654461296469     
   3.0300000000000001E-002    0.63920632157059742     
   3.0600000000000002E-002    0.52968019592872295     
   3.0900000000000004E-002    0.44407121615901346     
   3.1199999999999999E-002    0.38408817008709839     
   3.1500000000000007E-002    0.35180218311820433     
   3.1800000000000002E-002    0.34694874254150676     
   3.2099999999999997E-002    0.36877016066222978     
   3.2400000000000005E-002    0.41542897172280213     
   3.2700000000000000E-002    0.48381496917158451     
   3.3000000000000002E-002    0.57155064550851264     
   3.3300000000000003E-002    0.67432094063257253     
   3.3599999999999998E-002    0.78718034780119339     
   3.3900000000000000E-002    0.90577973888406760     
   3.4200000000000001E-002     1.0240142141457369     
   3.4500000000000003E-002     1.1355181772940952     
   3.4799999999999998E-002     1.2341203965640020     
   3.5099999999999999E-002     1.3132016630431025     
   3.5400000000000001E-002     1.3661168337219962     
   3.5699999999999996E-002     1.3868196107528235     
   3.6000000000000004E-002     1.3710864501644835     
   3.6299999999999999E-002     1.3153266493556259     
   3.6600000000000008E-002     1.2190518940132833     
   3.6900000000000002E-002     1.0826802450793451     
   3.7199999999999997E-002    0.90921518181053784     
   3.7500000000000006E-002    0.70421765415731130     
   3.7800000000000000E-002    0.47554794914366205     
   3.8100000000000009E-002    0.23280884199891361     
   3.8400000000000004E-002    -1.5356831507823632E-002
   3.8699999999999998E-002   -0.25743916060618477     
   3.9000000000000007E-002   -0.48199383453949807     
   3.9300000000000002E-002   -0.68060592163324785     
   3.9600000000000003E-002   -0.84515289470531840     
   3.9900000000000005E-002   -0.96936993549452311     
   4.0200000000000000E-002    -1.0487399874121692     
   4.0500000000000001E-002    -1.0820694793697498     
   4.0800000000000003E-002    -1.0711734849931176     
   4.1100000000000005E-002    -1.0187551545470512     
   4.1399999999999999E-002   -0.93130015564041813     
   4.1700000000000008E-002   -0.81642619697519692     
   4.2000000000000003E-002   -0.68281415871434703     
   4.2299999999999997E-002   -0.54143115870518699     
   4.2600000000000006E-002   -0.40233411813639819     
   4.2900000000000001E-002   -0.27538484455497247     
   4.3200000000000002E-002   -0.16909231680837733     
   4.3500000000000004E-002    -9.0428441399993509E-002
   4.3799999999999999E-002    -4.4095648020549216E-002
   4.4100000000000000E-002    -2.9884990268158607E-002
   4.4400000000000002E-002    -4.4906657417394857E-002
   4.4700000000000004E-002    -8.3807809871934591E-002
   4.4999999999999998E-002   -0.13765492595701012     
   4.5300000000000000E-002   -0.19502156867256604     
   4.5600000000000002E-002   -0.24373362996091091     
   4.5899999999999996E-002   -0.27185888068001862     
   4.6200000000000005E-002   -0.27128090967166774     
   4.6500000000000000E-002   -0.23644176329187871     
   4.6799999999999994E-002   -0.16634740720889507     
   4.7100000000000003E-002    -6.6378074194719972E-002
   4.7399999999999998E-002     5.2414262874440620E-002
   4.7700000000000006E-002    0.17473944963840182     
   4.8000000000000001E-002    0.28225877001433552     
   4.8300000000000010E-002    0.35646873900472009     
   4.8600000000000004E-002    0.38035635149868163     
   4.8899999999999999E-002    0.34160589176606226     
   4.9200000000000008E-002    0.23578430066781589     
   4.9500000000000002E-002     6.7026021752977449E-002
   4.9800000000000011E-002   -0.15104424535117111     
   5.0100000000000006E-002   -0.39653112539642876     
   5.0400000000000000E-002   -0.64225168340442629     
   5.0700000000000009E-002   -0.85629296488835394     
   5.1000000000000004E-002    -1.0073305548767486     
   5.1299999999999998E-002    -1.0707383878101027     
   5.1600000000000007E-002    -1.0292546006093701     
   5.1900000000000002E-002   -0.87813261517480967     
   5.2200000000000010E-002   -0.62492735377846742     
   5.2500000000000005E-002   -0.29087479634434232     
   5.2800000000000000E-002     9.0302822090416512E-002
   5.3099999999999994E-002    0.47860595338581291     
   5.3400000000000003E-002    0.83000358383007367     
   5.3699999999999998E-002     1.1023925389190374     
   5.4000000000000006E-002     1.2612033730179792     
   5.4300000000000001E-002     1.2827111682065313     
   5.4599999999999996E-002     1.1585276009283234     
   5.4900000000000004E-002    0.89707261432713103     
   5.5199999999999999E-002    0.52242496820205375     
   5.5499999999999994E-002     7.1781964935770048E-002
   5.5800000000000002E-002   -0.40735145564995889     
   5.6099999999999997E-002   -0.86382057363891107     
   5.6400000000000006E-002    -1.2476438180336160     
   5.6700000000000000E-002    -1.5148057984991397     
   5.6999999999999995E-002    -1.6347552499075348     
   5.7300000000000004E-002    -1.5904346026085037     
   5.7599999999999998E-002    -1.3815656518379775     
   5.7900000000000007E-002    -1.0247786944461159     
   5.8200000000000002E-002   -0.54984691523569496     
   5.8499999999999996E-002     9.6477767379710144E-004
   5.8800000000000005E-002    0.58034244286909598     
   5.9100000000000000E-002     1.1404717347126336     
   5.9400000000000008E-002     1.6353930164592754     
   5.9700000000000003E-002     2.0284349353046451     
   6.0000000000000012E-002     2.2928722454244195     
   6.0300000000000006E-002     2.4149748073616273     
   6.0600000000000001E-002     2.3943409811606209     
   6.0900000000000010E-002     2.2414964994906477     
   6.1200000000000004E-002     1.9768969867310524     
   6.1500000000000013E-002     1.6283952747395176     
   6.1800000000000008E-002     1.2266741101800562     
   6.2100000000000002E-002    0.80355142518752842     
   6.2399999999999997E-002    0.38863624969124266     
   6.2700000000000006E-002     5.9109787203777131E-003
   6.3000000000000000E-002   -0.32524465136653191     
   6.3300000000000009E-002   -0.59160374919820669     
   6.3600000000000004E-002   -0.78769201718626647     
   6.3899999999999998E-002   -0.91332017323254533     
   6.4199999999999993E-002   -0.97335384454633100     
   6.4500000000000002E-002   -0.97620425626604757     
   6.4800000000000010E-002   -0.93253526694852695     
   6.5100000000000005E-002   -0.85659777948269733     
   6.5400000000000000E-002   -0.76109361185694091     
   6.5700000000000008E-002   -0.65803918979765896     
   6.5999999999999989E-002   -0.55974968783252343     
   6.6299999999999998E-002   -0.47556542823700099     
   6.6600000000000006E-002   -0.41304828266371807     
   6.6900000000000001E-002   -0.37720469503632614     
   6.7199999999999996E-002   -0.36885596418039412     
   6.7500000000000004E-002   -0.38767103101268852     
   6.7800000000000013E-002   -0.43016306308928343     
   6.8099999999999994E-002   -0.49007702586736812     
   6.8400000000000002E-002   -0.56098528476629639     
   6.8700000000000011E-002   -0.63410169387825732     
   6.8999999999999992E-002   -0.70150222024324194     
   6.9300000000000000E-002   -0.75695598483364890     
   6.9600000000000009E-002   -0.79432197569464691     
   6.9900000000000004E-002   -0.81029228959205923     
   7.0199999999999999E-002   -0.80342093871419706     
   7.0500000000000007E-002   -0.77444929344126834     
   7.0800000000000016E-002   -0.72605936245197356     
   7.1099999999999997E-002   -0.66151195897858273     
   7.1400000000000005E-002   -0.58431582514304736     
   7.1700000000000000E-002   -0.49839704845026844     
   7.1999999999999995E-002   -0.40600948675318804     
   7.2300000000000003E-002   -0.30826541449357592     
   7.2600000000000012E-002   -0.20579824470349450     
   7.2900000000000006E-002    -9.6757912498889542E-002
   7.3200000000000001E-002     2.0280469755893205E-002
   7.3499999999999996E-002    0.14605311624759310     
   7.3800000000000004E-002    0.28281729157871638     
   7.4099999999999999E-002    0.42967971777628655     
   7.4400000000000008E-002    0.58427391715386179     
   7.4700000000000003E-002    0.74273374532457126     
   7.5000000000000011E-002    0.89841624981590584     
   7.5299999999999992E-002     1.0453066465310741     
   7.5600000000000001E-002     1.1745178865598405     
   7.5900000000000009E-002     1.2778631619196545     
   7.6200000000000004E-002     1.3491344372430163     
   7.6499999999999999E-002     1.3819600522768170     
   7.6800000000000007E-002     1.3730171777864655     
   7.7099999999999988E-002     1.3218708968048816     
   7.7399999999999997E-002     1.2296588783780891     
   7.7700000000000005E-002     1.1004044350537612     
   7.8000000000000014E-002    0.94039081051470674     
   7.8299999999999995E-002    0.75700688797414273     
   7.8600000000000003E-002    0.55900746566655002     
   7.8900000000000012E-002    0.35526858812850470     
   7.9199999999999993E-002    0.15377931073826900     
   7.9500000000000001E-002    -3.6220002263056494E-002
   7.9800000000000010E-002   -0.20787902993662666     
   8.0100000000000018E-002   -0.35595154556640907     
   8.0399999999999999E-002   -0.47453150219489793     
   8.0700000000000008E-002   -0.56205533715287004     
   8.1000000000000003E-002   -0.61702456950391138     
   8.1299999999999997E-002   -0.63889470056258091     
   8.1600000000000006E-002   -0.63106343448447788     
   8.1900000000000014E-002   -0.59663571837937468     
   8.2199999999999995E-002   -0.54095101427482817     
   8.2500000000000004E-002   -0.47055690089046820     
   8.2799999999999999E-002   -0.39124766561944746     
   8.3100000000000007E-002   -0.31206679554484840     
   8.3400000000000002E-002   -0.23905414840241379     
   8.3700000000000011E-002   -0.17691871046274210     
   8.4000000000000005E-002   -0.13198048309652721     
   8.4300000000000000E-002   -0.10714242011309283     
   8.4599999999999995E-002   -0.10301514221408281     
   8.4900000000000003E-002   -0.11928239934738283     
   8.5199999999999998E-002   -0.15274804174496825     
   8.5500000000000007E-002   -0.20095828404739446     
   8.5800000000000001E-002   -0.25913910942698593     
   8.6100000000000010E-002   -0.32160201681406519     
   8.6399999999999991E-002   -0.38481023733695885     
   8.6699999999999999E-002   -0.44421681396026713     
   8.7000000000000008E-002   -0.49629480240311707     
   8.7300000000000003E-002   -0.53982671965742313     
   8.7599999999999997E-002   -0.57302576263011673     
   8.7900000000000006E-002   -0.59488545874852861     
   8.8200000000000014E-002   -0.60618650745431779     
   8.8499999999999995E-002   -0.60688819760094859     
   8.8800000000000004E-002   -0.59702220493460700     
   8.9100000000000013E-002   -0.57651837662806926     
   8.9399999999999993E-002   -0.54429355337077112     
   8.9700000000000002E-002   -0.50040460856568814     
   9.0000000000000011E-002   -0.44393299840474576     
   9.0299999999999991E-002   -0.37314515269286552     
   9.0600000000000000E-002   -0.28881285497540787     
   9.0900000000000009E-002   -0.19025607903460173     
   9.1200000000000017E-002    -7.8729461301308756E-002
   9.1499999999999998E-002     4.2425438181103781E-002
   9.1800000000000007E-002    0.17110897533342051     
   9.2100000000000001E-002    0.30284089401214409     
   9.2399999999999996E-002    0.43260599647366327     
   9.2700000000000005E-002    0.55585411882564983     
   9.3000000000000013E-002    0.66694119390225381     
   9.3300000000000008E-002    0.76180068785976829     
   9.3600000000000003E-002    0.83695484353420113     
   9.3899999999999997E-002    0.88866557090076270     
   9.4200000000000006E-002    0.91585903305781713     
   9.4500000000000001E-002    0.91881009420477966     
   9.4800000000000009E-002    0.89747011956978184     
   9.5100000000000004E-002    0.85424211708647135     
   9.5399999999999999E-002    0.79172518633311384     
   9.5699999999999993E-002    0.71335053327480935     
   9.6000000000000002E-002    0.62445929246431575     
   9.6300000000000011E-002    0.52774610744414829     
   9.6600000000000005E-002    0.42828423201828869     
   9.6900000000000000E-002    0.33159690248030671     
   9.7200000000000009E-002    0.24006753227297040     
   9.7499999999999989E-002    0.15812411135200577     
   9.7799999999999998E-002     8.8294423738142891E-002
   9.8100000000000007E-002     3.1475425104286137E-002
   9.8400000000000015E-002    -1.0370387466194619E-002
   9.8699999999999996E-002    -3.8613662502987145E-002
   9.9000000000000005E-002    -5.4647979325397222E-002
   9.9300000000000013E-002    -6.1138805126916607E-002
   9.9599999999999994E-002    -6.2039683769809839E-002
   9.9900000000000003E-002    -5.9819833332092176E-002
  0.10020000000000001         -5.8475160449047880E-002
  0.10049999999999999         -6.2488050329647882E-002
  0.10080000000000000         -7.3121468791513378E-002
  0.10110000000000001         -9.1618601526541221E-002
  0.10140000000000000        -0.11884852301420024     
  0.10170000000000000        -0.15279632256396969     
  0.10200000000000001        -0.19141892909210334     
  0.10230000000000002        -0.23185814336387711     
  0.10260000000000000        -0.27030422477707372     
  0.10290000000000001        -0.30394018438033754     
  0.10320000000000000        -0.32994887809500462     
  0.10350000000000001        -0.34667814201837643     
  0.10380000000000000        -0.35482567537884613     
  0.10410000000000001        -0.35413063868654504     
  0.10440000000000001        -0.34725575089060090     
  0.10470000000000000        -0.33821345386964285     
  0.10500000000000000        -0.32906879920691434     
  0.10530000000000000        -0.32351304352814214     
  0.10560000000000000        -0.32448405675037950     
  0.10590000000000001        -0.33298555462365620     
  0.10620000000000000        -0.35019992439371528     
  0.10650000000000001        -0.37452034264672029     
  0.10679999999999999        -0.40390202052399538     
  0.10710000000000000        -0.43610325830841212     
  0.10740000000000001        -0.46623555756530521     
  0.10770000000000000        -0.49112404057656711     
  0.10800000000000000        -0.50723706822149950     
  0.10830000000000001        -0.51038784746920030     
  0.10859999999999999        -0.49931765610215528     
  0.10890000000000000        -0.47284280770342768     
  0.10920000000000001        -0.43022299419773802     
  0.10950000000000001        -0.37236969819896082     
  0.10979999999999999        -0.30156081836819659     
  0.11009999999999999        -0.22019127820607487     
  0.11040000000000001        -0.13152835297404852     
  0.11070000000000001         -3.8757391194198298E-002
  0.11100000000000000          5.3702473681880525E-002
  0.11130000000000000         0.14161172626853613     
  0.11160000000000002         0.22270518740803791     
  0.11190000000000001         0.29321396253907217     
  0.11220000000000001         0.34994011510864809     
  0.11250000000000000         0.39210455678663081     
  0.11280000000000000         0.41813328320982102     
  0.11309999999999999         0.42829895907456361     
  0.11340000000000001         0.42435810389581619     
  0.11369999999999998         0.40808106077525608     
  0.11400000000000000         0.38381990606200311     
  0.11430000000000000         0.35486462453988210     
  0.11460000000000002         0.32584246084620894     
  0.11489999999999999         0.30202647629327295     
  0.11520000000000001         0.28697638279770743     
  0.11550000000000001         0.28383742031382120     
  0.11580000000000000         0.29546042558883912     
  0.11609999999999999         0.32223343448477237     
  0.11640000000000002         0.36360071840560249     
  0.11670000000000001         0.41776652076387677     
  0.11700000000000001         0.48150244278312471     
  0.11730000000000000         0.55132796559816555     
  0.11760000000000000         0.62288039511497750     
  0.11789999999999999         0.69217549672917755     
  0.11820000000000001         0.75606190796250594     
  0.11850000000000001         0.81079793667505484     
  0.11880000000000000         0.85416842412155169     
  0.11910000000000000         0.88544333130942832     
  0.11940000000000002         0.90266662518289920     
  0.11970000000000001         0.90558764711058259     
  0.12000000000000001         0.89412381793245999     
  0.12030000000000000         0.86708108886943691     
  0.12060000000000000         0.82348119982215451     
  0.12089999999999999         0.76238112220456600     
  0.12119999999999999         0.68234953820691580     
  0.12150000000000001         0.58207487807459835     
  0.12180000000000001         0.45967874985330859     
  0.12210000000000000         0.31487317284684124     
  0.12239999999999999         0.14816151617838536     
  0.12270000000000002         -4.0074405273406999E-002
  0.12300000000000001        -0.24740235586350767     
  0.12330000000000001        -0.46956990206386529     
  0.12360000000000000        -0.70230082089462265     
  0.12390000000000000        -0.94029146521894447     
  0.12419999999999999         -1.1771799342797884     
  0.12450000000000001         -1.4061123018061323     
  0.12480000000000001         -1.6199775168081558     
  0.12509999999999999         -1.8128407941854050     
  0.12540000000000001         -1.9791221766337230     
  0.12570000000000003         -2.1127078991052883     
  0.12600000000000000         -2.2094006554912582     
  0.12630000000000002         -2.2661438519357731     
  0.12659999999999999         -2.2802478490164404     
  0.12690000000000001         -2.2514396028789534     
  0.12719999999999998         -2.1795511738496103     
  0.12750000000000000         -2.0659952548770235     
  0.12780000000000002         -1.9146503664599805     
  0.12809999999999999         -1.7294869066562839     
  0.12840000000000001         -1.5151823074960546     
  0.12869999999999998         -1.2776592055648024     
  0.12900000000000000         -1.0235035908504493     
  0.12930000000000003        -0.75935907819154025     
  0.12959999999999999        -0.49011473276591744     
  0.12990000000000002        -0.22070517108695498     
  0.13019999999999998          4.4217123972227212E-002
  0.13050000000000000         0.30199656951964027     
  0.13080000000000003         0.55151409797609574     
  0.13109999999999999         0.79157269410210418     
  0.13140000000000002          1.0218349483350231     
  0.13169999999999998          1.2430426170521258     
  0.13200000000000001          1.4547007708845072     
  0.13229999999999997          1.6562228533009602     
  0.13260000000000000          1.8465399364882558     
  0.13290000000000002          2.0234996629951922     
  0.13319999999999999          2.1841578383421307     
  0.13350000000000001          2.3243415406282111     
  0.13380000000000003          2.4409817945991819     
  0.13410000000000000          2.5310846069561563     
  0.13440000000000002          2.5901374284651695     
  0.13469999999999999          2.6164813196318164     
  0.13500000000000001          2.6098274184954420     
  0.13529999999999998          2.5699346936876708     
  0.13560000000000000          2.4983610962868283     
  0.13590000000000002          2.3979635077357813     
  0.13619999999999999          2.2719803460742867     
  0.13650000000000001          2.1242218388628515     
  0.13680000000000003          1.9583460772559320     
  0.13710000000000000          1.7781987255440086     
  0.13740000000000002          1.5863954001231235     
  0.13769999999999999          1.3847613837810115     
  0.13800000000000001          1.1754572834222365     
  0.13829999999999998         0.95889486929086587     
  0.13860000000000000         0.73356667634106998     
  0.13890000000000002         0.49919272281778504     
  0.13919999999999999         0.25514328496575545     
  0.13950000000000001         -8.2669141748992203E-004
  0.13979999999999998        -0.27003301263964907     
  0.14010000000000000        -0.55328734306286265     
  0.14040000000000002        -0.85141905171276377     
  0.14069999999999999         -1.1642835350131122     
  0.14100000000000001         -1.4915551438573758     
  0.14130000000000004         -1.8310262940918847     
  0.14160000000000000         -2.1793616875260469     
  0.14189999999999997         -2.5329996041700866     
  0.14219999999999999         -2.8858220452312224     
  0.14250000000000002         -3.2313239187650424     
  0.14279999999999998         -3.5617945694240802     
  0.14310000000000000         -3.8677903218886911     
  0.14339999999999997         -4.1404181257656774     
  0.14369999999999999         -4.3702576273696110     
  0.14400000000000002         -4.5477308422491376     
  0.14429999999999998         -4.6645176890602613     
  0.14460000000000001         -4.7130315218322494     
  0.14490000000000003         -4.6881994729324390     
  0.14520000000000000         -4.5863294277779687     
  0.14550000000000002         -4.4045417615529061     
  0.14579999999999999         -4.1430165713086637     
  0.14610000000000001         -3.8041598189456778     
  0.14640000000000003         -3.3901688409377186     
  0.14670000000000000         -2.9059466888612633     
  0.14699999999999996         -2.3577137779913215     
  0.14729999999999999         -1.7514650619441738     
  0.14760000000000001         -1.0950364825933434     
  0.14789999999999998        -0.39652044199809389     
  0.14820000000000000         0.33479628673170758     