  -1.4999999999999999E-002     0.0000000000000000     
  -1.4700000000000000E-002     0.0000000000000000     
  -1.4400000000000000E-002     0.0000000000000000     
  -1.4100000000000000E-002     0.0000000000000000     
  -1.3800000000000000E-002     0.0000000000000000     
  -1.3500000000000000E-002     0.0000000000000000     
  -1.3200000000000000E-002     0.0000000000000000     
  -1.2899999999999998E-002     0.0000000000000000     
  -1.2600000000000000E-002     0.0000000000000000     
  -1.2299999999999998E-002     0.0000000000000000     
  -1.2000000000000000E-002     0.0000000000000000     
  -1.1699999999999999E-002     0.0000000000000000     
  -1.1399999999999999E-002     0.0000000000000000     
  -1.1099999999999999E-002     0.0000000000000000     
  -1.0799999999999999E-002     0.0000000000000000     
  -1.0499999999999999E-002     0.0000000000000000     
  -1.0199999999999999E-002     0.0000000000000000     
  -9.8999999999999991E-003     0.0000000000000000     
  -9.5999999999999992E-003     0.0000000000000000     
  -9.2999999999999992E-003     0.0000000000000000     
  -8.9999999999999993E-003     0.0000000000000000     
  -8.6999999999999994E-003     0.0000000000000000     
  -8.3999999999999995E-003     0.0000000000000000     
  -8.0999999999999996E-003     0.0000000000000000     
  -7.7999999999999988E-003     0.0000000000000000     
  -7.4999999999999997E-003     0.0000000000000000     
  -7.1999999999999998E-003     0.0000000000000000     
  -6.8999999999999981E-003     0.0000000000000000     
  -6.5999999999999982E-003     0.0000000000000000     
  -6.3000000000000000E-003     0.0000000000000000     
  -6.0000000000000001E-003     0.0000000000000000     
  -5.6999999999999985E-003     0.0000000000000000     
  -5.3999999999999986E-003     0.0000000000000000     
  -5.1000000000000004E-003     0.0000000000000000     
  -4.7999999999999987E-003     0.0000000000000000     
  -4.5000000000000005E-003     0.0000000000000000     
  -4.1999999999999989E-003     0.0000000000000000     
  -3.8999999999999990E-003     0.0000000000000000     
  -3.5999999999999990E-003     0.0000000000000000     
  -3.2999999999999991E-003     0.0000000000000000     
  -2.9999999999999992E-003     0.0000000000000000     
  -2.6999999999999993E-003     0.0000000000000000     
  -2.3999999999999994E-003     0.0000000000000000     
  -2.0999999999999977E-003     0.0000000000000000     
  -1.7999999999999995E-003     0.0000000000000000     
  -1.4999999999999979E-003     0.0000000000000000     
  -1.1999999999999997E-003     0.0000000000000000     
  -8.9999999999999976E-004     0.0000000000000000     
  -5.9999999999999810E-004     0.0000000000000000     
  -2.9999999999999992E-004     0.0000000000000000     
   0.0000000000000000          0.0000000000000000     
   3.0000000000000165E-004     0.0000000000000000     
   5.9999999999999984E-004     0.0000000000000000     
   9.0000000000000149E-004     0.0000000000000000     
   1.2000000000000031E-003     0.0000000000000000     
   1.5000000000000013E-003     0.0000000000000000     
   1.8000000000000030E-003     0.0000000000000000     
   2.1000000000000012E-003     0.0000000000000000     
   2.3999999999999994E-003     0.0000000000000000     
   2.7000000000000010E-003     0.0000000000000000     
   2.9999999999999992E-003     0.0000000000000000     
   3.3000000000000008E-003     0.0000000000000000     
   3.6000000000000025E-003     0.0000000000000000     
   3.9000000000000007E-003     0.0000000000000000     
   4.2000000000000023E-003     0.0000000000000000     
   4.5000000000000005E-003     0.0000000000000000     
   4.7999999999999987E-003     0.0000000000000000     
   5.1000000000000004E-003     0.0000000000000000     
   5.4000000000000020E-003     0.0000000000000000     
   5.7000000000000037E-003     0.0000000000000000     
   5.9999999999999984E-003     0.0000000000000000     
   6.3000000000000000E-003     0.0000000000000000     
   6.6000000000000017E-003     0.0000000000000000     
   6.9000000000000034E-003     0.0000000000000000     
   7.2000000000000015E-003     0.0000000000000000     
   7.5000000000000032E-003     0.0000000000000000     
   7.8000000000000014E-003     0.0000000000000000     
   8.0999999999999996E-003     0.0000000000000000     
   8.4000000000000012E-003     0.0000000000000000     
   8.7000000000000029E-003     0.0000000000000000     
   9.0000000000000011E-003     0.0000000000000000     
   9.2999999999999992E-003     4.9927053562020056E-037
   9.6000000000000009E-003     2.2455339296598723E-037
   9.8999999999999991E-003     1.2098036617080248E-035
   1.0200000000000001E-002    -6.4247154579139503E-035
   1.0500000000000002E-002    -2.8266318277181781E-034
   1.0800000000000004E-002     3.2628226083133005E-033
   1.1099999999999999E-002     6.4864953772724647E-033
   1.1400000000000000E-002    -1.2861642052163288E-031
   1.1700000000000002E-002     3.5541842821406002E-031
   1.2000000000000004E-002     1.5354917527107666E-030
   1.2300000000000002E-002    -1.3842082816751937E-029
   1.2600000000000000E-002     2.9994119990270848E-029
   1.2900000000000002E-002     1.0232433294461573E-028
   1.3200000000000000E-002    -8.7022797869747262E-028
   1.3500000000000002E-002     2.2480894906486219E-027
   1.3800000000000003E-002     9.6669848368730980E-028
   1.4100000000000001E-002    -2.5685760971231153E-026
   1.4400000000000000E-002     7.9371566616530671E-026
   1.4700000000000001E-002    -4.4171098503932280E-026
   1.4999999999999999E-002    -4.8218284666922549E-025
   1.5300000000000001E-002     1.6612746048641860E-024
   1.5600000000000003E-002     2.4699629372922490E-026
   1.5899999999999997E-002    -2.2699265866177447E-023
   1.6199999999999999E-002     1.3407848500951236E-022
   1.6500000000000001E-002    -6.2277546814387523E-022
   1.6800000000000002E-002     2.9580178633804089E-021
   1.7100000000000004E-002    -1.4519984352696329E-020
   1.7400000000000006E-002     6.8571838139271098E-020
   1.7700000000000000E-002    -2.9927671150685864E-019
   1.8000000000000002E-002     1.2062175166916702E-018
   1.8300000000000004E-002    -4.5897894725821730E-018
   1.8600000000000005E-002     1.7094555898051498E-017
   1.8900000000000000E-002    -6.5005622946370085E-017
   1.9200000000000002E-002     2.6026320796117817E-016
   1.9500000000000003E-002    -1.0958626397956439E-015
   1.9799999999999998E-002     4.6928522130567848E-015
   2.0100000000000000E-002    -1.9496331835739365E-014
   2.0400000000000001E-002     7.4932071723703142E-014
   2.0700000000000003E-002    -2.5318075001952434E-013
   2.0999999999999998E-002     6.9583932799793802E-013
   2.1299999999999999E-002    -1.2650032930883182E-012
   2.1600000000000001E-002    -2.7229379775256524E-013
   2.1900000000000003E-002     1.3233215738484017E-011
   2.2200000000000004E-002    -5.7495532640450264E-011
   2.2500000000000006E-002     1.3087154970836679E-010
   2.2800000000000001E-002    -6.7125388580890899E-011
   2.3100000000000002E-002    -6.2963523284054190E-010
   2.3400000000000004E-002     2.1535362382252288E-009
   2.3699999999999999E-002    -1.7977190847062730E-009
   2.4000000000000000E-002    -6.8064078817542395E-009
   2.4300000000000002E-002     1.8928648870542020E-008
   2.4599999999999997E-002     3.3387457243350127E-009
   2.4900000000000005E-002    -7.2636410664017603E-008
   2.5200000000000000E-002     2.4110423879619702E-008
   2.5499999999999995E-002     2.1883531076127838E-007
   2.5800000000000003E-002    -3.6738349251663749E-008
   2.6099999999999998E-002    -6.5444038455098053E-007
   2.6400000000000007E-002    -3.3390810472155863E-007
   2.6700000000000002E-002     2.2128031105239643E-006
   2.6999999999999996E-002     6.7817518356605433E-006
   2.7300000000000005E-002     1.2321977919782512E-005
   2.7600000000000000E-002     1.8985074348165654E-005
   2.7900000000000008E-002     2.8699423637590371E-005
   2.8200000000000003E-002     4.4390682887751609E-005
   2.8499999999999998E-002     6.9549780164379627E-005
   2.8800000000000006E-002     1.0828779340954497E-004
   2.9100000000000001E-002     1.6590968880336732E-004
   2.9400000000000003E-002     2.4994710111059248E-004
   2.9700000000000004E-002     3.7146330578252673E-004
   3.0000000000000006E-002     5.4631743114441633E-004
   3.0300000000000001E-002     7.9515983816236258E-004
   3.0600000000000002E-002     1.1424784315750003E-003
   3.0900000000000004E-002     1.6167914727702737E-003
   3.1199999999999999E-002     2.2524404339492321E-003
   3.1500000000000007E-002     3.0907455366104841E-003
   3.1800000000000002E-002     4.1780592873692513E-003
   3.2099999999999997E-002     5.5618216283619404E-003
   3.2400000000000005E-002     7.2867176495492458E-003
   3.2700000000000000E-002     9.3908980488777161E-003
   3.3000000000000002E-002     1.1899172328412533E-002
   3.3300000000000003E-002     1.4812862500548363E-002
   3.3599999999999998E-002     1.8100062385201454E-002
   3.3900000000000000E-002     2.1685063838958740E-002
   3.4200000000000001E-002     2.5437852367758751E-002
   3.4500000000000003E-002     2.9164718464016914E-002
   3.4799999999999998E-002     3.2600391656160355E-002
   3.5099999999999999E-002     3.5412181168794632E-002
   3.5400000000000001E-002     3.7206914275884628E-002
   3.5699999999999996E-002     3.7540338933467865E-002
   3.6000000000000004E-002     3.5947933793067932E-002
   3.6299999999999999E-002     3.1978521496057510E-002
   3.6600000000000008E-002     2.5244507938623428E-002
   3.6900000000000002E-002     1.5470057725906372E-002
   3.7199999999999997E-002     2.5423155166208744E-003
   3.7500000000000006E-002    -1.3431463390588760E-002
   3.7800000000000000E-002    -3.2082911580801010E-002
   3.8100000000000009E-002    -5.2751485258340836E-002
   3.8400000000000004E-002    -7.4486888945102692E-002
   3.8699999999999998E-002    -9.6068985760211945E-002
   3.9000000000000007E-002   -0.11605510115623474     
   3.9300000000000002E-002   -0.13287083804607391     
   3.9600000000000003E-002   -0.14491160213947296     
   3.9900000000000005E-002   -0.15067471563816071     
   4.0200000000000000E-002   -0.14888370037078857     
   4.0500000000000001E-002   -0.13862311840057373     
   4.0800000000000003E-002   -0.11945503950119019     
   4.1100000000000005E-002    -9.1477669775485992E-002
   4.1399999999999999E-002    -5.5383477360010147E-002
   4.1700000000000008E-002    -1.2424184009432793E-002
   4.2000000000000003E-002     3.5632640123367310E-002
   4.2299999999999997E-002     8.6604684591293335E-002
   4.2600000000000006E-002    0.13805757462978363     
   4.2900000000000001E-002    0.18743906915187836     
   4.3200000000000002E-002    0.23225371539592743     
   4.3500000000000004E-002    0.27022904157638550     
   4.3799999999999999E-002    0.29941424727439880     
   4.4100000000000000E-002    0.31831213831901550     
   4.4400000000000002E-002    0.32590770721435547     
   4.4700000000000004E-002    0.32167932391166687     
   4.4999999999999998E-002    0.30559962987899780     
   4.5300000000000000E-002    0.27804380655288696     
   4.5600000000000002E-002    0.23975981771945953     
   4.5899999999999996E-002    0.19177506864070892     
   4.6200000000000005E-002    0.13531216979026794     
   4.6500000000000000E-002     7.1764491498470306E-002
   4.6799999999999994E-002     2.6200378779321909E-003
   4.7100000000000003E-002    -7.0561490952968597E-002
   4.7399999999999998E-002   -0.14613290131092072     
   4.7700000000000006E-002   -0.22242885828018188     
   4.8000000000000001E-002   -0.29767259955406189     
   4.8300000000000010E-002   -0.37007647752761841     
   4.8600000000000004E-002   -0.43780875205993652     
   4.8899999999999999E-002   -0.49896210432052612     
   4.9200000000000008E-002   -0.55173611640930176     
   4.9500000000000002E-002   -0.59432923793792725     
   4.9800000000000011E-002   -0.62512040138244629     
   5.0100000000000006E-002   -0.64270156621932983     
   5.0400000000000000E-002   -0.64592081308364868     
   5.0700000000000009E-002   -0.63406807184219360     
   5.1000000000000004E-002   -0.60681694746017456     
   5.1299999999999998E-002   -0.56438535451889038     
   5.1600000000000007E-002   -0.50750577449798584     
   5.1900000000000002E-002   -0.43745762109756470     
   5.2200000000000010E-002   -0.35604548454284668     
   5.2500000000000005E-002   -0.26553657650947571     
   5.2800000000000000E-002   -0.16852948069572449     
   5.3099999999999994E-002    -6.7837759852409363E-002
   5.3400000000000003E-002     3.3675786107778549E-002
   5.3699999999999998E-002    0.13326238095760345     
   5.4000000000000006E-002    0.22853325307369232     
   5.4300000000000001E-002    0.31753870844841003     
   5.4599999999999996E-002    0.39901193976402283     
   5.4900000000000004E-002    0.47233259677886963     
   5.5199999999999999E-002    0.53766107559204102     
   5.5499999999999994E-002    0.59581762552261353     
   5.5800000000000002E-002    0.64807856082916260     
   5.6099999999999997E-002    0.69618391990661621     
   5.6400000000000006E-002    0.74172168970108032     
   5.6700000000000000E-002    0.78617906570434570     
   5.6999999999999995E-002    0.83036226034164429     
   5.7300000000000004E-002    0.87416082620620728     
   5.7599999999999998E-002    0.91654813289642334     
   5.7900000000000007E-002    0.95502912998199463     
   5.8200000000000002E-002    0.98606228828430176     
   5.8499999999999996E-002     1.0050132274627686     
   5.8800000000000005E-002     1.0064197778701782     
   5.9100000000000000E-002    0.98462444543838501     
   5.9400000000000008E-002    0.93406051397323608     
   5.9700000000000003E-002    0.85002499818801880     
   6.0000000000000012E-002    0.72924160957336426     
   6.0300000000000006E-002    0.57024919986724854     
   6.0600000000000001E-002    0.37404927611351013     
   6.0900000000000010E-002    0.14408913254737854     
   6.1200000000000004E-002   -0.11369583010673523     
   6.1500000000000013E-002   -0.39088162779808044     
   6.1800000000000008E-002   -0.67719495296478271     
   6.2100000000000002E-002   -0.96112769842147827     
   6.2399999999999997E-002    -1.2303228378295898     
   6.2700000000000006E-002    -1.4730660915374756     
   6.3000000000000000E-002    -1.6781184673309326     
   6.3300000000000009E-002    -1.8362981081008911     
   6.3600000000000004E-002    -1.9405061006546021     
   6.3899999999999998E-002    -1.9858850240707397     
   6.4199999999999993E-002    -1.9708203077316284     
   6.4500000000000002E-002    -1.8957086801528931     
   6.4800000000000010E-002    -1.7637487649917603     
   6.5100000000000005E-002    -1.5799534320831299     
   6.5400000000000000E-002    -1.3506679534912109     
   6.5700000000000008E-002    -1.0837216377258301     
   6.5999999999999989E-002   -0.78705734014511108     
   6.6299999999999998E-002   -0.46913176774978638     
   6.6600000000000006E-002   -0.13821499049663544     
   6.6900000000000001E-002    0.19798150658607483     
   6.7199999999999996E-002    0.53171205520629883     
   6.7500000000000004E-002    0.85616016387939453     
   6.7800000000000013E-002     1.1645791530609131     
   6.8099999999999994E-002     1.4509695768356323     
   6.8400000000000002E-002     1.7098292112350464     
   6.8700000000000011E-002     1.9357666969299316     
   6.8999999999999992E-002     2.1244044303894043     
   6.9300000000000000E-002     2.2715322971343994     
   6.9600000000000009E-002     2.3736827373504639     
   6.9900000000000004E-002     2.4281759262084961     
   7.0199999999999999E-002     2.4327723979949951     
   7.0500000000000007E-002     2.3862824440002441     
   7.0800000000000016E-002     2.2878167629241943     
   7.1099999999999997E-002     2.1373050212860107     
   7.1400000000000005E-002     1.9352524280548096     
   7.1700000000000000E-002     1.6827249526977539     
   7.1999999999999995E-002     1.3815507888793945     
   7.2300000000000003E-002     1.0344966650009155     
   7.2600000000000012E-002    0.64554941654205322     
   7.2900000000000006E-002    0.22002483904361725     
   7.3200000000000001E-002   -0.23459735512733459     
   7.3499999999999996E-002   -0.70896935462951660     
   7.3800000000000004E-002    -1.1912528276443481     
   7.4099999999999999E-002    -1.6672323942184448     
   7.4400000000000008E-002    -2.1210932731628418     
   7.4700000000000003E-002    -2.5350265502929688     
   7.5000000000000011E-002    -2.8914566040039062     
   7.5299999999999992E-002    -3.1729290485382080     
   7.5600000000000001E-002    -3.3639678955078125     
   7.5900000000000009E-002    -3.4526720046997070     
   7.6200000000000004E-002    -3.4310350418090820     
   7.6499999999999999E-002    -3.2970583438873291     
   7.6800000000000007E-002    -3.0542073249816895     
   7.7099999999999988E-002    -2.7121415138244629     
   7.7399999999999997E-002    -2.2862217426300049     
   7.7700000000000005E-002    -1.7961111068725586     
   7.8000000000000014E-002    -1.2651509046554565     
   7.8299999999999995E-002   -0.71775656938552856     
   7.8600000000000003E-002   -0.17837905883789062     
   7.8900000000000012E-002    0.33079129457473755     
   7.9199999999999993E-002    0.79108059406280518     
   7.9500000000000001E-002     1.1885735988616943     
   7.9800000000000010E-002     1.5150703191757202     
   8.0100000000000018E-002     1.7674481868743896     
   8.0399999999999999E-002     1.9479765892028809     
   8.0700000000000008E-002     2.0627686977386475     
   8.1000000000000003E-002     2.1206240653991699     
   8.1299999999999997E-002     2.1317491531372070     
   8.1600000000000006E-002     2.1059219837188721     
   8.1900000000000014E-002     2.0512669086456299     
   8.2199999999999995E-002     1.9732408523559570     
   8.2500000000000004E-002     1.8744440078735352     
   8.2799999999999999E-002     1.7540726661682129     
   8.3100000000000007E-002     1.6089370250701904     
   8.3400000000000002E-002     1.4342715740203857     
   8.3700000000000011E-002     1.2246348857879639     
   8.4000000000000005E-002    0.97601717710494995     
   8.4300000000000000E-002    0.68627810478210449     
   8.4599999999999995E-002    0.35717600584030151     
   8.4900000000000003E-002    -5.6388061493635178E-003
   8.5199999999999998E-002   -0.39206528663635254     
   8.5500000000000007E-002   -0.78751599788665771     
   8.5800000000000001E-002    -1.1747086048126221     
   8.6100000000000010E-002    -1.5335842370986938     
   8.6399999999999991E-002    -1.8439861536026001     
   8.6699999999999999E-002    -2.0866792201995850     
   8.7000000000000008E-002    -2.2447879314422607     
   8.7300000000000003E-002    -2.3066825866699219     
   8.7599999999999997E-002    -2.2649645805358887     
   8.7900000000000006E-002    -2.1191127300262451     
   8.8200000000000014E-002    -1.8746088743209839     
   8.8499999999999995E-002    -1.5423694849014282     
   8.8800000000000004E-002    -1.1391900777816772     
   8.9100000000000013E-002   -0.68473893404006958     
   8.9399999999999993E-002   -0.20194682478904724     
   8.9700000000000002E-002    0.28595876693725586     
   9.0000000000000011E-002    0.75651866197586060     
   9.0299999999999991E-002     1.1889644861221313     
   9.0600000000000000E-002     1.5666534900665283     
   9.0900000000000009E-002     1.8760148286819458     
   9.1200000000000017E-002     2.1083877086639404     
   9.1499999999999998E-002     2.2593586444854736     
   9.1800000000000007E-002     2.3281810283660889     
   9.2100000000000001E-002     2.3175294399261475     
   9.2399999999999996E-002     2.2323186397552490     
   9.2700000000000005E-002     2.0792744159698486     
   9.3000000000000013E-002     1.8656423091888428     
   9.3300000000000008E-002     1.5991605520248413     
   9.3600000000000003E-002     1.2872366905212402     
   9.3899999999999997E-002    0.93744117021560669     
   9.4200000000000006E-002    0.55738115310668945     
   9.4500000000000001E-002    0.15517371892929077     
   9.4800000000000009E-002   -0.25941053032875061     
   9.5100000000000004E-002   -0.67555594444274902     
   9.5399999999999999E-002    -1.0797996520996094     
   9.5699999999999993E-002    -1.4570425748825073     
   9.6000000000000002E-002    -1.7906044721603394     
   9.6300000000000011E-002    -2.0625996589660645     
   9.6600000000000005E-002    -2.2565777301788330     
   9.6900000000000000E-002    -2.3568513393402100     
   9.7200000000000009E-002    -2.3525152206420898     
   9.7499999999999989E-002    -2.2374253273010254     
   9.7799999999999998E-002    -2.0117056369781494     
   9.8100000000000007E-002    -1.6841150522232056     
   9.8400000000000015E-002    -1.2695488929748535     
   9.8699999999999996E-002   -0.79101347923278809     
   9.9000000000000005E-002   -0.27660965919494629     
   9.9300000000000013E-002    0.24210889637470245     
   9.9599999999999994E-002    0.73173660039901733     
   9.9900000000000003E-002     1.1614712476730347     
  0.10020000000000001          1.5037158727645874     
  0.10049999999999999          1.7383166551589966     
  0.10080000000000000          1.8531535863876343     
  0.10110000000000001          1.8452419042587280     
  0.10140000000000000          1.7215285301208496     
  0.10170000000000000          1.4963233470916748     
  0.10200000000000001          1.1913434267044067     
  0.10230000000000002         0.83219313621520996     
  0.10260000000000000         0.44591200351715088     
  0.10290000000000001          5.8890059590339661E-002
  0.10320000000000000        -0.30644223093986511     
  0.10350000000000001        -0.63289535045623779     
  0.10380000000000000        -0.90935707092285156     
  0.10410000000000001         -1.1315225362777710     
  0.10440000000000001         -1.3009492158889771     
  0.10470000000000000         -1.4232397079467773     
  0.10500000000000000         -1.5065641403198242     
  0.10530000000000000         -1.5598086118698120     
  0.10560000000000000         -1.5896691083908081     
  0.10590000000000001         -1.6003537178039551     
  0.10620000000000000         -1.5913931131362915     
  0.10650000000000001         -1.5579439401626587     
  0.10679999999999999         -1.4922372102737427     
  0.10710000000000000         -1.3831964731216431     
  0.10740000000000001         -1.2204742431640625     
  0.10770000000000000        -0.99440932273864746     
  0.10800000000000000        -0.69948828220367432     
  0.10830000000000001        -0.33617520332336426     
  0.10859999999999999          8.9897371828556061E-002
  0.10890000000000000         0.56468522548675537     
  0.10920000000000001          1.0685297250747681     
  0.10950000000000001          1.5768308639526367     
  0.10979999999999999          2.0607497692108154     
  0.11009999999999999          2.4921262264251709     
  0.11040000000000001          2.8428640365600586     
  0.11070000000000001          3.0899059772491455     
  0.11100000000000000          3.2159693241119385     
  0.11130000000000000          3.2104477882385254     
  0.11160000000000002          3.0717573165893555     
  0.11190000000000001          2.8052062988281250     
  0.11220000000000001          2.4242298603057861     
  0.11250000000000000          1.9474422931671143     
  0.11280000000000000          1.3979380130767822     
  0.11309999999999999         0.80154758691787720     
  0.11340000000000001         0.18468251824378967     
  0.11369999999999998        -0.42707800865173340     
  0.11400000000000000         -1.0098086595535278     
  0.11430000000000000         -1.5421155691146851     
  0.11460000000000002         -2.0059869289398193     
  0.11489999999999999         -2.3854959011077881     
  0.11520000000000001         -2.6684136390686035     
  0.11550000000000001         -2.8445522785186768     
  0.11580000000000000         -2.9061884880065918     
  0.11609999999999999         -2.8492124080657959     
  0.11640000000000002         -2.6706106662750244     
  0.11670000000000001         -2.3723611831665039     
  0.11700000000000001         -1.9601339101791382     
  0.11730000000000000         -1.4437836408615112     
  0.11760000000000000        -0.84058541059494019     
  0.11789999999999999        -0.17203393578529358     
  0.11820000000000001         0.53325176239013672     
  0.11850000000000001          1.2413498163223267     
  0.11880000000000000          1.9153404235839844     
  0.11910000000000000          2.5145168304443359     
  0.11940000000000002          3.0006990432739258     
  0.11970000000000001          3.3376579284667969     
  0.12000000000000001          3.4964928627014160     
  0.12030000000000000          3.4583096504211426     
  0.12060000000000000          3.2147626876831055     
  0.12089999999999999          2.7725682258605957     
  0.12119999999999999          2.1513888835906982     
  0.12150000000000001          1.3850152492523193     
  0.12180000000000001         0.51854532957077026     
  0.12210000000000000        -0.39416995644569397     
  0.12239999999999999         -1.2948073148727417     
  0.12270000000000002         -2.1240122318267822     
  0.12300000000000001         -2.8275749683380127     
  0.12330000000000001         -3.3599793910980225     
  0.12360000000000000         -3.6867668628692627     
  0.12390000000000000         -3.7910666465759277     
  0.12419999999999999         -3.6698474884033203     
  0.12450000000000001         -3.3387410640716553     
  0.12480000000000001         -2.8281431198120117     
  0.12509999999999999         -2.1799592971801758     
  0.12540000000000001         -1.4474148750305176     
  0.12570000000000003        -0.68538314104080200     
  0.12600000000000000          4.8344302922487259E-002
  0.12630000000000002         0.70282548666000366     
  0.12659999999999999          1.2343986034393311     
  0.12690000000000001          1.6100660562515259     
  0.12719999999999998          1.8128972053527832     
  0.12750000000000000          1.8371152877807617     
  0.12780000000000002          1.6937221288681030     
  0.12809999999999999          1.4038963317871094     
  0.12840000000000001         0.99959093332290649     
  0.12869999999999998         0.52009922266006470     
  0.12900000000000000          6.6312700510025024E-003
  0.12930000000000003        -0.49780666828155518     
  0.12959999999999999        -0.95531076192855835     
  0.12990000000000002         -1.3325904607772827     
  0.13019999999999998         -1.6051366329193115     
  0.13050000000000000         -1.7569005489349365     
  0.13080000000000003         -1.7817085981369019     
  0.13109999999999999         -1.6829377412796021     
  0.13140000000000002         -1.4703125953674316     
  0.13169999999999998         -1.1621072292327881     
  0.13200000000000001        -0.77939093112945557     
  0.13229999999999997        -0.34637740254402161     
  0.13260000000000000         0.11243234574794769     
  0.13290000000000002         0.57443773746490479     
  0.13319999999999999          1.0188441276550293     
  0.13350000000000001          1.4301840066909790     
  0.13380000000000003          1.7959867715835571     
  0.13410000000000000          2.1091768741607666     
  0.13440000000000002          2.3664271831512451     
  0.13469999999999999          2.5672044754028320     
  0.13500000000000001          2.7146143913269043     
  0.13529999999999998          2.8110408782958984     
  0.13560000000000000          2.8605935573577881     
  0.13590000000000002          2.8656566143035889     
  0.13619999999999999          2.8273699283599854     
  0.13650000000000001          2.7448256015777588     
  0.13680000000000003          2.6152009963989258     
  0.13710000000000000          2.4345188140869141     
  0.13740000000000002          2.1978566646575928     
  0.13769999999999999          1.9013583660125732     
  0.13800000000000001          1.5427285432815552     
  0.13829999999999998          1.1229956150054932     
  0.13860000000000000         0.64723044633865356     
  0.13890000000000002         0.12587232887744904     
  0.13919999999999999        -0.42581123113632202     
  0.13950000000000001        -0.98797750473022461     
  0.13979999999999998         -1.5358862876892090     
  0.14010000000000000         -2.0451495647430420     
  0.14040000000000002         -2.4895803928375244     
  0.14069999999999999         -2.8475084304809570     
  0.14100000000000001         -3.1015839576721191     
  0.14130000000000004         -3.2423098087310791     
  0.14160000000000000         -3.2697765827178955     
  0.14189999999999997         -3.1919507980346680     
  0.14219999999999999         -3.0283324718475342     
  0.14250000000000002         -2.8032608032226562     
  0.14279999999999998         -2.5476226806640625     
  0.14310000000000000         -2.2943022251129150     
  0.14339999999999997         -2.0725419521331787     
  0.14369999999999999         -1.9085239171981812     
  0.14400000000000002         -1.8164799213409424     
  0.14429999999999998         -1.8028242588043213     
  0.14460000000000001         -1.8602609634399414     
  0.14490000000000003         -1.9694778919219971     
  0.14520000000000000         -2.1026763916015625     
  0.14550000000000002         -2.2226238250732422     
  0.14579999999999999         -2.2908389568328857     
  0.14610000000000001         -2.2678654193878174     
  0.14640000000000003         -2.1206643581390381     
  0.14670000000000000         -1.8253902196884155     
  0.14699999999999996         -1.3688843250274658     
  0.14729999999999999        -0.75466561317443848     
  0.14760000000000001          1.6045793890953064E-003
  0.14789999999999998         0.86928963661193848     
  0.14820000000000000          1.8068660497665405     