  -1.4999999999999999E-002     0.0000000000000000     
  -1.4700000000000000E-002     0.0000000000000000     
  -1.4400000000000000E-002     0.0000000000000000     
  -1.4100000000000000E-002     0.0000000000000000     
  -1.3800000000000000E-002     0.0000000000000000     
  -1.3500000000000000E-002     0.0000000000000000     
  -1.3200000000000000E-002     0.0000000000000000     
  -1.2899999999999998E-002     0.0000000000000000     
  -1.2600000000000000E-002     0.0000000000000000     
  -1.2299999999999998E-002     0.0000000000000000     
  -1.2000000000000000E-002     4.5777361738892214E-036
  -1.1699999999999999E-002    -2.5692842588854496E-035
  -1.1399999999999999E-002     5.7657612198749339E-034
  -1.1099999999999999E-002    -4.3204184022311650E-032
  -1.0799999999999999E-002     1.4635938162370722E-030
  -1.0499999999999999E-002    -2.1746537156652947E-029
  -1.0199999999999999E-002     1.6592993880614060E-028
  -9.8999999999999991E-003    -3.6067022476223442E-028
  -9.5999999999999992E-003    -6.2071100474587437E-027
  -9.2999999999999992E-003     8.3154678510010296E-026
  -8.9999999999999993E-003    -5.8472727016935743E-025
  -8.6999999999999994E-003     2.9231106736610705E-024
  -8.3999999999999995E-003    -1.1416190705384031E-023
  -8.0999999999999996E-003     3.6270578021831874E-023
  -7.7999999999999988E-003    -9.5509137910873869E-023
  -7.4999999999999997E-003     2.1550910002394547E-022
  -7.1999999999999998E-003    -4.6430540394492919E-022
  -6.8999999999999981E-003     1.1186859468568728E-021
  -6.5999999999999982E-003    -2.7103683486454503E-021
  -6.3000000000000000E-003     2.7104119694980654E-021
  -6.0000000000000001E-003     2.4056790357303135E-020
  -5.6999999999999985E-003    -1.8401973017328378E-019
  -5.3999999999999986E-003     7.4751071185498281E-019
  -5.1000000000000004E-003    -2.0721962086958850E-018
  -4.7999999999999987E-003     3.8881666052085694E-018
  -4.5000000000000005E-003    -3.2944200838307626E-018
  -4.1999999999999989E-003    -8.6198357508170627E-018
  -3.8999999999999990E-003     4.9357691788749300E-017
  -3.5999999999999990E-003    -1.4037444253949032E-016
  -3.2999999999999991E-003     2.8533649493064873E-016
  -2.9999999999999992E-003    -4.2605471373271609E-016
  -2.6999999999999993E-003     3.9320547901899384E-016
  -2.3999999999999994E-003     9.5248391697603043E-017
  -2.0999999999999977E-003    -1.3427500857889334E-015
  -1.7999999999999995E-003     3.5733440132638267E-015
  -1.4999999999999979E-003    -7.0141087355575157E-015
  -1.1999999999999997E-003     1.1947935045844571E-014
  -8.9999999999999976E-004    -1.7437804604686184E-014
  -5.9999999999999810E-004     1.7232204297399148E-014
  -2.9999999999999992E-004     4.6993946955413771E-015
   0.0000000000000000         -6.8658010591964025E-014
   3.0000000000000165E-004     1.7270702283665035E-013
   5.9999999999999984E-004    -2.5654841749253587E-013
   9.0000000000000149E-004     2.0360140439920626E-013
   1.2000000000000031E-003     7.0654209750626445E-014
   1.5000000000000013E-003    -4.7099737304767686E-013
   1.8000000000000030E-003     6.4180280014147773E-013
   2.1000000000000012E-003    -1.2302074777707089E-013
   2.3999999999999994E-003    -1.0445752336024627E-012
   2.7000000000000010E-003     1.2381190907587158E-012
   2.9999999999999992E-003     1.9585713259551163E-012
   3.3000000000000008E-003     1.0014124945945113E-013
   3.6000000000000025E-003    -5.8431405547398896E-011
   3.9000000000000007E-003     2.6597715696574653E-010
   4.2000000000000023E-003    -5.0963167019801858E-010
   4.5000000000000005E-003    -2.7594682094900236E-010
   4.7999999999999987E-003     4.5472359211373714E-009
   5.1000000000000004E-003    -1.2312533215208532E-008
   5.4000000000000020E-003     8.1735516133107922E-009
   5.7000000000000037E-003     4.5229537448676638E-008
   5.9999999999999984E-003    -1.3999571990552795E-007
   6.3000000000000000E-003     5.9145598640952812E-008
   6.6000000000000017E-003     4.9041511829273077E-007
   6.9000000000000034E-003    -8.3047314092254965E-007
   7.2000000000000015E-003    -1.0578187357168645E-006
   7.5000000000000032E-003     3.1527451938018203E-006
   7.8000000000000014E-003     2.8443052997317864E-006
   8.0999999999999996E-003    -8.5694773588329554E-006
   8.4000000000000012E-003    -1.2780489669239614E-005
   8.7000000000000029E-003     2.2354452084982768E-005
   9.0000000000000011E-003     1.1119018745375797E-004
   9.2999999999999992E-003     2.4285090330522507E-004
   9.6000000000000009E-003     4.0940148755908012E-004
   9.8999999999999991E-003     6.2568380963057280E-004
   1.0200000000000001E-002     9.3988690059632063E-004
   1.0500000000000002E-002     1.4435440534725785E-003
   1.0800000000000004E-002     2.2490604314953089E-003
   1.1099999999999999E-002     3.4833471290767193E-003
   1.1400000000000000E-002     5.3183538839221001E-003
   1.1700000000000002E-002     7.9905604943633080E-003
   1.2000000000000004E-002     1.1827376671135426E-002
   1.2300000000000002E-002     1.7276944592595100E-002
   1.2600000000000000E-002     2.4917298927903175E-002
   1.2900000000000002E-002     3.5445544868707657E-002
   1.3200000000000000E-002     4.9689784646034241E-002
   1.3500000000000002E-002     6.8654850125312805E-002
   1.3800000000000003E-002     9.3480043113231659E-002
   1.4100000000000001E-002    0.12535187602043152     
   1.4400000000000000E-002    0.16547015309333801     
   1.4700000000000001E-002    0.21495015919208527     
   1.4999999999999999E-002    0.27464827895164490     
   1.5300000000000001E-002    0.34494525194168091     
   1.5600000000000003E-002    0.42549306154251099     
   1.5899999999999997E-002    0.51498180627822876     
   1.6199999999999999E-002    0.61083304882049561     
   1.6500000000000001E-002    0.70892381668090820     
   1.6800000000000002E-002    0.80340862274169922     
   1.7100000000000004E-002    0.88659483194351196     
   1.7400000000000006E-002    0.94905132055282593     
   1.7700000000000000E-002    0.97977489233016968     
   1.8000000000000002E-002    0.96668708324432373     
   1.8300000000000004E-002    0.89745038747787476     
   1.8600000000000005E-002    0.76040780544281006     
   1.8900000000000000E-002    0.54587697982788086     
   1.9200000000000002E-002    0.24734190106391907     
   1.9500000000000003E-002   -0.13709600269794464     
   1.9799999999999998E-002   -0.60342293977737427     
   2.0100000000000000E-002    -1.1407340764999390     
   2.0400000000000001E-002    -1.7306487560272217     
   2.0700000000000003E-002    -2.3474171161651611     
   2.0999999999999998E-002    -2.9586429595947266     
   2.1299999999999999E-002    -3.5267527103424072     
   2.1600000000000001E-002    -4.0112514495849609     
   2.1900000000000003E-002    -4.3714327812194824     
   2.2200000000000004E-002    -4.5694189071655273     
   2.2500000000000006E-002    -4.5735921859741211     
   2.2800000000000001E-002    -4.3616824150085449     
   2.3100000000000002E-002    -3.9233155250549316     
   2.3400000000000004E-002    -3.2618429660797119     
   2.3699999999999999E-002    -2.3947710990905762     
   2.4000000000000000E-002    -1.3537440299987793     
   2.4300000000000002E-002   -0.18227986991405487     
   2.4599999999999997E-002     1.0660283565521240     
   2.4900000000000005E-002     2.3320040702819824     
   2.5200000000000000E-002     3.5543742179870605     
   2.5499999999999995E-002     4.6739115715026855     
   2.5800000000000003E-002     5.6376657485961914     
   2.6099999999999998E-002     6.4019827842712402     
   2.6400000000000007E-002     6.9348182678222656     
   2.6700000000000002E-002     7.2173638343811035     
   2.6999999999999996E-002     7.2436633110046387     
   2.7300000000000005E-002     7.0201225280761719     
   2.7600000000000000E-002     6.5639986991882324     
   2.7900000000000008E-002     5.9006547927856445     
   2.8200000000000003E-002     5.0618195533752441     
   2.8499999999999998E-002     4.0828771591186523     
   2.8800000000000006E-002     3.0006489753723145     
   2.9100000000000001E-002     1.8524584770202637     
   2.9400000000000003E-002    0.67446541786193848     
   2.9700000000000004E-002   -0.49794110655784607     
   3.0000000000000006E-002    -1.6304990053176880     
   3.0300000000000001E-002    -2.6900496482849121     
   3.0600000000000002E-002    -3.6438806056976318     
   3.0900000000000004E-002    -4.4604849815368652     
   3.1199999999999999E-002    -5.1099424362182617     
   3.1500000000000007E-002    -5.5647344589233398     
   3.1800000000000002E-002    -5.8023643493652344     
   3.2099999999999997E-002    -5.8065152168273926     
   3.2400000000000005E-002    -5.5700693130493164     
   3.2700000000000000E-002    -5.0975661277770996     
   3.3000000000000002E-002    -4.4058003425598145     
   3.3300000000000003E-002    -3.5257611274719238     
   3.3599999999999998E-002    -2.5016467571258545     
   3.3900000000000000E-002    -1.3892303705215454     
   3.4200000000000001E-002   -0.25345927476882935     
   3.4500000000000003E-002    0.83632028102874756     
   3.4799999999999998E-002     1.8106714487075806     
   3.5099999999999999E-002     2.6056547164916992     
   3.5400000000000001E-002     3.1682696342468262     
   3.5699999999999996E-002     3.4600937366485596     
   3.6000000000000004E-002     3.4613735675811768     
   3.6299999999999999E-002     3.1724202632904053     
   3.6600000000000008E-002     2.6136648654937744     
   3.6900000000000002E-002     1.8243530988693237     
   3.7199999999999997E-002    0.85854423046112061     
   3.7500000000000006E-002   -0.21907858550548553     
   3.7800000000000000E-002    -1.3385533094406128     
   3.8100000000000009E-002    -2.4307701587677002     
   3.8400000000000004E-002    -3.4323530197143555     
   3.8699999999999998E-002    -4.2903566360473633     
   3.9000000000000007E-002    -4.9658613204956055     
   3.9300000000000002E-002    -5.4351921081542969     
   3.9600000000000003E-002    -5.6909031867980957     
   3.9900000000000005E-002    -5.7400660514831543     
   4.0200000000000000E-002    -5.6017951965332031     
   4.0500000000000001E-002    -5.3042554855346680     
   4.0800000000000003E-002    -4.8799858093261719     
   4.1100000000000005E-002    -4.3625988960266113     
   4.1399999999999999E-002    -3.7828383445739746     
   4.1700000000000008E-002    -3.1655533313751221     
   4.2000000000000003E-002    -2.5289654731750488     
   4.2299999999999997E-002    -1.8833128213882446     
   4.2600000000000006E-002    -1.2311348915100098     
   4.2900000000000001E-002   -0.57014346122741699     
   4.3200000000000002E-002    0.10558710247278214     
   4.3500000000000004E-002    0.80283099412918091     
   4.3799999999999999E-002     1.5258487462997437     
   4.4100000000000000E-002     2.2755289077758789     
   4.4400000000000002E-002     3.0461728572845459     
   4.4700000000000004E-002     3.8262052536010742     
   4.4999999999999998E-002     4.5989608764648438     
   4.5300000000000000E-002     5.3424992561340332     
   4.5600000000000002E-002     6.0340342521667480     
   4.5899999999999996E-002     6.6514534950256348     
   4.6200000000000005E-002     7.1761684417724609     
   4.6500000000000000E-002     7.5962276458740234     
   4.6799999999999994E-002     7.9066138267517090     
   4.7100000000000003E-002     8.1111822128295898     
   4.7399999999999998E-002     8.2206106185913086     
   4.7700000000000006E-002     8.2500534057617188     
   4.8000000000000001E-002     8.2177400588989258     
   4.8300000000000010E-002     8.1388702392578125     
   4.8600000000000004E-002     8.0239048004150391     
   4.8899999999999999E-002     7.8739767074584961     
   4.9200000000000008E-002     7.6785979270935059     
   4.9500000000000002E-002     7.4167408943176270     
   4.9800000000000011E-002     7.0551943778991699     
   5.0100000000000006E-002     6.5537204742431641     
   5.0400000000000000E-002     5.8686866760253906     
   5.0700000000000009E-002     4.9577708244323730     
   5.1000000000000004E-002     3.7876203060150146     
   5.1299999999999998E-002     2.3378019332885742     
   5.1600000000000007E-002    0.60700285434722900     
   5.1900000000000002E-002    -1.3831653594970703     
   5.2200000000000010E-002    -3.5887112617492676     
   5.2500000000000005E-002    -5.9402399063110352     
   5.2800000000000000E-002    -8.3491888046264648     
   5.3099999999999994E-002    -10.710700035095215     
   5.3400000000000003E-002    -12.909659385681152     
   5.3699999999999998E-002    -14.829936981201172     
   5.4000000000000006E-002    -16.360803604125977     
   5.4300000000000001E-002    -17.404764175415039     
   5.4599999999999996E-002    -17.886484146118164     
   5.4900000000000004E-002    -17.757448196411133     
   5.5199999999999999E-002    -17.000623703002930     
   5.5499999999999994E-002    -15.634495735168457     
   5.5800000000000002E-002    -13.710517883300781     
   5.6099999999999997E-002    -11.314201354980469     
   5.6400000000000006E-002    -8.5593261718750000     
   5.6700000000000000E-002    -5.5808267593383789     
   5.6999999999999995E-002    -2.5293567180633545     
   5.7300000000000004E-002    0.44106110930442810     
   5.7599999999999998E-002     3.1804494857788086     
   5.7900000000000007E-002     5.5536160469055176     
   5.8200000000000002E-002     7.4503064155578613     
   5.8499999999999996E-002     8.7904062271118164     
   5.8800000000000005E-002     9.5325288772583008     
   5.9100000000000000E-002     9.6751155853271484     
   5.9400000000000008E-002     9.2562408447265625     
   5.9700000000000003E-002     8.3528375625610352     
   6.0000000000000012E-002     7.0713634490966797     
   6.0300000000000006E-002     5.5431551933288574     
   6.0600000000000001E-002     3.9112863540649414     
   6.0900000000000010E-002     2.3201732635498047     
   6.1200000000000004E-002    0.90544641017913818     
   6.1500000000000013E-002   -0.22033366560935974     
   6.1800000000000008E-002   -0.97227603197097778     
   6.2100000000000002E-002    -1.3027333021163940     
   6.2399999999999997E-002    -1.2035082578659058     
   6.2700000000000006E-002   -0.70363354682922363     
   6.3000000000000000E-002    0.13040059804916382     
   6.3300000000000009E-002     1.2066961526870728     
   6.3600000000000004E-002     2.4137501716613770     
   6.3899999999999998E-002     3.6327965259552002     
   6.4199999999999993E-002     4.7514114379882812     
   6.4500000000000002E-002     5.6699509620666504     
   6.4800000000000010E-002     6.3159389495849609     
   6.5100000000000005E-002     6.6462230682373047     
   6.5400000000000000E-002     6.6506700515747070     
   6.5700000000000008E-002     6.3540544509887695     
   6.5999999999999989E-002     5.8065748214721680     
   6.6299999999999998E-002     5.0814924240112305     
   6.6600000000000006E-002     4.2629661560058594     
   6.6900000000000001E-002     3.4356503486633301     
   6.7199999999999996E-002     2.6773264408111572     
   6.7500000000000004E-002     2.0464508533477783     
   6.7800000000000013E-002     1.5802291631698608     
   6.8099999999999994E-002     1.2888762950897217     
   6.8400000000000002E-002     1.1561143398284912     
   6.8700000000000011E-002     1.1454416513442993     
   6.8999999999999992E-002     1.2012279033660889     
   6.9300000000000000E-002     1.2611130475997925     
   6.9600000000000009E-002     1.2618713378906250     
   6.9900000000000004E-002     1.1466492414474487     
   7.0199999999999999E-002    0.87579572200775146     
   7.0500000000000007E-002    0.42616358399391174     
   7.0800000000000016E-002   -0.20248849689960480     
   7.1099999999999997E-002   -0.98970156908035278     
   7.1400000000000005E-002    -1.8988486528396606     
   7.1700000000000000E-002    -2.8779797554016113     
   7.1999999999999995E-002    -3.8720796108245850     
   7.2300000000000003E-002    -4.8256711959838867     
   7.2600000000000012E-002    -5.6902637481689453     
   7.2900000000000006E-002    -6.4325065612792969     
   7.3200000000000001E-002    -7.0327510833740234     
   7.3499999999999996E-002    -7.4903011322021484     
   7.3800000000000004E-002    -7.8201131820678711     
   7.4099999999999999E-002    -8.0477724075317383     
   7.4400000000000008E-002    -8.2071990966796875     
   7.4700000000000003E-002    -8.3307380676269531     
   7.5000000000000011E-002    -8.4446420669555664     
   7.5299999999999992E-002    -8.5643930435180664     
   7.5600000000000001E-002    -8.6887493133544922     
   7.5900000000000009E-002    -8.8021516799926758     
   7.6200000000000004E-002    -8.8750705718994141     
   7.6499999999999999E-002    -8.8677635192871094     
   7.6800000000000007E-002    -8.7389278411865234     
   7.7099999999999988E-002    -8.4507417678833008     
   7.7399999999999997E-002    -7.9758210182189941     
   7.7700000000000005E-002    -7.3028378486633301     
   7.8000000000000014E-002    -6.4360561370849609     
   7.8299999999999995E-002    -5.3955764770507812     
   7.8600000000000003E-002    -4.2109117507934570     
   7.8900000000000012E-002    -2.9123516082763672     
   7.9199999999999993E-002    -1.5232367515563965     
   7.9500000000000001E-002    -4.9559265375137329E-002
   7.9800000000000010E-002     1.5265426635742188     
   8.0100000000000018E-002     3.2474079132080078     
   8.0399999999999999E-002     5.1802692413330078     
   8.0700000000000008E-002     7.4041452407836914     
   8.1000000000000003E-002     9.9976100921630859     
   8.1299999999999997E-002     13.020256042480469     
   8.1600000000000006E-002     16.488788604736328     
   8.1900000000000014E-002     20.362934112548828     
   8.2199999999999995E-002     24.524646759033203     
   8.2500000000000004E-002     28.773759841918945     
   8.2799999999999999E-002     32.831211090087891     
   8.3100000000000007E-002     36.345821380615234     
   8.3400000000000002E-002     38.926540374755859     
   8.3700000000000011E-002     40.168983459472656     
   8.4000000000000005E-002     39.697494506835938     
   8.4300000000000000E-002     37.210914611816406     
   8.4599999999999995E-002     32.516048431396484     
   8.4900000000000003E-002     25.570716857910156     
   8.5199999999999998E-002     16.500005722045898     
   8.5500000000000007E-002     5.6077737808227539     
   8.5800000000000001E-002    -6.6282362937927246     
   8.6100000000000010E-002    -19.588088989257812     
   8.6399999999999991E-002    -32.539752960205078     
   8.6699999999999999E-002    -44.698490142822266     
   8.7000000000000008E-002    -55.286247253417969     
   8.7300000000000003E-002    -63.584411621093750     
   8.7599999999999997E-002    -69.008674621582031     
   8.7900000000000006E-002    -71.143447875976562     
   8.8200000000000014E-002    -69.783187866210938     
   8.8499999999999995E-002    -64.957618713378906     
   8.8800000000000004E-002    -56.914714813232422     
   8.9100000000000013E-002    -46.120471954345703     
   8.9399999999999993E-002    -33.210514068603516     
   8.9700000000000002E-002    -18.940128326416016     
   9.0000000000000011E-002    -4.1415367126464844     
   9.0299999999999991E-002     10.357985496520996     
   9.0600000000000000E-002     23.777500152587891     
   9.0900000000000009E-002     35.438137054443359     
   9.1200000000000017E-002     44.812942504882812     
   9.1499999999999998E-002     51.533306121826172     
   9.1800000000000007E-002     55.422698974609375     
   9.2100000000000001E-002     56.480998992919922     
   9.2399999999999996E-002     54.867698669433594     
   9.2700000000000005E-002     50.890625000000000     
   9.3000000000000013E-002     44.954944610595703     
   9.3300000000000008E-002     37.540882110595703     
   9.3600000000000003E-002     29.162536621093750     
   9.3899999999999997E-002     20.327007293701172     
   9.4200000000000006E-002     11.517725944519043     
   9.4500000000000001E-002     3.1558835506439209     
   9.4800000000000009E-002    -4.4081230163574219     
   9.5100000000000004E-002    -10.906111717224121     
   9.5399999999999999E-002    -16.162790298461914     
   9.5699999999999993E-002    -20.085388183593750     
   9.6000000000000002E-002    -22.663848876953125     
   9.6300000000000011E-002    -23.960451126098633     
   9.6600000000000005E-002    -24.091764450073242     
   9.6900000000000000E-002    -23.220548629760742     
   9.7200000000000009E-002    -21.538059234619141     
   9.7499999999999989E-002    -19.246093750000000     
   9.7799999999999998E-002    -16.549438476562500     
   9.8100000000000007E-002    -13.639487266540527     
   9.8400000000000015E-002    -10.683367729187012     
   9.8699999999999996E-002    -7.8245286941528320     
   9.9000000000000005E-002    -5.1690955162048340     
   9.9300000000000013E-002    -2.7929549217224121     
   9.9599999999999994E-002   -0.74333083629608154     
   9.9900000000000003E-002    0.96618145704269409     
  0.10020000000000001          2.3339197635650635     
  0.10049999999999999          3.3796820640563965     
  0.10080000000000000          4.1321377754211426     
  0.10110000000000001          4.6170358657836914     
  0.10140000000000000          4.8719162940979004     
  0.10170000000000000          4.9221396446228027     
  0.10200000000000001          4.7955918312072754     
  0.10230000000000002          4.5220532417297363     
  0.10260000000000000          4.1206369400024414     
  0.10290000000000001          3.6246445178985596     
  0.10320000000000000          3.0601446628570557     
  0.10350000000000001          2.4572045803070068     
  0.10380000000000000          1.8564684391021729     
  0.10410000000000001          1.2854888439178467     
  0.10440000000000001         0.78324389457702637     
  0.10470000000000000         0.37898346781730652     
  0.10500000000000000          9.1611586511135101E-002
  0.10530000000000000         -5.7136315852403641E-002
  0.10560000000000000         -7.0295602083206177E-002
  0.10590000000000001          4.9989603459835052E-002
  0.10620000000000000         0.28898704051971436     
  0.10650000000000001         0.61644744873046875     
  0.10679999999999999          1.0094758272171021     
  0.10710000000000000          1.4284332990646362     
  0.10740000000000001          1.8401019573211670     
  0.10770000000000000          2.2144868373870850     
  0.10800000000000000          2.5160562992095947     
  0.10830000000000001          2.7273485660552979     
  0.10859999999999999          2.8269352912902832     
  0.10890000000000000          2.8029465675354004     
  0.10920000000000001          2.6561181545257568     
  0.10950000000000001          2.3827242851257324     
  0.10979999999999999          1.9965168237686157     
  0.11009999999999999          1.5108461380004883     
  0.11040000000000001         0.94278347492218018     
  0.11070000000000001         0.32108485698699951     
  0.11100000000000000        -0.33249288797378540     
  0.11130000000000000        -0.98648142814636230     
  0.11160000000000002         -1.6119459867477417     
  0.11190000000000001         -2.1847517490386963     
  0.11220000000000001         -2.6765739917755127     
  0.11250000000000000         -3.0710699558258057     
  0.11280000000000000         -3.3538680076599121     
  0.11309999999999999         -3.5161511898040771     
  0.11340000000000001         -3.5607070922851562     
  0.11369999999999998         -3.4911196231842041     
  0.11400000000000000         -3.3200986385345459     
  0.11430000000000000         -3.0649833679199219     
  0.11460000000000002         -2.7423601150512695     
  0.11489999999999999         -2.3733515739440918     
  0.11520000000000001         -1.9763476848602295     
  0.11550000000000001         -1.5670466423034668     
  0.11580000000000000         -1.1608564853668213     
  0.11609999999999999        -0.76693117618560791     
  0.11640000000000002        -0.39279991388320923     
  0.11670000000000001         -4.4700123369693756E-002
  0.11700000000000001         0.27671939134597778     
  0.11730000000000000         0.56670409440994263     
  0.11760000000000000         0.82276785373687744     
  0.11789999999999999          1.0428601503372192     
  0.11820000000000001          1.2188683748245239     
  0.11850000000000001          1.3473833799362183     
  0.11880000000000000          1.4210176467895508     
  0.11910000000000000          1.4344389438629150     
  0.11940000000000002          1.3871570825576782     
  0.11970000000000001          1.2778034210205078     
  0.12000000000000001          1.1154785156250000     
  0.12030000000000000         0.91187351942062378     
  0.12060000000000000         0.68345874547958374     
  0.12089999999999999         0.45471274852752686     
  0.12119999999999999         0.24768744409084320     
  0.12150000000000001          8.8184729218482971E-002
  0.12180000000000001         -2.3007234558463097E-003
  0.12210000000000000         -1.0274715721607208E-002
  0.12239999999999999          7.3759198188781738E-002
  0.12270000000000002         0.24490101635456085     
  0.12300000000000001         0.49053782224655151     
  0.12330000000000001         0.78808051347732544     
  0.12360000000000000          1.1057962179183960     
  0.12390000000000000          1.4109060764312744     
  0.12419999999999999          1.6667309999465942     
  0.12450000000000001          1.8430052995681763     
  0.12480000000000001          1.9156216382980347     
  0.12509999999999999          1.8705010414123535     
  0.12540000000000001          1.7071659564971924     
  0.12570000000000003          1.4351465702056885     
  0.12600000000000000          1.0775195360183716     
  0.12630000000000002         0.66381788253784180     
  0.12659999999999999         0.22870914638042450     
  0.12690000000000001        -0.19186411798000336     
  0.12719999999999998        -0.56810754537582397     
  0.12750000000000000        -0.87484663724899292     
  0.12780000000000002         -1.0992957353591919     
  0.12809999999999999         -1.2394353151321411     
  0.12840000000000001         -1.3019303083419800     
  0.12869999999999998         -1.3060170412063599     
  0.12900000000000000         -1.2718037366867065     
  0.12930000000000003         -1.2241058349609375     
  0.12959999999999999         -1.1844900846481323     
  0.12990000000000002         -1.1650596857070923     
  0.13019999999999998         -1.1743276119232178     
  0.13050000000000000         -1.2049708366394043     
  0.13080000000000003         -1.2432212829589844     
  0.13109999999999999         -1.2686315774917603     
  0.13140000000000002         -1.2527323961257935     
  0.13169999999999998         -1.1743711233139038     
  0.13200000000000001         -1.0123658180236816     
  0.13229999999999997        -0.75737595558166504     
  0.13260000000000000        -0.41632533073425293     
  0.13290000000000002         -3.4483075141906738E-003
  0.13319999999999999         0.44627416133880615     
  0.13350000000000001         0.89128470420837402     
  0.13380000000000003          1.2843468189239502     
  0.13410000000000000          1.5735651254653931     
  0.13440000000000002          1.7200496196746826     
  0.13469999999999999          1.6900917291641235     
  0.13500000000000001          1.4700322151184082     
  0.13529999999999998          1.0681024789810181     
  0.13560000000000000         0.50661504268646240     
  0.13590000000000002        -0.16701266169548035     
  0.13619999999999999        -0.89418286085128784     
  0.13650000000000001         -1.6086581945419312     
  0.13680000000000003         -2.2370769977569580     
  0.13710000000000000         -2.7172780036926270     
  0.13740000000000002         -2.9947066307067871     
  0.13769999999999999         -3.0320737361907959     
  0.13800000000000001         -2.8168249130249023     
  0.13829999999999998         -2.3518242835998535     
  0.13860000000000000         -1.6673465967178345     
  0.13890000000000002        -0.81061965227127075     
  0.13919999999999999         0.16008746623992920     
  0.13950000000000001          1.1710259914398193     
  0.13979999999999998          2.1519770622253418     
  0.14010000000000000          3.0331366062164307     
  0.14040000000000002          3.7513020038604736     
  0.14069999999999999          4.2618870735168457     
  0.14100000000000001          4.5293703079223633     
  0.14130000000000004          4.5401949882507324     
  0.14160000000000000          4.2987565994262695     
  0.14189999999999997          3.8206875324249268     
  0.14219999999999999          3.1435124874114990     
  0.14250000000000002          2.3095929622650146     
  0.14279999999999998          1.3706527948379517     
  0.14310000000000000         0.38615643978118896     
  0.14339999999999997        -0.59109067916870117     
  0.14369999999999999         -1.5046892166137695     
  0.14400000000000002         -2.3069014549255371     
  0.14429999999999998         -2.9606318473815918     
  0.14460000000000001         -3.4328637123107910     
  0.14490000000000003         -3.7088820934295654     
  0.14520000000000000         -3.7817010879516602     
  0.14550000000000002         -3.6555464267730713     
  0.14579999999999999         -3.3509850502014160     
  0.14610000000000001         -2.8908329010009766     
  0.14640000000000003         -2.3113789558410645     
  0.14670000000000000         -1.6529579162597656     
  0.14699999999999996        -0.95487385988235474     
  0.14729999999999999        -0.26267069578170776     
  0.14760000000000001         0.38700562715530396     
  0.14789999999999998         0.96063363552093506     
  0.14820000000000000          1.4298413991928101     