  -1.4999999999999999E-002     0.0000000000000000     
  -1.4700000000000000E-002     0.0000000000000000     
  -1.4400000000000000E-002     0.0000000000000000     
  -1.4100000000000000E-002     0.0000000000000000     
  -1.3800000000000000E-002     0.0000000000000000     
  -1.3500000000000000E-002     0.0000000000000000     
  -1.3200000000000000E-002     0.0000000000000000     
  -1.2899999999999998E-002     0.0000000000000000     
  -1.2600000000000000E-002     0.0000000000000000     
  -1.2299999999999998E-002     0.0000000000000000     
  -1.2000000000000000E-002     0.0000000000000000     
  -1.1699999999999999E-002     0.0000000000000000     
  -1.1399999999999999E-002     0.0000000000000000     
  -1.1099999999999999E-002     0.0000000000000000     
  -1.0799999999999999E-002     0.0000000000000000     
  -1.0499999999999999E-002     0.0000000000000000     
  -1.0199999999999999E-002     0.0000000000000000     
  -9.8999999999999991E-003     0.0000000000000000     
  -9.5999999999999992E-003     0.0000000000000000     
  -9.2999999999999992E-003     0.0000000000000000     
  -8.9999999999999993E-003     0.0000000000000000     
  -8.6999999999999994E-003     0.0000000000000000     
  -8.3999999999999995E-003     0.0000000000000000     
  -8.0999999999999996E-003     0.0000000000000000     
  -7.7999999999999988E-003     0.0000000000000000     
  -7.4999999999999997E-003     0.0000000000000000     
  -7.1999999999999998E-003     0.0000000000000000     
  -6.8999999999999981E-003     0.0000000000000000     
  -6.5999999999999982E-003     0.0000000000000000     
  -6.3000000000000000E-003     0.0000000000000000     
  -6.0000000000000001E-003     0.0000000000000000     
  -5.6999999999999985E-003     0.0000000000000000     
  -5.3999999999999986E-003     0.0000000000000000     
  -5.1000000000000004E-003     0.0000000000000000     
  -4.7999999999999987E-003     0.0000000000000000     
  -4.5000000000000005E-003     0.0000000000000000     
  -4.1999999999999989E-003     0.0000000000000000     
  -3.8999999999999990E-003     0.0000000000000000     
  -3.5999999999999990E-003     0.0000000000000000     
  -3.2999999999999991E-003     0.0000000000000000     
  -2.9999999999999992E-003     0.0000000000000000     
  -2.6999999999999993E-003     0.0000000000000000     
  -2.3999999999999994E-003     0.0000000000000000     
  -2.0999999999999977E-003     0.0000000000000000     
  -1.7999999999999995E-003     0.0000000000000000     
  -1.4999999999999979E-003     7.0204256074171751E-039
  -1.1999999999999997E-003    -9.2205649147342612E-038
  -8.9999999999999976E-004    -1.0753375938209695E-036
  -5.9999999999999810E-004     5.7307416084822821E-038
  -2.9999999999999992E-004     3.9191371336292137E-036
   0.0000000000000000         -1.2710541696592396E-035
   3.0000000000000165E-004     5.9849535885191495E-035
   5.9999999999999984E-004     1.1470085981457655E-034
   9.0000000000000149E-004    -9.4217625898543905E-034
   1.2000000000000031E-003     2.8843851536527759E-033
   1.5000000000000013E-003     4.6203701216552425E-034
   1.8000000000000030E-003    -3.0740693855931843E-032
   2.1000000000000012E-003     7.5919798522447825E-032
   2.3999999999999994E-003     2.4095700686793895E-032
   2.7000000000000010E-003    -4.9070521941794866E-031
   2.9999999999999992E-003     1.0557555047729269E-030
   3.3000000000000008E-003    -3.9763938788035577E-031
   3.6000000000000025E-003    -3.5804121194957635E-030
   3.9000000000000007E-003     1.0810971019333847E-029
   4.2000000000000023E-003    -1.0386850211658317E-029
   4.5000000000000005E-003    -2.2790106266150570E-029
   4.7999999999999987E-003     8.4504652352073382E-029
   5.1000000000000004E-003    -4.4073288275376568E-029
   5.4000000000000020E-003    -3.3602887648519338E-028
   5.7000000000000037E-003     9.6590955652738157E-028
   5.9999999999999984E-003    -6.1098807284402656E-028
   6.3000000000000000E-003    -3.3924780282952609E-027
   6.6000000000000017E-003     1.2920940323531514E-026
   6.9000000000000034E-003    -2.2479324157879447E-026
   7.2000000000000015E-003     1.0851943013366518E-026
   7.5000000000000032E-003     5.6865435940429382E-026
   7.8000000000000014E-003    -1.9959731011932649E-025
   8.0999999999999996E-003     3.5509206470318553E-025
   8.4000000000000012E-003    -2.8714417591693801E-025
   8.7000000000000029E-003    -4.8380090451449118E-025
   9.0000000000000011E-003     2.4300011245985003E-024
   9.2999999999999992E-003    -4.3583439559719807E-024
   9.6000000000000009E-003    -2.7391347249641772E-024
   9.8999999999999991E-003     5.7814669400184408E-023
   1.0200000000000001E-002    -3.3014281951380934E-022
   1.0500000000000002E-002     1.6304090925144907E-021
   1.0800000000000004E-002    -7.8589191040750068E-021
   1.1099999999999999E-002     3.6531207662070677E-020
   1.1400000000000000E-002    -1.6016554446239080E-019
   1.1700000000000002E-002     6.6149203936908951E-019
   1.2000000000000004E-002    -2.6177684409786312E-018
   1.2300000000000002E-002     1.0210517143854128E-017
   1.2600000000000000E-002    -4.0456346579694493E-017
   1.2900000000000002E-002     1.6585254440224741E-016
   1.3200000000000000E-002    -6.9981214903217834E-016
   1.3500000000000002E-002     2.9557040520044099E-015
   1.3800000000000003E-002    -1.2007289720375176E-014
   1.4100000000000001E-002     4.4848571996291253E-014
   1.4400000000000000E-002    -1.4559198199181856E-013
   1.4700000000000001E-002     3.7163977182868494E-013
   1.4999999999999999E-002    -5.2749104152239595E-013
   1.5300000000000001E-002    -1.0719666380001930E-012
   1.5600000000000003E-002     1.0644913976024953E-011
   1.5899999999999997E-002    -3.9624572716771017E-011
   1.6199999999999999E-002     7.8361920970212753E-011
   1.6500000000000001E-002     1.6017016703392513E-012
   1.6800000000000002E-002    -5.2867768304292893E-010
   1.7100000000000004E-002     1.4955723282636729E-009
   1.7400000000000006E-002    -7.4822241558418455E-010
   1.7700000000000000E-002    -5.8668703731296736E-009
   1.8000000000000002E-002     1.2989816815527114E-008
   1.8300000000000004E-002     7.1803951803412478E-009
   1.8600000000000005E-002    -5.4680554784054627E-008
   1.8900000000000000E-002     8.2012905681973259E-010
   1.9200000000000002E-002     1.6715273683701544E-007
   1.9500000000000003E-002     3.4147563131815345E-008
   1.9799999999999998E-002    -4.7937349023823500E-007
   2.0100000000000000E-002    -4.5729360500767607E-007
   2.0400000000000001E-002     1.5655614473060757E-006
   2.0700000000000003E-002     6.2975794597665172E-006
   2.0999999999999998E-002     1.3218448642131862E-005
   2.1299999999999999E-002     2.1766079359807240E-005
   2.1600000000000001E-002     3.2550347981254602E-005
   2.1900000000000003E-002     4.7874614408325482E-005
   2.2200000000000004E-002     7.2036990370474147E-005
   2.2500000000000006E-002     1.1108872504900615E-004
   2.2800000000000001E-002     1.7246441996142305E-004
   2.3100000000000002E-002     2.6519046402000146E-004
   2.3400000000000004E-002     4.0098562593573507E-004
   2.3699999999999999E-002     5.9633077588551464E-004
   2.4000000000000000E-002     8.7404601681727659E-004
   2.4300000000000002E-002     1.2635231651598119E-003
   2.4599999999999997E-002     1.8005707381215097E-003
   2.4900000000000005E-002     2.5281302423486723E-003
   2.5200000000000000E-002     3.4984491729146278E-003
   2.5499999999999995E-002     4.7743934062272064E-003
   2.5800000000000003E-002     6.4274627967756404E-003
   2.6099999999999998E-002     8.5341521775717522E-003
   2.6400000000000007E-002     1.1173360583106862E-002
   2.6700000000000002E-002     1.4423270993130566E-002
   2.6999999999999996E-002     1.8355655821617911E-002
   2.7300000000000005E-002     2.3029699235501022E-002
   2.7600000000000000E-002     2.8484392377874146E-002
   2.7900000000000008E-002     3.4731527535031725E-002
   2.8200000000000003E-002     4.1748092337512421E-002
   2.8499999999999998E-002     4.9472220898158614E-002
   2.8800000000000006E-002     5.7803297049239255E-002
   2.9100000000000001E-002     6.6605840010914630E-002
   2.9400000000000003E-002     7.5710460102237143E-002
   2.9700000000000004E-002     8.4923090748002750E-002
   3.0000000000000006E-002     9.4035126387869372E-002
   3.0300000000000001E-002    0.10283896446994722     
   3.0600000000000002E-002    0.11113869741499149     
   3.0900000000000004E-002    0.11874786571604279     
   3.1199999999999999E-002    0.12548473824194861     
   3.1500000000000007E-002    0.13115715928114291     
   3.1800000000000002E-002    0.13553206577155041     
   3.2099999999999997E-002    0.13830114603944565     
   3.2400000000000005E-002    0.13901813000119123     
   3.2700000000000000E-002    0.13706475227878734     
   3.3000000000000002E-002    0.13159741713362560     
   3.3300000000000003E-002    0.12151891267300519     
   3.3599999999999998E-002    0.10549716735399173     
   3.3900000000000000E-002     8.1986567849378522E-002
   3.4200000000000001E-002     4.9356075579717884E-002
   3.4500000000000003E-002     5.9920085177631033E-003
   3.4799999999999998E-002    -4.9499328906699613E-002
   3.5099999999999999E-002   -0.11806664316729787     
   3.5400000000000001E-002   -0.20002147165468731     
   3.5699999999999996E-002   -0.29475905634705590     
   3.6000000000000004E-002   -0.40065452152808234     
   3.6299999999999999E-002   -0.51490596517448317     
   3.6600000000000008E-002   -0.63354254968181323     
   3.6900000000000002E-002   -0.75158052890870763     
   3.7199999999999997E-002   -0.86315865398654168     
   3.7500000000000006E-002   -0.96190333059636757     
   3.7800000000000000E-002    -1.0413175595975090     
   3.8100000000000009E-002    -1.0952046720019339     
   3.8400000000000004E-002    -1.1181644615837030     
   3.8699999999999998E-002    -1.1060565113015954     
   3.9000000000000007E-002    -1.0563318311375731     
   3.9300000000000002E-002   -0.96826430273592123     
   3.9600000000000003E-002   -0.84309219589833972     
   3.9900000000000005E-002   -0.68396581381910515     
   4.0200000000000000E-002   -0.49578578152930408     
   4.0500000000000001E-002   -0.28491462543916146     
   4.0800000000000003E-002    -5.8748648168332807E-002
   4.1100000000000005E-002    0.17473624687564460     
   4.1399999999999999E-002    0.40741405863645319     
   4.1700000000000008E-002    0.63163553437169284     
   4.2000000000000003E-002    0.84048173903877199     
   4.2299999999999997E-002     1.0282199000201153     
   4.2600000000000006E-002     1.1906163266544851     
   4.2900000000000001E-002     1.3249046113764251     
   4.3200000000000002E-002     1.4300224923248592     
   4.3500000000000004E-002     1.5064377048785005     
   4.3799999999999999E-002     1.5558521150194480     
   4.4100000000000000E-002     1.5811565303925406     
   4.4400000000000002E-002     1.5858510036476687     
   4.4700000000000004E-002     1.5736743641336304     
   4.4999999999999998E-002     1.5482189318170541     
   4.5300000000000000E-002     1.5121585831402982     
   4.5600000000000002E-002     1.4671974310332914     
   4.5899999999999996E-002     1.4134695380697408     
   4.6200000000000005E-002     1.3492440003578992     
   4.6500000000000000E-002     1.2712731953864065     
   4.6799999999999994E-002     1.1743690066500605     
   4.7100000000000003E-002     1.0523562973270231     
   4.7399999999999998E-002    0.89848739725218962     
   4.7700000000000006E-002    0.70595702584708597     
   4.8000000000000001E-002    0.46962062426270146     
   4.8300000000000010E-002    0.18618706419825326     
   4.8600000000000004E-002   -0.14423433319600587     
   4.8899999999999999E-002   -0.51732934294923005     
   4.9200000000000008E-002   -0.92477110476446356     
   4.9500000000000002E-002    -1.3529077870280872     
   4.9800000000000011E-002    -1.7842350146792256     
   5.0100000000000006E-002    -2.1977880236643443     
   5.0400000000000000E-002    -2.5699043488362463     
   5.0700000000000009E-002    -2.8771844503819750     
   5.1000000000000004E-002    -3.0969935432483311     
   5.1299999999999998E-002    -3.2103090932548923     
   5.1600000000000007E-002    -3.2032876894129458     
   5.1900000000000002E-002    -3.0682302564663075     
   5.2200000000000010E-002    -2.8054133858800157     
   5.2500000000000005E-002    -2.4224692896426632     
   5.2800000000000000E-002    -1.9344958356588720     
   5.3099999999999994E-002    -1.3632044737795290     
   5.3400000000000003E-002   -0.73459765567050361     
   5.3699999999999998E-002    -7.7860828315291286E-002
   5.4000000000000006E-002    0.57720795354593690     
   5.4300000000000001E-002     1.2025426903971734     
   5.4599999999999996E-002     1.7729468091301328     
   5.4900000000000004E-002     2.2683098119630642     
   5.5199999999999999E-002     2.6739980044472844     
   5.5499999999999994E-002     2.9809776344645229     
   5.5800000000000002E-002     3.1862012754803288     
   5.6099999999999997E-002     3.2911552426953676     
   5.6400000000000006E-002     3.3009830129359585     
   5.6700000000000000E-002     3.2234596952429797     
   5.6999999999999995E-002     3.0669241275132890     
   5.7300000000000004E-002     2.8400431742237799     
   5.7599999999999998E-002     2.5503452828846989     
   5.7900000000000007E-002     2.2038462811137478     
   5.8200000000000002E-002     1.8056071702453025     
   5.8499999999999996E-002     1.3590902999510206     
   5.8800000000000005E-002    0.86780839748042338     
   5.9100000000000000E-002    0.33573254958767507     
   5.9400000000000008E-002   -0.23190476101771962     
   5.9700000000000003E-002   -0.82700200170784655     
   6.0000000000000012E-002    -1.4388609672047252     
   6.0300000000000006E-002    -2.0531619749678498     
   6.0600000000000001E-002    -2.6521261557563491     
   6.0900000000000010E-002    -3.2154326894501963     
   6.1200000000000004E-002    -3.7203053345880619     
   6.1500000000000013E-002    -4.1435508545835944     
   6.1800000000000008E-002    -4.4625398421989928     
   6.2100000000000002E-002    -4.6567641865939891     
   6.2399999999999997E-002    -4.7103285563242707     
   6.2700000000000006E-002    -4.6120585989062022     
   6.3000000000000000E-002    -4.3577575900581991     
   6.3300000000000009E-002    -3.9507964220063059     
   6.3600000000000004E-002    -3.4017777115728620     
   6.3899999999999998E-002    -2.7291841684210780     
   6.4199999999999993E-002    -1.9579404509493585     
   6.4500000000000002E-002    -1.1184860347724523     
   6.4800000000000010E-002   -0.24481791606102732     
   6.5100000000000005E-002    0.62726290185741362     
   6.5400000000000000E-002     1.4620140094537319     
   6.5700000000000008E-002     2.2264120148121549     
   6.5999999999999989E-002     2.8910301743552509     
   6.6299999999999998E-002     3.4323597302431494     
   6.6600000000000006E-002     3.8334887258904757     
   6.6900000000000001E-002     4.0840503553829990     
   6.7199999999999996E-002     4.1812013236646521     
   6.7500000000000004E-002     4.1283885282187640     
   6.7800000000000013E-002     3.9347534905242156     
   6.8099999999999994E-002     3.6143794553553334     
   6.8400000000000002E-002     3.1844346998157107     
   6.8700000000000011E-002     2.6651270304421786     
   6.8999999999999992E-002     2.0777852463140434     
   6.9300000000000000E-002     1.4447635616991903     
   6.9600000000000009E-002    0.78939747765108681     
   6.9900000000000004E-002    0.13484346323725305     
   7.0199999999999999E-002   -0.49491911404319211     
   7.0500000000000007E-002    -1.0760039999800171     
   7.0800000000000016E-002    -1.5844007107988745     
   7.1099999999999997E-002    -1.9963487388940848     
   7.1400000000000005E-002    -2.2898077021719274     
   7.1700000000000000E-002    -2.4449957626011809     
   7.1999999999999995E-002    -2.4466214855399215     
   7.2300000000000003E-002    -2.2853904752456131     
   7.2600000000000012E-002    -1.9596923833579893     
   7.2900000000000006E-002    -1.4770428503745787     
   7.3200000000000001E-002   -0.85508573687499378     
   7.3499999999999996E-002   -0.12187320207776331     
   7.3800000000000004E-002    0.68536758985281310     
   7.4099999999999999E-002     1.5211966604613636     
   7.4400000000000008E-002     2.3353024075135096     
   7.4700000000000003E-002     3.0758950224947625     
   7.5000000000000011E-002     3.6932366334852276     
   7.5299999999999992E-002     4.1440824010916799     
   7.5600000000000001E-002     4.3943470618505387     
   7.5900000000000009E-002     4.4236225426009668     
   7.6200000000000004E-002     4.2256498254163830     
   7.6499999999999999E-002     3.8092837902545824     
   7.6800000000000007E-002     3.1990338545857782     
   7.7099999999999988E-002     2.4308321952999101     
   7.7399999999999997E-002     1.5513145539125119     
   7.7700000000000005E-002    0.61227068803536611     
   7.8000000000000014E-002   -0.33335238660925182     
   7.8299999999999995E-002    -1.2345758077354816     
   7.8600000000000003E-002    -2.0480344949732938     
   7.8900000000000012E-002    -2.7390523480642770     
   7.9199999999999993E-002    -3.2849850467219426     
   7.9500000000000001E-002    -3.6750635240433098     
   7.9800000000000010E-002    -3.9101541938313744     
   8.0100000000000018E-002    -4.0016458492745386     
   8.0399999999999999E-002    -3.9679381083532945     
   8.0700000000000008E-002    -3.8327639781155938     
   8.1000000000000003E-002    -3.6207447272246327     
   8.1299999999999997E-002    -3.3556367803676324     
   8.1600000000000006E-002    -3.0578970241561052     
   8.1900000000000014E-002    -2.7419307210858790     
   8.2199999999999995E-002    -2.4169761488783763     
   8.2500000000000004E-002    -2.0861991399606836     
   8.2799999999999999E-002    -1.7483319812757969     
   8.3100000000000007E-002    -1.3992298044674953     
   8.3400000000000002E-002    -1.0339304832814520     
   8.3700000000000011E-002   -0.64914962513119612     
   8.4000000000000005E-002   -0.24492182181298894     
   8.4300000000000000E-002    0.17339783628742778     
   8.4599999999999995E-002    0.59503649277539061     
   8.4900000000000003E-002     1.0028166944669010     
   8.5199999999999998E-002     1.3754645455335250     
   8.5500000000000007E-002     1.6878236087097136     
   8.5800000000000001E-002     1.9146451752267453     
   8.6100000000000010E-002     2.0330694615125537     
   8.6399999999999991E-002     2.0241353740019292     
   8.6699999999999999E-002     1.8785389247569810     
   8.7000000000000008E-002     1.5951066109926195     
   8.7300000000000003E-002     1.1851754530400695     
   8.7599999999999997E-002    0.67133937408030242     
   8.7900000000000006E-002     8.6004705449428620E-002
   8.8200000000000014E-002   -0.52772487253407974     
   8.8499999999999995E-002    -1.1230659538306398     
   8.8800000000000004E-002    -1.6493322018155894     
   8.9100000000000013E-002    -2.0577156450364527     
   8.9399999999999993E-002    -2.3062316056467438     
   8.9700000000000002E-002    -2.3605649545585408     
   9.0000000000000011E-002    -2.2011421545224579     
   9.0299999999999991E-002    -1.8219350688432812     
   9.0600000000000000E-002    -1.2336477475198500     
   9.0900000000000009E-002   -0.46373201697344513     
   9.1200000000000017E-002    0.44656711652954328     
   9.1499999999999998E-002     1.4418120186132697     
   9.1800000000000007E-002     2.4582473884276510     
   9.2100000000000001E-002     3.4266146034129150     
   9.2399999999999996E-002     4.2769406401719152     
   9.2700000000000005E-002     4.9443954017154965     
   9.3000000000000013E-002     5.3726780948589976     
   9.3300000000000008E-002     5.5195119199358089     
   9.3600000000000003E-002     5.3596706504585967     
   9.3899999999999997E-002     4.8880271627872105     
   9.4200000000000006E-002     4.1199338998753134     
   9.4500000000000001E-002     3.0918777373410582     
   9.4800000000000009E-002     1.8591664938577992     
   9.5100000000000004E-002    0.49221682580869697     
   9.5399999999999999E-002   -0.92678555495583304     
   9.5699999999999993E-002    -2.3114511538125981     
   9.6000000000000002E-002    -3.5755017562216977     
   9.6300000000000011E-002    -4.6401894848676477     
   9.6600000000000005E-002    -5.4408015837545065     
   9.6900000000000000E-002    -5.9294852819976427     
   9.7200000000000009E-002    -6.0818457690137393     
   9.7499999999999989E-002    -5.8959570814362507     
   9.7799999999999998E-002    -5.3944060628774224     
   9.8100000000000007E-002    -4.6217389482744693     
   9.8400000000000015E-002    -3.6395152149854582     
   9.8699999999999996E-002    -2.5232508157196438     
   9.9000000000000005E-002    -1.3538362098105416     
   9.9300000000000013E-002   -0.21261115944442466     
   9.9599999999999994E-002    0.82633548041824056     
   9.9900000000000003E-002     1.7019858716401970     
  0.10020000000000001          2.3700691806201348     
  0.10049999999999999          2.8073677109773882     
  0.10080000000000000          3.0116828416854986     
  0.10110000000000001          3.0014658143185926     
  0.10140000000000000          2.8129653427481003     
  0.10170000000000000          2.4955745912939591     
  0.10200000000000001          2.1070498084165052     
  0.10230000000000002          1.7071013435318960     
  0.10260000000000000          1.3512155566603141     
  0.10290000000000001          1.0864715117775674     
  0.10320000000000000         0.94622481649807355     
  0.10350000000000001         0.94816058697855254     
  0.10380000000000000          1.0934197820388718     
  0.10410000000000001          1.3667396031922863     
  0.10440000000000001          1.7399296768280550     
  0.10470000000000000          2.1736409956573652     
  0.10500000000000000          2.6229892754281252     
  0.10530000000000000          3.0415245227996621     
  0.10560000000000000          3.3841696542171036     
  0.10590000000000001          3.6131697499032640     
  0.10620000000000000          3.6976249015973934     
  0.10650000000000001          3.6170233040080007     
  0.10679999999999999          3.3611471918647169     
  0.10710000000000000          2.9284677506991983     
  0.10740000000000001          2.3273349951841240     
  0.10770000000000000          1.5716068069224818     
  0.10800000000000000         0.68132005742306490     
  0.10830000000000001        -0.31899882942438751     
  0.10859999999999999         -1.4031825309308879     
  0.10890000000000000         -2.5410580535892535     
  0.10920000000000001         -3.7024859221944553     
  0.10950000000000001         -4.8548694042742682     
  0.10979999999999999         -5.9647718584731138     
  0.11009999999999999         -6.9992158475129997     
  0.11040000000000001         -7.9239484345946209     
  0.11070000000000001         -8.7076203536659591     
  0.11100000000000000         -9.3204556863648236     
  0.11130000000000000         -9.7364173290725944     
  0.11160000000000002         -9.9350024110227650     
  0.11190000000000001         -9.9005222131825121     
  0.11220000000000001         -9.6248914959759588     
  0.11250000000000000         -9.1060548217056692     
  0.11280000000000000         -8.3486841707998281     
  0.11309999999999999         -7.3638060555001204     
  0.11340000000000001         -6.1674702042865199     
  0.11369999999999998         -4.7801214246388000     
  0.11400000000000000         -3.2263398206671781     
  0.11430000000000000         -1.5338298875064282     
  0.11460000000000002         0.26669928286742817     
  0.11489999999999999          2.1407647096349791     
  0.11520000000000001          4.0518412318046302     
  0.11550000000000001          5.9584028060303638     
  0.11580000000000000          7.8158153271185711     
  0.11609999999999999          9.5761446657485294     
  0.11640000000000002          11.187205486263395     
  0.11670000000000001          12.597383759471313     
  0.11700000000000001          13.752540531642239     
  0.11730000000000000          14.603360373422731     
  0.11760000000000000          15.105214986932140     
  0.11789999999999999          15.220986452026921     
  0.11820000000000001          14.927778971017062     
  0.11850000000000001          14.213777519154860     
  0.11880000000000000          13.085967817243954     
  0.11910000000000000          11.567445510482983     
  0.11940000000000002          9.6983649316227130     
  0.11970000000000001          7.5368569054403025     
  0.12000000000000001          5.1534900981614271     
  0.12030000000000000          2.6315963497633845     
  0.12060000000000000          6.0829428013192910E-002
  0.12089999999999999         -2.4657752041296419     
  0.12119999999999999         -4.8560052710709840     
  0.12150000000000001         -7.0242820107651198     
  0.12180000000000001         -8.8932958719934732     
  0.12210000000000000         -10.400748443669670     
  0.12239999999999999         -11.497664685522125     
  0.12270000000000002         -12.154444087802517     
  0.12300000000000001         -12.359675888359959     
  0.12330000000000001         -12.119392095150431     
  0.12360000000000000         -11.461712178102744     
  0.12390000000000000         -10.428198215507763     
  0.12419999999999999         -9.0789457442513992     
  0.12450000000000001         -7.4871220367754212     
  0.12480000000000001         -5.7343266883927662     
  0.12509999999999999         -3.9130071406070641     
  0.12540000000000001         -2.1144557571898162     
  0.12570000000000003        -0.43197164592616843     
  0.12600000000000000          1.0482558524026278     
  0.12630000000000002          2.2525295290506904     
  0.12659999999999999          3.1184087119722506     
  0.12690000000000001          3.6062776843187834     
  0.12719999999999998          3.6967972633669461     
  0.12750000000000000          3.3945652908105046     
  0.12780000000000002          2.7304139146830124     
  0.12809999999999999          1.7564137688234212     
  0.12840000000000001         0.54742423416042385     
  0.12869999999999998        -0.80562539453911475     
  0.12900000000000000         -2.2016748572508433     
  0.12930000000000003         -3.5334965266254557     
  0.12959999999999999         -4.6976233372018470     
  0.12990000000000002         -5.6006047158381023     
  0.13019999999999998         -6.1630395197457801     
  0.13050000000000000         -6.3310282106061635     
  0.13080000000000003         -6.0747291022901813     
  0.13109999999999999         -5.3930145815382389     
  0.13140000000000002         -4.3165084383751093     
  0.13169999999999998         -2.8993427663970976     
  0.13200000000000001         -1.2237439913444916     
  0.13229999999999997         0.61179627273442527     
  0.13260000000000000          2.4972854049686006     
  0.13290000000000002          4.3162048963878732     
  0.13319999999999999          5.9604398034913117     
  0.13350000000000001          7.3297231818135060     
  0.13380000000000003          8.3456770265328828     
  0.13410000000000000          8.9546007627349979     
  0.13440000000000002          9.1292003599791940     
  0.13469999999999999          8.8764183287389642     
  0.13500000000000001          8.2292419341872716     
  0.13529999999999998          7.2496679719982069     
  0.13560000000000000          6.0219361718454252     
  0.13590000000000002          4.6441281574721600     
  0.13619999999999999          3.2241874999652751     
  0.13650000000000001          1.8676462816388266     
  0.13680000000000003         0.67230534227645222     
  0.13710000000000000        -0.28121570919904926     
  0.13740000000000002        -0.93463647465124500     
  0.13769999999999999         -1.2569638318131133     
  0.13800000000000001         -1.2464534031438532     
  0.13829999999999998        -0.93073073218018720     
  0.13860000000000000        -0.36457743375221341     
  0.13890000000000002         0.37681779407441374     
  0.13919999999999999          1.2003730449834116     
  0.13950000000000001          2.0080889786974723     
  0.13979999999999998          2.7020004483545392     
  0.14010000000000000          3.1932229456104295     
  0.14040000000000002          3.4129669878643085     
  0.14069999999999999          3.3127972162301074     
  0.14100000000000001          2.8756499803326321     
  0.14130000000000004          2.1128702566484066     
  0.14160000000000000          1.0645945904561529     
  0.14189999999999997        -0.20104961983658320     
  0.14219999999999999         -1.5996254989048140     
  0.14250000000000002         -3.0308221132401201     
  0.14279999999999998         -4.3928404967899013     
  0.14310000000000000         -5.5894284797919056     
  0.14339999999999997         -6.5367428607083866     
  0.14369999999999999         -7.1749996120831270     
  0.14400000000000002         -7.4686926041503057     
  0.14429999999999998         -7.4129345125611792     
  0.14460000000000001         -7.0314000727961030     
  0.14490000000000003         -6.3740918023359541     
  0.14520000000000000         -5.5114173624828453     
  0.14550000000000002         -4.5275888284561816     
  0.14579999999999999         -3.5113057738999274     
  0.14610000000000001         -2.5468549492221371     
  0.14640000000000003         -1.7071077689094238     
  0.14670000000000000         -1.0443185527710099     
  0.14699999999999996        -0.59003679504124307     
  0.14729999999999999        -0.34822961751270576     
  0.14760000000000001        -0.29961798482838997     
  0.14789999999999998        -0.40565585023549033     
  0.14820000000000000        -0.60986562232150909     