  -1.4999999999999999E-002     0.0000000000000000     
  -1.4700000000000000E-002     0.0000000000000000     
  -1.4400000000000000E-002     0.0000000000000000     
  -1.4100000000000000E-002     0.0000000000000000     
  -1.3800000000000000E-002     0.0000000000000000     
  -1.3500000000000000E-002     0.0000000000000000     
  -1.3200000000000000E-002     0.0000000000000000     
  -1.2899999999999998E-002     0.0000000000000000     
  -1.2600000000000000E-002     0.0000000000000000     
  -1.2299999999999998E-002     0.0000000000000000     
  -1.2000000000000000E-002     0.0000000000000000     
  -1.1699999999999999E-002     0.0000000000000000     
  -1.1399999999999999E-002     0.0000000000000000     
  -1.1099999999999999E-002     0.0000000000000000     
  -1.0799999999999999E-002     0.0000000000000000     
  -1.0499999999999999E-002     0.0000000000000000     
  -1.0199999999999999E-002     0.0000000000000000     
  -9.8999999999999991E-003     0.0000000000000000     
  -9.5999999999999992E-003     0.0000000000000000     
  -9.2999999999999992E-003     0.0000000000000000     
  -8.9999999999999993E-003     0.0000000000000000     
  -8.6999999999999994E-003     0.0000000000000000     
  -8.3999999999999995E-003     0.0000000000000000     
  -8.0999999999999996E-003     0.0000000000000000     
  -7.7999999999999988E-003     0.0000000000000000     
  -7.4999999999999997E-003     0.0000000000000000     
  -7.1999999999999998E-003     0.0000000000000000     
  -6.8999999999999981E-003     0.0000000000000000     
  -6.5999999999999982E-003     0.0000000000000000     
  -6.3000000000000000E-003     0.0000000000000000     
  -6.0000000000000001E-003     0.0000000000000000     
  -5.6999999999999985E-003     0.0000000000000000     
  -5.3999999999999986E-003     0.0000000000000000     
  -5.1000000000000004E-003     0.0000000000000000     
  -4.7999999999999987E-003     0.0000000000000000     
  -4.5000000000000005E-003     0.0000000000000000     
  -4.1999999999999989E-003     0.0000000000000000     
  -3.8999999999999990E-003     0.0000000000000000     
  -3.5999999999999990E-003     0.0000000000000000     
  -3.2999999999999991E-003     0.0000000000000000     
  -2.9999999999999992E-003     0.0000000000000000     
  -2.6999999999999993E-003    -3.4412880995365370E-038
  -2.3999999999999994E-003    -9.5290690725989786E-037
  -2.0999999999999977E-003     3.4761770176813684E-036
  -1.7999999999999995E-003     1.4630429294319872E-036
  -1.4999999999999979E-003    -1.1760208285050932E-034
  -1.1999999999999997E-003     2.2283266280232297E-035
  -8.9999999999999976E-004     1.6228296408447984E-033
  -5.9999999999999810E-004    -2.7813282238999848E-033
  -2.9999999999999992E-004    -1.0686180982604751E-032
   0.0000000000000000          4.3025058916063593E-032
   3.0000000000000165E-004    -1.1648811736447640E-032
   5.9999999999999984E-004    -2.9399638791162105E-031
   9.0000000000000149E-004     9.5585355073287569E-031
   1.2000000000000031E-003    -6.1549384401891612E-031
   1.5000000000000013E-003    -5.9989420408280664E-030
   1.8000000000000030E-003     2.4087802649549534E-029
   2.1000000000000012E-003    -3.1755650284408479E-029
   2.3999999999999994E-003    -5.5665537113580297E-029
   2.7000000000000010E-003     3.3386291388051994E-028
   2.9999999999999992E-003    -6.7243637166325359E-028
   3.3000000000000008E-003     3.8181851506754973E-028
   3.6000000000000025E-003     1.8108941419974040E-027
   3.9000000000000007E-003    -6.5183841724241851E-027
   4.2000000000000023E-003     1.0144411664608780E-026
   4.5000000000000005E-003    -1.6465752509502263E-027
   4.7999999999999987E-003    -3.0322810365534973E-026
   5.1000000000000004E-003     7.1878093131382907E-026
   5.4000000000000020E-003    -5.8446583279748673E-026
   5.7000000000000037E-003    -9.9410100126793421E-026
   5.9999999999999984E-003     3.9807094052195327E-025
   6.3000000000000000E-003    -5.7081046641234911E-025
   6.6000000000000017E-003     4.8071309073814252E-026
   6.9000000000000034E-003     1.6445758050630748E-024
   7.2000000000000015E-003    -3.8896257175539154E-024
   7.5000000000000032E-003     3.7759861729024333E-024
   7.8000000000000014E-003     4.3166971373526466E-024
   8.0999999999999996E-003    -2.5996218863125062E-023
   8.4000000000000012E-003     5.1938687866325934E-023
   8.7000000000000029E-003    -5.4642787523437624E-024
   9.0000000000000011E-003    -3.8839766939749452E-022
   9.2999999999999992E-003     1.8670984717328443E-021
   9.6000000000000009E-003    -6.3646431288018265E-021
   9.8999999999999991E-003     2.0833820800524060E-020
   1.0200000000000001E-002    -7.8464553053229529E-020
   1.0500000000000002E-002     3.3929941287834304E-019
   1.0800000000000004E-002    -1.5066580841673359E-018
   1.1099999999999999E-002     6.4210864815884010E-018
   1.1400000000000000E-002    -2.6005615742880671E-017
   1.1700000000000002E-002     1.0138156457008717E-016
   1.2000000000000004E-002    -3.8414759388551563E-016
   1.2300000000000002E-002     1.4029339191982785E-015
   1.2600000000000000E-002    -4.7800877559003872E-015
   1.2900000000000002E-002     1.4259647025468192E-014
   1.3200000000000000E-002    -3.2337291860608404E-014
   1.3500000000000002E-002     2.6057165209673313E-014
   1.3800000000000003E-002     2.2510172557092033E-013
   1.4100000000000001E-002    -1.5271935862048591E-012
   1.4400000000000000E-002     5.5302560758825234E-012
   1.4700000000000001E-002    -1.1897527993436270E-011
   1.4999999999999999E-002     5.1198013119607885E-012
   1.5300000000000001E-002     6.5358842889102899E-011
   1.5600000000000003E-002    -2.3628868296104534E-010
   1.5899999999999997E-002     2.5646200095685025E-010
   1.6199999999999999E-002     6.6944158877650513E-010
   1.6500000000000001E-002    -2.4564775613679910E-009
   1.6800000000000002E-002     5.0115600677552813E-010
   1.7100000000000004E-002     9.5621740739722797E-009
   1.7400000000000006E-002    -8.4693347867388278E-009
   1.7700000000000000E-002    -3.4078214672582652E-008
   1.8000000000000002E-002     2.3269318507337197E-008
   1.8300000000000004E-002     1.0943153825471701E-007
   1.8600000000000005E-002    -1.4921731528308806E-008
   1.8900000000000000E-002    -3.0287663333986640E-007
   1.9200000000000002E-002    -1.1504638073777910E-007
   1.9500000000000003E-002     1.1224225898382790E-006
   1.9799999999999998E-002     2.9582070660772646E-006
   2.0100000000000000E-002     4.2921008576594965E-006
   2.0400000000000001E-002     5.1880735286652716E-006
   2.0700000000000003E-002     7.7095930907776652E-006
   2.0999999999999998E-002     1.4167859341540569E-005
   2.1299999999999999E-002     2.5153953685675334E-005
   2.1600000000000001E-002     4.0655725605789764E-005
   2.1900000000000003E-002     6.3001983382338046E-005
   2.2200000000000004E-002     9.7386766946304295E-005
   2.2500000000000006E-002     1.4988939602476967E-004
   2.2800000000000001E-002     2.2720097866162341E-004
   2.3100000000000002E-002     3.3890709086513600E-004
   2.3400000000000004E-002     4.9897568755358744E-004
   2.3699999999999999E-002     7.2566616372708032E-004
   2.4000000000000000E-002     1.0423464708901667E-003
   2.4300000000000002E-002     1.4800463003548578E-003
   2.4599999999999997E-002     2.0793675247973986E-003
   2.4900000000000005E-002     2.8900948397173470E-003
   2.5200000000000000E-002     3.9713643229130763E-003
   2.5499999999999995E-002     5.3948559764404880E-003
   2.5800000000000003E-002     7.2481623488401536E-003
   2.6099999999999998E-002     9.6346566932145605E-003
   2.6400000000000007E-002     1.2670277500409111E-002
   2.6700000000000002E-002     1.6482792479407760E-002
   2.6999999999999996E-002     2.1210458845781099E-002
   2.7300000000000005E-002     2.6997663537704053E-002
   2.7600000000000000E-002     3.3987739070122869E-002
   2.7900000000000008E-002     4.2314429675105014E-002
   2.8200000000000003E-002     5.2092355658530209E-002
   2.8499999999999998E-002     6.3403028572603937E-002
   2.8800000000000006E-002     7.6275877837951089E-002
   2.9100000000000001E-002     9.0669125783789273E-002
   2.9400000000000003E-002    0.10645514632854969     
   2.9700000000000004E-002    0.12340279660636178     
   3.0000000000000006E-002    0.14115668955403837     
   3.0300000000000001E-002    0.15921894753049060     
   3.0600000000000002E-002    0.17694145254474947     
   3.0900000000000004E-002    0.19353652284783607     
   3.1199999999999999E-002    0.20808598730349992     
   3.1500000000000007E-002    0.21956611826647254     
   3.1800000000000002E-002    0.22688849061620164     
   3.2099999999999997E-002    0.22894310353966674     
   3.2400000000000005E-002    0.22470005733720466     
   3.2700000000000000E-002    0.21327901302488073     
   3.3000000000000002E-002    0.19402771214268544     
   3.3300000000000003E-002    0.16660134871415844     
   3.3599999999999998E-002    0.13104710306228418     
   3.3900000000000000E-002     8.7878498556839935E-002
   3.4200000000000001E-002     3.8072271176225359E-002
   3.4500000000000003E-002    -1.6949801241632256E-002
   3.4799999999999998E-002    -7.5357357707321437E-002
   3.5099999999999999E-002   -0.13505493001238422     
   3.5400000000000001E-002   -0.19381782069988951     
   3.5699999999999996E-002   -0.24942949407904447     
   3.6000000000000004E-002   -0.29993573901609061     
   3.6299999999999999E-002   -0.34384720907506683     
   3.6600000000000008E-002   -0.38033859635272727     
   3.6900000000000002E-002   -0.40936624512751507     
   3.7199999999999997E-002   -0.43171295390762765     
   3.7500000000000006E-002   -0.44903864448589204     
   3.7800000000000000E-002   -0.46375681144835390     
   3.8100000000000009E-002   -0.47876856899514131     
   3.8400000000000004E-002   -0.49730074012514081     
   3.8699999999999998E-002   -0.52245483396177050     
   3.9000000000000007E-002   -0.55677713023215958     
   3.9300000000000002E-002   -0.60192708401210027     
   3.9600000000000003E-002   -0.65830878092361189     
   3.9900000000000005E-002   -0.72475219752240960     
   4.0200000000000000E-002   -0.79833596430242082     
   4.0500000000000001E-002   -0.87434052296103815     
   4.0800000000000003E-002   -0.94639103560598770     
   4.1100000000000005E-002    -1.0067747624107497     
   4.1399999999999999E-002    -1.0468548832090221     
   4.1700000000000008E-002    -1.0576305808908373     
   4.2000000000000003E-002    -1.0304123169005628     
   4.2299999999999997E-002   -0.95755568383813383     
   4.2600000000000006E-002   -0.83314133130641110     
   4.2900000000000001E-002   -0.65365781607263607     
   4.3200000000000002E-002   -0.41856532081715980     
   4.3500000000000004E-002   -0.13063223828257087     
   4.3799999999999999E-002    0.20376267885672217     
   4.4100000000000000E-002    0.57473544414416722     
   4.4400000000000002E-002    0.96907459022938625     
   4.4700000000000004E-002     1.3707847150169101     
   4.4999999999999998E-002     1.7617527589225404     
   4.5300000000000000E-002     2.1227216684451093     
   4.5600000000000002E-002     2.4343784979679981     
   4.5899999999999996E-002     2.6783569307059878     
   4.6200000000000005E-002     2.8386006303597213     
   4.6500000000000000E-002     2.9026074264870374     
   4.6799999999999994E-002     2.8621254621025685     
   4.7100000000000003E-002     2.7139519454621137     
   4.7399999999999998E-002     2.4605805363679281     
   4.7700000000000006E-002     2.1103579689334779     
   4.8000000000000001E-002     1.6770061906146587     
   4.8300000000000010E-002     1.1789086015220214     
   4.8600000000000004E-002    0.63831921891653565     
   4.8899999999999999E-002     8.0133705020814183E-002
   4.9200000000000008E-002   -0.46972666437543076     
   4.9500000000000002E-002   -0.98587434810204044     
   4.9800000000000011E-002    -1.4449047620791831     
   5.0100000000000006E-002    -1.8268593703263107     
   5.0400000000000000E-002    -2.1162573687803246     
   5.0700000000000009E-002    -2.3029145879229844     
   5.1000000000000004E-002    -2.3826512084464611     
   5.1299999999999998E-002    -2.3572100489113410     
   5.1600000000000007E-002    -2.2338902835982495     
   5.1900000000000002E-002    -2.0250964935083218     
   5.2200000000000010E-002    -1.7473333626922667     
   5.2500000000000005E-002    -1.4202643744167993     
   5.2800000000000000E-002    -1.0651887741371020     
   5.3099999999999994E-002   -0.70364369397272331     
   5.3400000000000003E-002   -0.35661231969596852     
   5.3699999999999998E-002    -4.2970732251554900E-002
   5.4000000000000006E-002    0.22173264485355304     
   5.4300000000000001E-002    0.42582570297932776     
   5.4599999999999996E-002    0.56208558853128920     
   5.4900000000000004E-002    0.62778954780999285     
   5.5199999999999999E-002    0.62493153160307813     
   5.5499999999999994E-002    0.56003453714573226     
   5.5800000000000002E-002    0.44293925581072457     
   5.6099999999999997E-002    0.28598470701887901     
   5.6400000000000006E-002    0.10334860748811137     
   5.6700000000000000E-002    -9.0166139041928162E-002
   5.6999999999999995E-002   -0.28003145542903418     
   5.7300000000000004E-002   -0.45302373594663514     
   5.7599999999999998E-002   -0.59812149248242719     
   5.7900000000000007E-002   -0.70616966975070738     
   5.8200000000000002E-002   -0.77037730660218884     
   5.8499999999999996E-002   -0.78659973060417343     
   5.8800000000000005E-002   -0.75260674322001364     
   5.9100000000000000E-002   -0.66785985825394789     
   5.9400000000000008E-002   -0.53332315740820491     
   5.9700000000000003E-002   -0.35111893060723753     
   6.0000000000000012E-002   -0.12477021054264537     
   6.0300000000000006E-002    0.14135490247262661     
   6.0600000000000001E-002    0.44173231567455495     
   6.0900000000000010E-002    0.76884393707947751     
   6.1200000000000004E-002     1.1134241083288927     
   6.1500000000000013E-002     1.4644499109681135     
   6.1800000000000008E-002     1.8089668870778013     
   6.2100000000000002E-002     2.1321211106293703     
   6.2399999999999997E-002     2.4178037531602996     
   6.2700000000000006E-002     2.6497393378487146     
   6.3000000000000000E-002     2.8125258942532980     
   6.3300000000000009E-002     2.8919802502818470     
   6.3600000000000004E-002     2.8769302414124951     
   6.3899999999999998E-002     2.7604883894115062     
   6.4199999999999993E-002     2.5405593746312576     
   6.4500000000000002E-002     2.2205093713901789     
   6.4800000000000010E-002     1.8090531215584740     
   6.5100000000000005E-002     1.3202225577986573     
   6.5400000000000000E-002    0.77368165165951197     
   6.5700000000000008E-002    0.19254942902878192     
   6.5999999999999989E-002   -0.39778993180504507     
   6.6299999999999998E-002   -0.97047191960171375     
   6.6600000000000006E-002    -1.4989209107068859     
   6.6900000000000001E-002    -1.9586476245057369     
   6.7199999999999996E-002    -2.3291194133625339     
   6.7500000000000004E-002    -2.5948538376966752     
   6.7800000000000013E-002    -2.7459808191152035     
   6.8099999999999994E-002    -2.7796143942202747     
   6.8400000000000002E-002    -2.7002693095326578     
   6.8700000000000011E-002    -2.5191191218358853     
   6.8999999999999992E-002    -2.2536289213387448     
   6.9300000000000000E-002    -1.9262386355516341     
   6.9600000000000009E-002    -1.5630551937934349     
   6.9900000000000004E-002    -1.1923942304869186     
   7.0199999999999999E-002   -0.84237418190611812     
   7.0500000000000007E-002   -0.53879038595461481     
   7.0800000000000016E-002   -0.30389524013512492     
   7.1099999999999997E-002   -0.15489935096623109     
   7.1400000000000005E-002   -0.10239709665714958     
   7.1700000000000000E-002   -0.14990810895140871     
   7.1999999999999995E-002   -0.29397346401976598     
   7.2300000000000003E-002   -0.52465058043175183     
   7.2600000000000012E-002   -0.82601796069143063     
   7.2900000000000006E-002    -1.1769694619678930     
   7.3200000000000001E-002    -1.5535450143608784     
   7.3499999999999996E-002    -1.9298600537981940     
   7.3800000000000004E-002    -2.2793444480398364     
   7.4099999999999999E-002    -2.5766260344535539     
   7.4400000000000008E-002    -2.7984483261897992     
   7.4700000000000003E-002    -2.9247802799705909     
   7.5000000000000011E-002    -2.9398220666761148     
   7.5299999999999992E-002    -2.8322615301658800     
   7.5600000000000001E-002    -2.5963564386165316     
   7.5900000000000009E-002    -2.2318839191007811     
   7.6200000000000004E-002    -1.7442954953765408     
   7.6499999999999999E-002    -1.1448223987292252     
   7.6800000000000007E-002   -0.45022481742872245     
   7.7099999999999988E-002    0.31740585713609448     
   7.7399999999999997E-002     1.1316186664567880     
   7.7700000000000005E-002     1.9622383936749088     
   7.8000000000000014E-002     2.7766499305140826     
   7.8299999999999995E-002     3.5412967415709460     
   7.8600000000000003E-002     4.2234943253388906     
   7.8900000000000012E-002     4.7927575667476390     
   7.9199999999999993E-002     5.2224071240781882     
   7.9500000000000001E-002     5.4918132268021793     
   7.9800000000000010E-002     5.5875950065408517     
   8.0100000000000018E-002     5.5041419197089567     
   8.0399999999999999E-002     5.2442814280209404     
   8.0700000000000008E-002     4.8193200719225189     
   8.1000000000000003E-002     4.2488337464868664     
   8.1299999999999997E-002     3.5589206428870526     
   8.1600000000000006E-002     2.7807899969556047     
   8.1900000000000014E-002     1.9492107355229997     
   8.2199999999999995E-002     1.1002088339729337     
   8.2500000000000004E-002    0.26918642662047354     
   8.2799999999999999E-002   -0.51130206394568845     
   8.3100000000000007E-002    -1.2133772353221985     
   8.3400000000000002E-002    -1.8145765843013137     
   8.3700000000000011E-002    -2.2988487784617320     
   8.4000000000000005E-002    -2.6569643659456403     
   8.4300000000000000E-002    -2.8863968522864383     
   8.4599999999999995E-002    -2.9904493998345600     
   8.4900000000000003E-002    -2.9772822475520400     
   8.5199999999999998E-002    -2.8590784167196119     
   8.5500000000000007E-002    -2.6503305846277243     
   8.5800000000000001E-002    -2.3667859621569036     
   8.6100000000000010E-002    -2.0249153416641761     
   8.6399999999999991E-002    -1.6412328107942358     
   8.6699999999999999E-002    -1.2309417524878690     
   8.7000000000000008E-002   -0.80838925171897280     
   8.7300000000000003E-002   -0.38776249386152539     
   8.7599999999999997E-002     1.7466843875736160E-002
   8.7900000000000006E-002    0.39495072913004492     
   8.8200000000000014E-002    0.73268294596487848     
   8.8499999999999995E-002     1.0189747826723199     
   8.8800000000000004E-002     1.2432549217561260     
   8.9100000000000013E-002     1.3976161065005996     
   8.9399999999999993E-002     1.4766247218101256     
   8.9700000000000002E-002     1.4778031819311082     
   9.0000000000000011E-002     1.4031901171806176     
   9.0299999999999991E-002     1.2597066688596890     
   9.0600000000000000E-002     1.0588046948246177     
   9.0900000000000009E-002    0.81570817512061478     
   9.1200000000000017E-002    0.54815257473251044     
   9.1499999999999998E-002    0.27545556687268302     
   9.1800000000000007E-002     1.6389197201595707E-002
   9.2100000000000001E-002   -0.21305731119525984     
   9.2399999999999996E-002   -0.40147511497370481     
   9.2700000000000005E-002   -0.54348959036386191     
   9.3000000000000013E-002   -0.64000747717494733     
   9.3300000000000008E-002   -0.69845497031629833     
   9.3600000000000003E-002   -0.73272464755536149     
   9.3899999999999997E-002   -0.76103730638260814     
   9.4200000000000006E-002   -0.80381016581619846     
   9.4500000000000001E-002   -0.88176618003899421     
   9.4800000000000009E-002    -1.0133751819060457     
   9.5100000000000004E-002    -1.2121703298429054     
   9.5399999999999999E-002    -1.4857368827544448     
   9.5699999999999993E-002    -1.8346482122247707     
   9.6000000000000002E-002    -2.2513614918260316     
   9.6300000000000011E-002    -2.7204321574109969     
   9.6600000000000005E-002    -3.2201683928825418     
   9.6900000000000000E-002    -3.7237637506523527     
   9.7200000000000009E-002    -4.1996673239830784     
   9.7499999999999989E-002    -4.6142316188769996     
   9.7799999999999998E-002    -4.9342990884509277     
   9.8100000000000007E-002    -5.1278408006721747     
   9.8400000000000015E-002    -5.1652337708978848     
   9.8699999999999996E-002    -5.0214127371455106     
   9.9000000000000005E-002    -4.6778444276361313     
   9.9300000000000013E-002    -4.1233830725567593     
   9.9599999999999994E-002    -3.3549847209434631     
   9.9900000000000003E-002    -2.3787282571176007     
  0.10020000000000001         -1.2111073141100377     
  0.10049999999999999         0.12058175703855767     
  0.10080000000000000          1.5787249455846002     
  0.10110000000000001          3.1172351702109182     
  0.10140000000000000          4.6821752204970579     
  0.10170000000000000          6.2130994781991831     
  0.10200000000000001          7.6471091474247999     
  0.10230000000000002          8.9232428788284892     
  0.10260000000000000          9.9843271788217862     
  0.10290000000000001          10.779997067617956     
  0.10320000000000000          11.270856548195638     
  0.10350000000000001          11.431397902930883     
  0.10380000000000000          11.250252894978445     
  0.10410000000000001          10.730357703301962     
  0.10440000000000001          9.8893645893124358     
  0.10470000000000000          8.7582307379280451     
  0.10500000000000000          7.3781911058556950     
  0.10530000000000000          5.7981450095487688     
  0.10560000000000000          4.0714096991280257     
  0.10590000000000001          2.2531343899909899     
  0.10620000000000000         0.39796972005539999     
  0.10650000000000001         -1.4429859942615444     
  0.10679999999999999         -3.2236364936838413     
  0.10710000000000000         -4.9029702155269348     
  0.10740000000000001         -6.4445158777675147     
  0.10770000000000000         -7.8169947954212660     
  0.10800000000000000         -8.9941404396336679     
  0.10830000000000001         -9.9522895035900092     
  0.10859999999999999         -10.669637128431361     
  0.10890000000000000         -11.127246797265002     
  0.10920000000000001         -11.308552574804594     
  0.10950000000000001         -11.199274042101024     
  0.10979999999999999         -10.789315455582539     
  0.11009999999999999         -10.075073625038144     
  0.11040000000000001         -9.0605114879164077     
  0.11070000000000001         -7.7600416714926048     
  0.11100000000000000         -6.1998518953387958     
  0.11130000000000000         -4.4190334446447537     
  0.11160000000000002         -2.4707281750021934     
  0.11190000000000001        -0.42110149903739824     
  0.11220000000000001          1.6534048569054427     
  0.11250000000000000          3.6681922816913044     
  0.11280000000000000          5.5347229210985631     
  0.11309999999999999          7.1657969508679855     
  0.11340000000000001          8.4819990002802683     
  0.11369999999999998          9.4154971548680351     
  0.11400000000000000          9.9149242120310248     
  0.11430000000000000          9.9510095067492159     
  0.11460000000000002          9.5181594939081435     
  0.11489999999999999          8.6348880430868640     
  0.11520000000000001          7.3451135630957154     
  0.11550000000000001          5.7155094937879198     
  0.11580000000000000          3.8306422469971437     
  0.11609999999999999          1.7899880421476269     
  0.11640000000000002        -0.29843964538240897     
  0.11670000000000001         -2.3247084816924044     
  0.11700000000000001         -4.1822882115638293     
  0.11730000000000000         -5.7749721676182446     
  0.11760000000000000         -7.0220466458488602     
  0.11789999999999999         -7.8627603345212833     
  0.11820000000000001         -8.2600433260127204     
  0.11850000000000001         -8.2017440697864004     
  0.11880000000000000         -7.7018232410575322     
  0.11910000000000000         -6.7991522968691207     
  0.11940000000000002         -5.5545974162068745     
  0.11970000000000001         -4.0479002248623885     
  0.12000000000000001         -2.3715596733344171     
  0.12030000000000000        -0.62533321629170047     
  0.12060000000000000          1.0891116227146109     
  0.12089999999999999          2.6755187818829569     
  0.12119999999999999          4.0493608181246969     
  0.12150000000000001          5.1419152734021907     
  0.12180000000000001          5.9043090613290019     
  0.12210000000000000          6.3103308482660054     
  0.12239999999999999          6.3571712926670187     
  0.12270000000000002          6.0652816706688739     
  0.12300000000000001          5.4753455818704850     
  0.12330000000000001          4.6453020163821943     
  0.12360000000000000          3.6461468567978947     
  0.12390000000000000          2.5555606044279742     
  0.12419999999999999          1.4537202796125115     
  0.12450000000000001         0.41731698538205819     
  0.12480000000000001        -0.48656169641007629     
  0.12509999999999999         -1.2033252339193190     
  0.12540000000000001         -1.6950464023376171     
  0.12570000000000003         -1.9431357380164571     
  0.12600000000000000         -1.9479125475830195     
  0.12630000000000002         -1.7291870945900172     
  0.12659999999999999         -1.3241002240089372     
  0.12690000000000001        -0.78327962786098482     
  0.12719999999999998        -0.16673544711380828     
  0.12750000000000000         0.46078941926797112     
  0.12780000000000002          1.0346814671726321     
  0.12809999999999999          1.4964419345722462     
  0.12840000000000001          1.7994844836870172     
  0.12869999999999998          1.9108038399699403     
  0.12900000000000000          1.8146924230719890     
  0.12930000000000003          1.5147880746435547     
  0.12959999999999999          1.0326188521329769     
  0.12990000000000002         0.40582699129718591     
  0.13019999999999998        -0.31467000816488433     
  0.13050000000000000         -1.0700329120867451     
  0.13080000000000003         -1.7974983080423570     
  0.13109999999999999         -2.4365398391922781     
  0.13140000000000002         -2.9350188670827464     
  0.13169999999999998         -3.2527599607146982     
  0.13200000000000001         -3.3649972478446699     
  0.13229999999999997         -3.2644345687252425     
  0.13260000000000000         -2.9624265058202468     
  0.13290000000000002         -2.4884553616547471     
  0.13319999999999999         -1.8848824559402368     
  0.13350000000000001         -1.2038214835816454     
  0.13380000000000003        -0.50472128257707993     
  0.13410000000000000         0.15301388882313560     
  0.13440000000000002         0.71591383954127075     
  0.13469999999999999          1.1398304731918643     
  0.13500000000000001          1.3932434867086130     
  0.13529999999999998          1.4599839561809063     
  0.13560000000000000          1.3406416316810166     
  0.13590000000000002          1.0519699391787265     
  0.13619999999999999         0.62318530199858468     
  0.13650000000000001          9.4226530139113862E-002
  0.13680000000000003        -0.48728479676506886     
  0.13710000000000000         -1.0721935673159528     
  0.13740000000000002         -1.6137590412671088     
  0.13769999999999999         -2.0702630106151645     
  0.13800000000000001         -2.4085054630235732     
  0.13829999999999998         -2.6062919842178189     
  0.13860000000000000         -2.6534431496560984     
  0.13890000000000002         -2.5506000971427021     
  0.13919999999999999         -2.3076810097375109     
  0.13950000000000001         -1.9445393218072375     
  0.13979999999999998         -1.4864941150894109     
  0.14010000000000000        -0.96115436336627624     
  0.14040000000000002        -0.39749928770108767     
  0.14069999999999999         0.17675926566592493     
  0.14100000000000001         0.73710239405082589     
  0.14130000000000004          1.2633765701073756     
  0.14160000000000000          1.7408772027445210     
  0.14189999999999997          2.1586432553160648     
  0.14219999999999999          2.5100889654433161     
  0.14250000000000002          2.7929342250024263     
  0.14279999999999998          3.0073564614302057     
  0.14310000000000000          3.1547779147208672     
  0.14339999999999997          3.2375907134005786     
  0.14369999999999999          3.2588027312702366     
  0.14400000000000002          3.2218591719002490     
  0.14429999999999998          3.1297433563226065     
  0.14460000000000001          2.9853611786141556     
  0.14490000000000003          2.7926364884237174     
  0.14520000000000000          2.5560635082809355     
  0.14550000000000002          2.2806807050029221     
  0.14579999999999999          1.9730976298515976     
  0.14610000000000001          1.6410605553297124     
  0.14640000000000003          1.2929023933188653     
  0.14670000000000000         0.93784702567360867     
  0.14699999999999996         0.58550531100643255     
  0.14729999999999999         0.24520861050035059     
  0.14760000000000001         -7.5701386867685017E-002
  0.14789999999999998        -0.37115017523565985     
  0.14820000000000000        -0.63592655367068929     