  -1.4999999999999999E-002     0.0000000000000000     
  -1.4700000000000000E-002     0.0000000000000000     
  -1.4400000000000000E-002     0.0000000000000000     
  -1.4100000000000000E-002     0.0000000000000000     
  -1.3800000000000000E-002     0.0000000000000000     
  -1.3500000000000000E-002     0.0000000000000000     
  -1.3200000000000000E-002     0.0000000000000000     
  -1.2899999999999998E-002     0.0000000000000000     
  -1.2600000000000000E-002     0.0000000000000000     
  -1.2299999999999998E-002     0.0000000000000000     
  -1.2000000000000000E-002     0.0000000000000000     
  -1.1699999999999999E-002     0.0000000000000000     
  -1.1399999999999999E-002     0.0000000000000000     
  -1.1099999999999999E-002     0.0000000000000000     
  -1.0799999999999999E-002     0.0000000000000000     
  -1.0499999999999999E-002     0.0000000000000000     
  -1.0199999999999999E-002     0.0000000000000000     
  -9.8999999999999991E-003     0.0000000000000000     
  -9.5999999999999992E-003     0.0000000000000000     
  -9.2999999999999992E-003     0.0000000000000000     
  -8.9999999999999993E-003     0.0000000000000000     
  -8.6999999999999994E-003     0.0000000000000000     
  -8.3999999999999995E-003     0.0000000000000000     
  -8.0999999999999996E-003     0.0000000000000000     
  -7.7999999999999988E-003     0.0000000000000000     
  -7.4999999999999997E-003     0.0000000000000000     
  -7.1999999999999998E-003     0.0000000000000000     
  -6.8999999999999981E-003     0.0000000000000000     
  -6.5999999999999982E-003     7.8542173564469409E-038
  -6.3000000000000000E-003    -1.8413843857875067E-036
  -6.0000000000000001E-003    -2.6363097500380271E-036
  -5.6999999999999985E-003    -1.1074603193810437E-034
  -5.3999999999999986E-003     4.7160686418196322E-034
  -5.1000000000000004E-003     1.1435641773657109E-032
  -4.7999999999999987E-003    -1.0225277411475236E-031
  -4.5000000000000005E-003     2.9402278144857824E-031
  -4.1999999999999989E-003     2.6250088950613690E-031
  -3.8999999999999990E-003    -4.2337213915486973E-030
  -3.5999999999999990E-003     1.1195789621638421E-029
  -3.2999999999999991E-003     2.9467894239520724E-031
  -2.9999999999999992E-003    -7.8090693492131405E-029
  -2.6999999999999993E-003     1.7110266163608660E-028
  -2.3999999999999994E-003     2.7442700963020109E-028
  -2.0999999999999977E-003    -2.5817181423218283E-027
  -1.7999999999999995E-003     7.0250097391952374E-027
  -1.4999999999999979E-003    -6.5499390590692824E-027
  -1.1999999999999997E-003    -2.1567811519852230E-026
  -8.9999999999999976E-004     1.1650643568378369E-025
  -5.9999999999999810E-004    -3.1604716230786996E-025
  -2.9999999999999992E-004     5.9034775620763741E-025
   0.0000000000000000         -6.0621347464486213E-025
   3.0000000000000165E-004    -8.9189106982353358E-025
   5.9999999999999984E-004     6.9402909590513518E-024
   9.0000000000000149E-004    -2.1649997242977548E-023
   1.2000000000000031E-003     4.2820152485414500E-023
   1.5000000000000013E-003    -4.0708479127220961E-023
   1.8000000000000030E-003    -7.5894767834826554E-023
   2.1000000000000012E-003     4.7587139223646654E-022
   2.3999999999999994E-003    -1.3303806709012468E-021
   2.7000000000000010E-003     2.5601033971156635E-021
   2.9999999999999992E-003    -3.4173383732237124E-021
   3.3000000000000008E-003     2.1745657419352779E-021
   3.6000000000000025E-003     3.4759082535887220E-021
   3.9000000000000007E-003    -1.4638056307202604E-020
   4.2000000000000023E-003     2.8042195016197639E-020
   4.5000000000000005E-003    -3.2791268326237583E-020
   4.7999999999999987E-003     8.1700596790119866E-021
   5.1000000000000004E-003     8.2689187482045838E-020
   5.4000000000000020E-003    -3.2241747688394172E-019
   5.7000000000000037E-003     9.0160939349235998E-019
   5.9999999999999984E-003    -2.0464266374827143E-018
   6.3000000000000000E-003     2.9477726773475527E-018
   6.6000000000000017E-003     2.7172351658823394E-018
   6.9000000000000034E-003    -3.7967702612747277E-017
   7.2000000000000015E-003     1.5498005664212283E-016
   7.5000000000000032E-003    -4.0032344098190654E-016
   7.8000000000000014E-003     5.7731224586011348E-016
   8.0999999999999996E-003     4.4853443875725318E-016
   8.4000000000000012E-003    -5.7405891936465180E-015
   8.7000000000000029E-003     1.9141945109069428E-014
   9.0000000000000011E-003    -3.4131839742783734E-014
   9.2999999999999992E-003     1.2618698742709357E-015
   9.6000000000000009E-003     2.1278599271045556E-013
   9.8999999999999991E-003    -7.5217978547093001E-013
   1.0200000000000001E-002     1.2426148434871442E-012
   1.0500000000000002E-002     6.0401282499927822E-013
   1.0800000000000004E-002    -1.0470465640344262E-011
   1.1099999999999999E-002     3.3284090761309670E-011
   1.1400000000000000E-002    -4.7540020531311455E-011
   1.1700000000000002E-002    -5.6126304992520915E-011
   1.2000000000000004E-002     4.8827158982689411E-010
   1.2300000000000002E-002    -1.1275924638454171E-009
   1.2600000000000000E-002     2.0657453525529945E-010
   1.2900000000000002E-002     5.7941806907990667E-009
   1.3200000000000000E-002    -1.3271137078163520E-008
   1.3500000000000002E-002    -4.5639989565415817E-009
   1.3800000000000003E-002     6.5828054118810542E-008
   1.4100000000000001E-002    -5.3761318952183501E-008
   1.4400000000000000E-002    -2.2382950248811539E-007
   1.4700000000000001E-002     2.6539319719631749E-007
   1.4999999999999999E-002     7.4667144644990913E-007
   1.5300000000000001E-002    -6.7827886596205644E-007
   1.5600000000000003E-002    -2.7343126021150965E-006
   1.5899999999999997E-002     1.1612229400270735E-006
   1.6199999999999999E-002     1.8427777831675485E-005
   1.6500000000000001E-002     5.2003993914695457E-005
   1.6800000000000002E-002     1.0119048965862021E-004
   1.7100000000000004E-002     1.6788544598966837E-004
   1.7400000000000006E-002     2.6305133360438049E-004
   1.7700000000000000E-002     4.0927133522927761E-004
   1.8000000000000002E-002     6.3939910614863038E-004
   1.8300000000000004E-002     9.9646532908082008E-004
   1.8600000000000005E-002     1.5375823713839054E-003
   1.8900000000000000E-002     2.3393784649670124E-003
   1.9200000000000002E-002     3.5067512653768063E-003
   1.9500000000000003E-002     5.1862788386642933E-003
   1.9799999999999998E-002     7.5755743309855461E-003
   2.0100000000000000E-002     1.0924784466624260E-002
   2.0400000000000001E-002     1.5540302731096745E-002
   2.0700000000000003E-002     2.1796397864818573E-002
   2.0999999999999998E-002     3.0143052339553833E-002
   2.1299999999999999E-002     4.1098531335592270E-002
   2.1600000000000001E-002     5.5229429155588150E-002
   2.1900000000000003E-002     7.3124565184116364E-002
   2.2200000000000004E-002     9.5352090895175934E-002
   2.2500000000000006E-002    0.12239957600831985     
   2.2800000000000001E-002    0.15459559857845306     
   2.3100000000000002E-002    0.19200848042964935     
   2.3400000000000004E-002    0.23433791100978851     
   2.3699999999999999E-002    0.28077968955039978     
   2.4000000000000000E-002    0.32989451289176941     
   2.4300000000000002E-002    0.37952640652656555     
   2.4599999999999997E-002    0.42669799923896790     
   2.4900000000000005E-002    0.46763408184051514     
   2.5200000000000000E-002    0.49775582551956177     
   2.5499999999999995E-002    0.51183289289474487     
   2.5800000000000003E-002    0.50422155857086182     
   2.6099999999999998E-002    0.46921524405479431     
   2.6400000000000007E-002    0.40147116780281067     
   2.6700000000000002E-002    0.29651844501495361     
   2.6999999999999996E-002    0.15134167671203613     
   2.7300000000000005E-002    -3.5080078989267349E-002
   2.7600000000000000E-002   -0.26128789782524109     
   2.7900000000000008E-002   -0.52291125059127808     
   2.8200000000000003E-002   -0.81253576278686523     
   2.8499999999999998E-002    -1.1197131872177124     
   2.8800000000000006E-002    -1.4311361312866211     
   2.9100000000000001E-002    -1.7314083576202393     
   2.9400000000000003E-002    -2.0036947727203369     
   2.9700000000000004E-002    -2.2308332920074463     
   3.0000000000000006E-002    -2.3964910507202148     
   3.0300000000000001E-002    -2.4862496852874756     
   3.0600000000000002E-002    -2.4889156818389893     
   3.0900000000000004E-002    -2.3973104953765869     
   3.1199999999999999E-002    -2.2090022563934326     
   3.1500000000000007E-002    -1.9268534183502197     
   3.1800000000000002E-002    -1.5587279796600342     
   3.2099999999999997E-002    -1.1172940731048584     
   3.2400000000000005E-002   -0.61906313896179199     
   3.2700000000000000E-002    -8.3536453545093536E-002
   3.3000000000000002E-002    0.46816402673721313     
   3.3300000000000003E-002     1.0145794153213501     
   3.3599999999999998E-002     1.5350923538208008     
   3.3900000000000000E-002     2.0113224983215332     
   3.4200000000000001E-002     2.4278326034545898     
   3.4500000000000003E-002     2.7727947235107422     
   3.4799999999999998E-002     3.0386409759521484     
   3.5099999999999999E-002     3.2215373516082764     
   3.5400000000000001E-002     3.3217906951904297     
   3.5699999999999996E-002     3.3428337574005127     
   3.6000000000000004E-002     3.2907054424285889     
   3.6299999999999999E-002     3.1735749244689941     
   3.6600000000000008E-002     3.0002157688140869     
   3.6900000000000002E-002     2.7800719738006592     
   3.7199999999999997E-002     2.5219862461090088     
   3.7500000000000006E-002     2.2335867881774902     
   3.7800000000000000E-002     1.9213769435882568     
   3.8100000000000009E-002     1.5896432399749756     
   3.8400000000000004E-002     1.2411237955093384     
   3.8699999999999998E-002    0.87686735391616821     
   3.9000000000000007E-002    0.49648350477218628     
   3.9300000000000002E-002     9.9078364670276642E-002
   3.9600000000000003E-002   -0.31649678945541382     
   3.9900000000000005E-002   -0.75036031007766724     
   4.0200000000000000E-002    -1.2009208202362061     
   4.0500000000000001E-002    -1.6640959978103638     
   4.0800000000000003E-002    -2.1321268081665039     
   4.1100000000000005E-002    -2.5938005447387695     
   4.1399999999999999E-002    -3.0337092876434326     
   4.1700000000000008E-002    -3.4328064918518066     
   4.2000000000000003E-002    -3.7694480419158936     
   4.2299999999999997E-002    -4.0199837684631348     
   4.2600000000000006E-002    -4.1611981391906738     
   4.2900000000000001E-002    -4.1718950271606445     
   4.3200000000000002E-002    -4.0350894927978516     
   4.3500000000000004E-002    -3.7404665946960449     
   4.3799999999999999E-002    -3.2855470180511475     
   4.4100000000000000E-002    -2.6775007247924805     
   4.4400000000000002E-002    -1.9334836006164551     
   4.4700000000000004E-002    -1.0800570249557495     
   4.4999999999999998E-002   -0.15277904272079468     
   4.5300000000000000E-002    0.80647659301757812     
   4.5600000000000002E-002     1.7518720626831055     
   4.5899999999999996E-002     2.6363847255706787     
   4.6200000000000005E-002     3.4158117771148682     
   4.6500000000000000E-002     4.0510993003845215     
   4.6799999999999994E-002     4.5114116668701172     
   4.7100000000000003E-002     4.7764110565185547     
   4.7399999999999998E-002     4.8365092277526855     
   4.7700000000000006E-002     4.6941490173339844     
   4.8000000000000001E-002     4.3623747825622559     
   4.8300000000000010E-002     3.8635244369506836     
   4.8600000000000004E-002     3.2275862693786621     
   4.8899999999999999E-002     2.4889781475067139     
   4.9200000000000008E-002     1.6847320795059204     
   4.9500000000000002E-002    0.85187858343124390     
   4.9800000000000011E-002     2.5190230458974838E-002
   5.0100000000000006E-002   -0.76364892721176147     
   5.0400000000000000E-002    -1.4877657890319824     
   5.0700000000000009E-002    -2.1251621246337891     
   5.1000000000000004E-002    -2.6586220264434814     
   5.1299999999999998E-002    -3.0759987831115723     
   5.1600000000000007E-002    -3.3690037727355957     
   5.1900000000000002E-002    -3.5335361957550049     
   5.2200000000000010E-002    -3.5693807601928711     
   5.2500000000000005E-002    -3.4796485900878906     
   5.2800000000000000E-002    -3.2718718051910400     
   5.3099999999999994E-002    -2.9571206569671631     
   5.3400000000000003E-002    -2.5505878925323486     
   5.3699999999999998E-002    -2.0720777511596680     
   5.4000000000000006E-002    -1.5442987680435181     
   5.4300000000000001E-002   -0.99359089136123657     
   5.4599999999999996E-002   -0.44777792692184448     
   5.4900000000000004E-002     6.5616689622402191E-002
   5.5199999999999999E-002    0.52018189430236816     
   5.5499999999999994E-002    0.89407062530517578     
   5.5800000000000002E-002     1.1705497503280640     
   5.6099999999999997E-002     1.3398689031600952     
   5.6400000000000006E-002     1.4007666110992432     
   5.6700000000000000E-002     1.3589071035385132     
   5.6999999999999995E-002     1.2281252145767212     
   5.7300000000000004E-002     1.0278428792953491     
   5.7599999999999998E-002    0.78079050779342651     
   5.7900000000000007E-002    0.51231074333190918     
   5.8200000000000002E-002    0.24562886357307434     
   5.8499999999999996E-002     1.7896415665745735E-003
   5.8800000000000005E-002   -0.20329061150550842     
   5.9100000000000000E-002   -0.36044263839721680     
   5.9400000000000008E-002   -0.46563726663589478     
   5.9700000000000003E-002   -0.52238726615905762     
   6.0000000000000012E-002   -0.53811842203140259     
   6.0300000000000006E-002   -0.52377992868423462     
   6.0600000000000001E-002   -0.49254789948463440     
   6.0900000000000010E-002   -0.45558184385299683     
   6.1200000000000004E-002   -0.42318773269653320     
   6.1500000000000013E-002   -0.40119776129722595     
   6.1800000000000008E-002   -0.39065840840339661     
   6.2100000000000002E-002   -0.38886812329292297     
   6.2399999999999997E-002   -0.38763964176177979     
   6.2700000000000006E-002   -0.37651783227920532     
   6.3000000000000000E-002   -0.34322869777679443     
   6.3300000000000009E-002   -0.27520558238029480     
   6.3600000000000004E-002   -0.16272431612014771     
   6.3899999999999998E-002     1.1859396472573280E-003
   6.4199999999999993E-002    0.21779453754425049     
   6.4500000000000002E-002    0.48234215378761292     
   6.4800000000000010E-002    0.78443336486816406     
   6.5100000000000005E-002     1.1065304279327393     
   6.5400000000000000E-002     1.4273847341537476     
   6.5700000000000008E-002     1.7217971086502075     
   6.5999999999999989E-002     1.9631142616271973     
   6.6299999999999998E-002     2.1270680427551270     
   6.6600000000000006E-002     2.1919426918029785     
   6.6900000000000001E-002     2.1429834365844727     
   6.7199999999999996E-002     1.9738017320632935     
   6.7500000000000004E-002     1.6875519752502441     
   6.7800000000000013E-002     1.2985645532608032     
   6.8099999999999994E-002    0.83129990100860596     
   6.8400000000000002E-002    0.31972438097000122     
   6.8700000000000011E-002   -0.19497618079185486     
   6.8999999999999992E-002   -0.66758674383163452     
   6.9300000000000000E-002    -1.0521521568298340     
   6.9600000000000009E-002    -1.3062021732330322     
   6.9900000000000004E-002    -1.3952879905700684     
   7.0199999999999999E-002    -1.2959349155426025     
   7.0500000000000007E-002   -0.99932605028152466     
   7.0800000000000016E-002   -0.51348543167114258     
   7.1099999999999997E-002    0.13726508617401123     
   7.1400000000000005E-002    0.91135776042938232     
   7.1700000000000000E-002     1.7536547183990479     
   7.1999999999999995E-002     2.5986623764038086     
   7.2300000000000003E-002     3.3748400211334229     
   7.2600000000000012E-002     4.0116105079650879     
   7.2900000000000006E-002     4.4435620307922363     
   7.3200000000000001E-002     4.6173849105834961     
   7.3499999999999996E-002     4.4962430000305176     
   7.3800000000000004E-002     4.0624990463256836     
   7.4099999999999999E-002     3.3216090202331543     
   7.4400000000000008E-002     2.3001818656921387     
   7.4700000000000003E-002     1.0453482866287231     
   7.5000000000000011E-002   -0.37831830978393555     
   7.5299999999999992E-002    -1.8955225944519043     
   7.5600000000000001E-002    -3.4241833686828613     
   7.5900000000000009E-002    -4.8827238082885742     
   7.6200000000000004E-002    -6.1967453956604004     
   7.6499999999999999E-002    -7.3022279739379883     
   7.6800000000000007E-002    -8.1523036956787109     
   7.7099999999999988E-002    -8.7173337936401367     
   7.7399999999999997E-002    -8.9869775772094727     
   7.7700000000000005E-002    -8.9693059921264648     
   7.8000000000000014E-002    -8.6868448257446289     
   7.8299999999999995E-002    -8.1752271652221680     
   7.8600000000000003E-002    -7.4767198562622070     
   7.8900000000000012E-002    -6.6363778114318848     
   7.9199999999999993E-002    -5.6983909606933594     
   7.9500000000000001E-002    -4.7008128166198730     
   7.9800000000000010E-002    -3.6737084388732910     
   8.0100000000000018E-002    -2.6383736133575439     
   8.0399999999999999E-002    -1.6051032543182373     
   8.0700000000000008E-002   -0.57598078250885010     
   8.1000000000000003E-002    0.45329049229621887     
   8.1299999999999997E-002     1.4925402402877808     
   8.1600000000000006E-002     2.5502159595489502     
   8.1900000000000014E-002     3.6340336799621582     
   8.2199999999999995E-002     4.7452321052551270     
   8.2500000000000004E-002     5.8764839172363281     
   8.2799999999999999E-002     7.0122442245483398     
   8.3100000000000007E-002     8.1246204376220703     
   8.3400000000000002E-002     9.1770286560058594     
   8.3700000000000011E-002     10.124600410461426     
   8.4000000000000005E-002     10.915456771850586     
   8.4300000000000000E-002     11.497090339660645     
   8.4599999999999995E-002     11.816871643066406     
   8.4900000000000003E-002     11.828337669372559     
   8.5199999999999998E-002     11.495812416076660     
   8.5500000000000007E-002     10.795023918151855     
   8.5800000000000001E-002     9.7200336456298828     
   8.6100000000000010E-002     8.2827816009521484     
   8.6399999999999991E-002     6.5139679908752441     
   8.6699999999999999E-002     4.4652719497680664     
   8.7000000000000008E-002     2.2036259174346924     
   8.7300000000000003E-002   -0.18783912062644958     
   8.7599999999999997E-002    -2.6147692203521729     
   8.7900000000000006E-002    -4.9787201881408691     
   8.8200000000000014E-002    -7.1772484779357910     
   8.8499999999999995E-002    -9.1141595840454102     
   8.8800000000000004E-002    -10.703004837036133     
   8.9100000000000013E-002    -11.869659423828125     
   8.9399999999999993E-002    -12.561641693115234     
   8.9700000000000002E-002    -12.745834350585938     
   9.0000000000000011E-002    -12.413998603820801     
   9.0299999999999991E-002    -11.584655761718750     
   9.0600000000000000E-002    -10.297883033752441     
   9.0900000000000009E-002    -8.6199674606323242     
   9.1200000000000017E-002    -6.6359272003173828     
   9.1499999999999998E-002    -4.4463372230529785     
   9.1800000000000007E-002    -2.1654460430145264     
   9.2100000000000001E-002     9.0802825987339020E-002
   9.2399999999999996E-002     2.2048642635345459     
   9.2700000000000005E-002     4.0674796104431152     
   9.3000000000000013E-002     5.5853314399719238     
   9.3300000000000008E-002     6.6811127662658691     
   9.3600000000000003E-002     7.3057379722595215     
   9.3899999999999997E-002     7.4359731674194336     
   9.4200000000000006E-002     7.0780968666076660     
   9.4500000000000001E-002     6.2700567245483398     
   9.4800000000000009E-002     5.0742239952087402     
   9.5100000000000004E-002     3.5790913105010986     
   9.5399999999999999E-002     1.8904837369918823     
   9.5699999999999993E-002    0.12504467368125916     
   9.6000000000000002E-002    -1.5950261354446411     
   9.6300000000000011E-002    -3.1539378166198730     
   9.6600000000000005E-002    -4.4466805458068848     
   9.6900000000000000E-002    -5.3879060745239258     
   9.7200000000000009E-002    -5.9183492660522461     
   9.7499999999999989E-002    -6.0067749023437500     
   9.7799999999999998E-002    -5.6548376083374023     
   9.8100000000000007E-002    -4.8952226638793945     
   9.8400000000000015E-002    -3.7894494533538818     
   9.8699999999999996E-002    -2.4247233867645264     
   9.9000000000000005E-002   -0.90519475936889648     
   9.9300000000000013E-002    0.65431249141693115     
   9.9599999999999994E-002     2.1372246742248535     
   9.9900000000000003E-002     3.4352362155914307     
  0.10020000000000001          4.4554719924926758     
  0.10049999999999999          5.1287698745727539     
  0.10080000000000000          5.4147133827209473     
  0.10110000000000001          5.3050427436828613     
  0.10140000000000000          4.8240962028503418     
  0.10170000000000000          4.0266418457031250     
  0.10200000000000001          2.9931035041809082     
  0.10230000000000002          1.8224397897720337     
  0.10260000000000000         0.62386870384216309     
  0.10290000000000001        -0.49426734447479248     
  0.10320000000000000         -1.4319819211959839     
  0.10350000000000001         -2.1085083484649658     
  0.10380000000000000         -2.4691998958587646     
  0.10410000000000001         -2.4891769886016846     
  0.10440000000000001         -2.1780989170074463     
  0.10470000000000000         -1.5761775970458984     
  0.10500000000000000        -0.75217109918594360     
  0.10530000000000000         0.20368489623069763     
  0.10560000000000000          1.1904796361923218     
  0.10590000000000001          2.1034834384918213     
  0.10620000000000000          2.8475995063781738     
  0.10650000000000001          3.3454136848449707     
  0.10679999999999999          3.5439116954803467     
  0.10710000000000000          3.4228131771087646     
  0.10740000000000001          2.9922363758087158     
  0.10770000000000000          2.2937660217285156     
  0.10800000000000000          1.3955832719802856     
  0.10830000000000001         0.38309791684150696     
  0.10859999999999999        -0.64734137058258057     
  0.10890000000000000         -1.6016045808792114     
  0.10920000000000001         -2.3957049846649170     
  0.10950000000000001         -2.9635663032531738     
  0.10979999999999999         -3.2657785415649414     
  0.11009999999999999         -3.2889623641967773     
  0.11040000000000001         -3.0476872920989990     
  0.11070000000000001         -2.5821125507354736     
  0.11100000000000000         -1.9497419595718384     
  0.11130000000000000         -1.2206679582595825     
  0.11160000000000002        -0.46811249852180481     
  0.11190000000000001         0.23967602849006653     
  0.11220000000000001         0.84434610605239868     
  0.11250000000000000          1.3043588399887085     
  0.11280000000000000          1.5962824821472168     
  0.11309999999999999          1.7143239974975586     
  0.11340000000000001          1.6710448265075684     
  0.11369999999999998          1.4902085065841675     
  0.11400000000000000          1.2048370838165283     
  0.11430000000000000         0.85224086046218872     
  0.11460000000000002         0.46642553806304932     
  0.11489999999999999          7.9385556280612946E-002
  0.11520000000000001        -0.28562611341476440     
  0.11550000000000001        -0.61333262920379639     
  0.11580000000000000        -0.89453911781311035     
  0.11609999999999999         -1.1291091442108154     
  0.11640000000000002         -1.3192938566207886     
  0.11670000000000001         -1.4704180955886841     
  0.11700000000000001         -1.5894105434417725     
  0.11730000000000000         -1.6795943975448608     
  0.11760000000000000         -1.7449493408203125     
  0.11789999999999999         -1.7863126993179321     
  0.11820000000000001         -1.8021235466003418     
  0.11850000000000001         -1.7921998500823975     
  0.11880000000000000         -1.7536561489105225     
  0.11910000000000000         -1.6868536472320557     
  0.11940000000000002         -1.5933793783187866     
  0.11970000000000001         -1.4745490550994873     
  0.12000000000000001         -1.3364075422286987     
  0.12030000000000000         -1.1832778453826904     
  0.12060000000000000         -1.0211502313613892     
  0.12089999999999999        -0.85696399211883545     
  0.12119999999999999        -0.69408977031707764     
  0.12150000000000001        -0.53848922252655029     
  0.12180000000000001        -0.39267838001251221     
  0.12210000000000000        -0.25851592421531677     
  0.12239999999999999        -0.13967049121856689     
  0.12270000000000002         -3.4882757812738419E-002
  0.12300000000000001          5.4314501583576202E-002
  0.12330000000000001         0.12963968515396118     
  0.12360000000000000         0.19615821540355682     
  0.12390000000000000         0.25790953636169434     
  0.12419999999999999         0.32642206549644470     
  0.12450000000000001         0.41309356689453125     
  0.12480000000000001         0.53160911798477173     
  0.12509999999999999         0.69858479499816895     
  0.12540000000000001         0.92503523826599121     
  0.12570000000000003          1.2211917638778687     
  0.12600000000000000          1.5889130830764771     
  0.12630000000000002          2.0204021930694580     
  0.12659999999999999          2.5018007755279541     
  0.12690000000000001          3.0065650939941406     
  0.12719999999999998          3.5045375823974609     
  0.12750000000000000          3.9620904922485352     
  0.12780000000000002          4.3450641632080078     
  0.12809999999999999          4.6288309097290039     
  0.12840000000000001          4.7962193489074707     
  0.12869999999999998          4.8443355560302734     
  0.12900000000000000          4.7847571372985840     
  0.12930000000000003          4.6392855644226074     
  0.12959999999999999          4.4399008750915527     
  0.12990000000000002          4.2197422981262207     
  0.13019999999999998          4.0079412460327148     
  0.13050000000000000          3.8249833583831787     
  0.13080000000000003          3.6739161014556885     
  0.13109999999999999          3.5411500930786133     
  0.13140000000000002          3.3959856033325195     
  0.13169999999999998          3.1922194957733154     
  0.13200000000000001          2.8781502246856689     
  0.13229999999999997          2.4021072387695312     
  0.13260000000000000          1.7223386764526367     
  0.13290000000000002         0.81721442937850952     
  0.13319999999999999        -0.31137359142303467     
  0.13350000000000001         -1.6336752176284790     
  0.13380000000000003         -3.0928957462310791     
  0.13410000000000000         -4.6138644218444824     
  0.13440000000000002         -6.1090903282165527     
  0.13469999999999999         -7.4934258460998535     
  0.13500000000000001         -8.6972093582153320     
  0.13529999999999998         -9.6751279830932617     
  0.13560000000000000         -10.419718742370605     
  0.13590000000000002         -10.960854530334473     
  0.13619999999999999         -11.364187240600586     
  0.13650000000000001         -11.724831581115723     
  0.13680000000000003         -12.147275924682617     
  0.13710000000000000         -12.731112480163574     
  0.13740000000000002         -13.547494888305664     
  0.13769999999999999         -14.616437911987305     
  0.13800000000000001         -15.896524429321289     
  0.13829999999999998         -17.268386840820312     
  0.13860000000000000         -18.539672851562500     
  0.13890000000000002         -19.454750061035156     
  0.13919999999999999         -19.711946487426758     
  0.13950000000000001         -19.001058578491211     
  0.13979999999999998         -17.032438278198242     
  0.14010000000000000         -13.580867767333984     
  0.14040000000000002         -8.5225934982299805     
  0.14069999999999999         -1.8623931407928467     
  0.14100000000000001          6.2418842315673828     
  0.14130000000000004          15.478591918945312     
  0.14160000000000000          25.388208389282227     
  0.14189999999999997          35.393318176269531     
  0.14219999999999999          44.836452484130859     
  0.14250000000000002          53.031986236572266     
  0.14279999999999998          59.324474334716797     
  0.14310000000000000          63.143650054931641     
  0.14339999999999997          64.058792114257812     
  0.14369999999999999          61.819335937500000     
  0.14400000000000002          56.381961822509766     
  0.14429999999999998          47.919651031494141     
  0.14460000000000001          36.814994812011719     
  0.14490000000000003          23.632024765014648     
  0.14520000000000000          9.0768117904663086     
  0.14550000000000002         -6.0517864227294922     
  0.14579999999999999         -20.926305770874023     
  0.14610000000000001         -34.738044738769531     
  0.14640000000000003         -46.761188507080078     
  0.14670000000000000         -56.396209716796875     
  0.14699999999999996         -63.198074340820312     
  0.14729999999999999         -66.910751342773438     
  0.14760000000000001         -67.461990356445312     
  0.14789999999999998         -64.963821411132812     
  0.14820000000000000         -59.698905944824219     