  -1.4999999999999999E-002     0.0000000000000000     
  -1.4700000000000000E-002     0.0000000000000000     
  -1.4400000000000000E-002     0.0000000000000000     
  -1.4100000000000000E-002     0.0000000000000000     
  -1.3800000000000000E-002     0.0000000000000000     
  -1.3500000000000000E-002     0.0000000000000000     
  -1.3200000000000000E-002     0.0000000000000000     
  -1.2899999999999998E-002     0.0000000000000000     
  -1.2600000000000000E-002     0.0000000000000000     
  -1.2299999999999998E-002     0.0000000000000000     
  -1.2000000000000000E-002     0.0000000000000000     
  -1.1699999999999999E-002     0.0000000000000000     
  -1.1399999999999999E-002     0.0000000000000000     
  -1.1099999999999999E-002     0.0000000000000000     
  -1.0799999999999999E-002     0.0000000000000000     
  -1.0499999999999999E-002     0.0000000000000000     
  -1.0199999999999999E-002     0.0000000000000000     
  -9.8999999999999991E-003     0.0000000000000000     
  -9.5999999999999992E-003     0.0000000000000000     
  -9.2999999999999992E-003     0.0000000000000000     
  -8.9999999999999993E-003     0.0000000000000000     
  -8.6999999999999994E-003     0.0000000000000000     
  -8.3999999999999995E-003     0.0000000000000000     
  -8.0999999999999996E-003     1.2337784527515648E-037
  -7.7999999999999988E-003    -5.8148289483413395E-037
  -7.4999999999999997E-003    -4.3207957585160441E-036
  -7.1999999999999998E-003     7.9312765709090867E-036
  -6.8999999999999981E-003     2.4507625025636269E-035
  -6.5999999999999982E-003     5.9954037175420101E-034
  -6.3000000000000000E-003    -5.4841279591293322E-033
  -6.0000000000000001E-003     3.7486234468109826E-033
  -5.6999999999999985E-003     1.1685636875402675E-031
  -5.3999999999999986E-003    -1.1161618589471956E-030
  -5.1000000000000004E-003     9.2967096935603242E-030
  -4.7999999999999987E-003    -5.9054086640971563E-029
  -4.5000000000000005E-003     2.4409608954684102E-028
  -4.1999999999999989E-003    -5.9149579516180555E-028
  -3.8999999999999990E-003     4.6856457843477275E-028
  -3.5999999999999990E-003     1.9532178033436822E-027
  -3.2999999999999991E-003    -6.8814900303198585E-027
  -2.9999999999999992E-003     1.4343323836467165E-027
  -2.6999999999999993E-003     5.6131985654741661E-026
  -2.3999999999999994E-003    -2.1641911206281606E-025
  -2.0999999999999977E-003     4.0067277821267273E-025
  -1.7999999999999995E-003    -1.2250513259670444E-025
  -1.4999999999999979E-003    -1.6512061907795678E-024
  -1.1999999999999997E-003     5.7457663579505814E-024
  -8.9999999999999976E-004    -9.9817127518669621E-024
  -5.9999999999999810E-004     2.9131360928083735E-024
  -2.9999999999999992E-004     4.6910601872765345E-023
   0.0000000000000000         -2.0221876949594360E-022
   3.0000000000000165E-004     5.4808744866340666E-022
   5.9999999999999984E-004    -1.1130588220043172E-021
   9.0000000000000149E-004     1.6588312544746825E-021
   1.2000000000000031E-003    -1.3596984229958436E-021
   1.5000000000000013E-003    -1.3471745204440397E-021
   1.8000000000000030E-003     8.0922553966356662E-021
   2.1000000000000012E-003    -1.8374086967480145E-020
   2.3999999999999994E-003     2.6028458509764126E-020
   2.7000000000000010E-003    -1.6784854798372354E-020
   2.9999999999999992E-003    -2.7790073064742921E-020
   3.3000000000000008E-003     1.1235018773872116E-019
   3.6000000000000025E-003    -1.8617657078079483E-019
   3.9000000000000007E-003     6.4749758176797610E-020
   4.2000000000000023E-003     6.8712265192317242E-019
   4.5000000000000005E-003    -2.7800087716604355E-018
   4.7999999999999987E-003     6.4660503239310686E-018
   5.1000000000000004E-003    -8.2731818036400402E-018
   5.4000000000000020E-003    -6.3560993089706102E-018
   5.7000000000000037E-003     6.5451347595844591E-017
   5.9999999999999984E-003    -1.5765442638485528E-016
   6.3000000000000000E-003    -1.1602054406547096E-018
   6.6000000000000017E-003     1.4652788884704352E-015
   6.9000000000000034E-003    -6.1535469534394759E-015
   7.2000000000000015E-003     1.3393060718011501E-014
   7.5000000000000032E-003    -6.3018481866060230E-015
   7.8000000000000014E-003    -7.3041822730646552E-014
   8.0999999999999996E-003     3.1730350645865735E-013
   8.4000000000000012E-003    -6.6521837067380595E-013
   8.7000000000000029E-003     3.0579401195828066E-013
   9.0000000000000011E-003     3.0780274556703499E-012
   9.2999999999999992E-003    -1.1936012474164508E-011
   9.6000000000000009E-003     1.9278143682094168E-011
   9.8999999999999991E-003     1.4229557282524451E-011
   1.0200000000000001E-002    -1.7133817365299736E-010
   1.0500000000000002E-002     4.5482395301218886E-010
   1.0800000000000004E-002    -3.2859799506939895E-010
   1.1099999999999999E-002    -1.7164491137222741E-009
   1.1400000000000000E-002     6.1272964545646922E-009
   1.1700000000000002E-002    -4.8686168308547227E-009
   1.2000000000000004E-002    -1.9659521574107194E-008
   1.2300000000000002E-002     5.2007555067703527E-008
   1.2600000000000000E-002     1.4805413267627996E-008
   1.2900000000000002E-002    -2.1203103395918865E-007
   1.3200000000000000E-002     4.2650792880241551E-008
   1.3500000000000002E-002     6.7389251858133458E-007
   1.3800000000000003E-002     1.9893584791435431E-010
   1.4100000000000001E-002    -2.0906891907963077E-006
   1.4400000000000000E-002    -1.2621990939456661E-006
   1.4700000000000001E-002     9.7974393195542607E-006
   1.4999999999999999E-002     3.7586170640499441E-005
   1.5300000000000001E-002     8.5768378188698737E-005
   1.5600000000000003E-002     1.5628353605617136E-004
   1.5899999999999997E-002     2.5435450635056221E-004
   1.6199999999999999E-002     3.9669658233960643E-004
   1.6500000000000001E-002     6.1518774075053871E-004
   1.6800000000000002E-002     9.5522649922458527E-004
   1.7100000000000004E-002     1.4781338565219120E-003
   1.7400000000000006E-002     2.2654017504759386E-003
   1.7700000000000000E-002     3.4234555122969468E-003
   1.8000000000000002E-002     5.0975079876442869E-003
   1.8300000000000004E-002     7.4892021315149659E-003
   1.8600000000000005E-002     1.0865088724732241E-002
   1.8900000000000000E-002     1.5557323187479599E-002
   1.9200000000000002E-002     2.1970644403042361E-002
   1.9500000000000003E-002     3.0594160740158305E-002
   1.9799999999999998E-002     4.1999429925937970E-002
   2.0100000000000000E-002     5.6824205443761322E-002
   2.0400000000000001E-002     7.5750815158825313E-002
   2.0700000000000003E-002     9.9461859870269009E-002
   2.0999999999999998E-002    0.12857252402352648     
   2.1299999999999999E-002    0.16354318364537512     
   2.1600000000000001E-002    0.20458215162686155     
   2.1900000000000003E-002    0.25150727834563646     
   2.2200000000000004E-002    0.30359456335380131     
   2.2500000000000006E-002    0.35942512370233359     
   2.2800000000000001E-002    0.41675555921141161     
   2.3100000000000002E-002    0.47240714305705467     
   2.3400000000000004E-002    0.52221898872031680     
   2.3699999999999999E-002    0.56106245022308165     
   2.4000000000000000E-002    0.58295010003770287     
   2.4300000000000002E-002    0.58130015314749883     
   2.4599999999999997E-002    0.54927169618443017     
   2.4900000000000005E-002    0.48029347847657000     
   2.5200000000000000E-002    0.36864728811568526     
   2.5499999999999995E-002    0.21014357436438402     
   2.5800000000000003E-002     2.8630169570074138E-003
   2.6099999999999998E-002   -0.25230238059397525     
   2.6400000000000007E-002   -0.55100044117719804     
   2.6700000000000002E-002   -0.88518969654622914     
   2.6999999999999996E-002    -1.2430147881053699     
   2.7300000000000005E-002    -1.6090576975777537     
   2.7600000000000000E-002    -1.9649872905577084     
   2.7900000000000008E-002    -2.2904922313915534     
   2.8200000000000003E-002    -2.5645376203009107     
   2.8499999999999998E-002    -2.7667161687938489     
   2.8800000000000006E-002    -2.8787855580389561     
   2.9100000000000001E-002    -2.8861873392862520     
   2.9400000000000003E-002    -2.7792885934601514     
   2.9700000000000004E-002    -2.5544744792721872     
   3.0000000000000006E-002    -2.2146097725022855     
   3.0300000000000001E-002    -1.7691313659630268     
   3.0600000000000002E-002    -1.2335988603150696     
   3.0900000000000004E-002   -0.62869853299453382     
   3.1199999999999999E-002     2.0913703361439495E-002
   3.1500000000000007E-002    0.68840036429135054     
   3.1800000000000002E-002     1.3464098559844420     
   3.2099999999999997E-002     1.9686800018162458     
   3.2400000000000005E-002     2.5318896571090832     
   3.2700000000000000E-002     3.0166106354780879     
   3.3000000000000002E-002     3.4083389404165274     
   3.3300000000000003E-002     3.6979488546784296     
   3.3599999999999998E-002     3.8816266886604467     
   3.3900000000000000E-002     3.9606028428377158     
   3.4200000000000001E-002     3.9402975721001638     
   3.4500000000000003E-002     3.8293831158909768     
   3.4799999999999998E-002     3.6388923912794127     
   3.5099999999999999E-002     3.3809090208976897     
   3.5400000000000001E-002     3.0676508360409258     
   3.5699999999999996E-002     2.7106702199992441     
   3.6000000000000004E-002     2.3197983281186936     
   3.6299999999999999E-002     1.9032486919535145     
   3.6600000000000008E-002     1.4670482281394897     
   3.6900000000000002E-002     1.0151603361959296     
   3.7199999999999997E-002    0.55020661515889913     
   3.7500000000000006E-002     7.3538695672358712E-002
   3.7800000000000000E-002   -0.41373491679212826     
   3.8100000000000009E-002   -0.90983058355436608     
   3.8400000000000004E-002    -1.4116947424985895     
   3.8699999999999998E-002    -1.9137249536276215     
   3.9000000000000007E-002    -2.4075593224890000     
   3.9300000000000002E-002    -2.8815672010373135     
   3.9600000000000003E-002    -3.3205454690622531     
   3.9900000000000005E-002    -3.7062336885532687     
   4.0200000000000000E-002    -4.0179983209919214     
   4.0500000000000001E-002    -4.2340835772780423     
   4.0800000000000003E-002    -4.3333740118024480     
   4.1100000000000005E-002    -4.2970989154080712     
   4.1399999999999999E-002    -4.1108699346329729     
   4.1700000000000008E-002    -3.7666806301381683     
   4.2000000000000003E-002    -3.2643215506930119     
   4.2299999999999997E-002    -2.6127203623274227     
   4.2600000000000006E-002    -1.8304205751298994     
   4.2900000000000001E-002   -0.94513237968464736     
   4.3200000000000002E-002     7.1166477653541449E-003
   4.3500000000000004E-002    0.98407470561696542     
   4.3799999999999999E-002     1.9397772900990802     
   4.4100000000000000E-002     2.8270936927466366     
   4.4400000000000002E-002     3.6016779204750264     
   4.4700000000000004E-002     4.2241106273203002     
   4.4999999999999998E-002     4.6627872994382074     
   4.5300000000000000E-002     4.8966278209639995     
   4.5600000000000002E-002     4.9152489391614154     
   4.5899999999999996E-002     4.7205052303096977     
   4.6200000000000005E-002     4.3254544166634901     
   4.6500000000000000E-002     3.7532384547175042     
   4.6799999999999994E-002     3.0357765555876313     
   4.7100000000000003E-002     2.2107063743325881     
   4.7399999999999998E-002     1.3197184611540322     
   4.7700000000000006E-002    0.40568647288467297     
   4.8000000000000001E-002   -0.48981635603410112     
   4.8300000000000010E-002    -1.3277968542280458     
   4.8600000000000004E-002    -2.0742904744162800     
   4.8899999999999999E-002    -2.7009774450435202     
   4.9200000000000008E-002    -3.1863099351000841     
   4.9500000000000002E-002    -3.5163057571969887     
   4.9800000000000011E-002    -3.6841933431679905     
   5.0100000000000006E-002    -3.6910380877164926     
   5.0400000000000000E-002    -3.5451222372981874     
   5.0700000000000009E-002    -3.2614568333855374     
   5.1000000000000004E-002    -2.8617068567249078     
   5.1299999999999998E-002    -2.3727192328343847     
   5.1600000000000007E-002    -1.8255523589982801     
   5.1900000000000002E-002    -1.2544056467233062     
   5.2200000000000010E-002   -0.69387431766450547     
   5.2500000000000005E-002   -0.17776340125681234     
   5.2800000000000000E-002    0.26330300749863333     
   5.3099999999999994E-002    0.60410663882107141     
   5.3400000000000003E-002    0.82597141680194497     
   5.3699999999999998E-002    0.91907841282574765     
   5.4000000000000006E-002    0.88252459351589607     
   5.4300000000000001E-002    0.72457129623079553     
   5.4599999999999996E-002    0.46255205081010331     
   5.4900000000000004E-002    0.12039955141176817     
   5.5199999999999999E-002   -0.27231753269870751     
   5.5499999999999994E-002   -0.68306653777318971     
   5.5800000000000002E-002    -1.0796640120521617     
   5.6099999999999997E-002    -1.4316116876807072     
   5.6400000000000006E-002    -1.7133535430101681     
   5.6700000000000000E-002    -1.9055445108287046     
   5.6999999999999995E-002    -1.9963607899097937     
   5.7300000000000004E-002    -1.9818194126679174     
   5.7599999999999998E-002    -1.8655199373221336     
   5.7900000000000007E-002    -1.6574356002885011     
   5.8200000000000002E-002    -1.3724739371596186     
   5.8499999999999996E-002    -1.0291273434864152     
   5.8800000000000005E-002   -0.64680720348096798     
   5.9100000000000000E-002   -0.24483754899987176     
   5.9400000000000008E-002    0.16001167182921883     
   5.9700000000000003E-002    0.55388944716091792     
   6.0000000000000012E-002    0.92698454205882230     
   6.0300000000000006E-002     1.2744744903565337     
   6.0600000000000001E-002     1.5939262029813044     
   6.0900000000000010E-002     1.8876302589262401     
   6.1200000000000004E-002     2.1591258174198202     
   6.1500000000000013E-002     2.4125155781891507     
   6.1800000000000008E-002     2.6523777410169131     
   6.2100000000000002E-002     2.8795514024556255     
   6.2399999999999997E-002     3.0933374674727574     
   6.2700000000000006E-002     3.2885506674108740     
   6.3000000000000000E-002     3.4557685536839813     
   6.3300000000000009E-002     3.5833153449117248     
   6.3600000000000004E-002     3.6558226459183203     
   6.3899999999999998E-002     3.6587041824115687     
   6.4199999999999993E-002     3.5781993299601424     
   6.4500000000000002E-002     3.4042486193819741     
   6.4800000000000010E-002     3.1342077653082470     
   6.5100000000000005E-002     2.7715002037491701     
   6.5400000000000000E-002     2.3302650106895868     
   6.5700000000000008E-002     1.8331998135867664     
   6.5999999999999989E-002     1.3099396233723013     
   6.6299999999999998E-002    0.79747509409936512     
   6.6600000000000006E-002    0.33342635629493600     
   6.6900000000000001E-002    -4.5362089961842322E-002
   6.7199999999999996E-002   -0.30824688530979216     
   6.7500000000000004E-002   -0.43581083859234937     
   6.7800000000000013E-002   -0.42085997567902211     
   6.8099999999999994E-002   -0.27350539996570422     
   6.8400000000000002E-002    -1.9121968270189971E-002
   6.8700000000000011E-002    0.30190872350423170     
   6.8999999999999992E-002    0.63690272044750929     
   6.9300000000000000E-002    0.92688503878221518     
   6.9600000000000009E-002     1.1099835310221771     
   6.9900000000000004E-002     1.1300004904355632     
   7.0199999999999999E-002    0.94089247484646421     
   7.0500000000000007E-002    0.51185309271078028     
   7.0800000000000016E-002   -0.16824455463724064     
   7.1099999999999997E-002    -1.0902104756810758     
   7.1400000000000005E-002    -2.2237921319224796     
   7.1700000000000000E-002    -3.5202067144741918     
   7.1999999999999995E-002    -4.9159074849708446     
   7.2300000000000003E-002    -6.3366710492249965     
   7.2600000000000012E-002    -7.7044212596000961     
   7.2900000000000006E-002    -8.9416210179158071     
   7.3200000000000001E-002    -9.9769146674670139     
   7.3499999999999996E-002    -10.749434332922903     
   7.3800000000000004E-002    -11.210624066914022     
   7.4099999999999999E-002    -11.328395940570317     
   7.4400000000000008E-002    -11.084922006363570     
   7.4700000000000003E-002    -10.478467569263216     
   7.5000000000000011E-002    -9.5207089602906194     
   7.5299999999999992E-002    -8.2350008401296861     
   7.5600000000000001E-002    -6.6567268714086936     
   7.5900000000000009E-002    -4.8281504236882000     
   7.6200000000000004E-002    -2.7999804101846451     
   7.6499999999999999E-002   -0.62817276045803183     
   7.6800000000000007E-002     1.6267819350559165     
   7.7099999999999988E-002     3.8998744235360618     
   7.7399999999999997E-002     6.1250618142350035     
   7.7700000000000005E-002     8.2328311074383382     
   7.8000000000000014E-002     10.156195142541705     
   7.8299999999999995E-002     11.830112914061687     
   7.8600000000000003E-002     13.193700487754711     
   7.8900000000000012E-002     14.195827043986128     
   7.9199999999999993E-002     14.793609047019288     
   7.9500000000000001E-002     14.959051883470522     
   7.9800000000000010E-002     14.678799043203583     
   8.0100000000000018E-002     13.955672768414331     
   8.0399999999999999E-002     12.811247559967114     
   8.0700000000000008E-002     11.282941433146505     
   8.1000000000000003E-002     9.4246718752075935     
   8.1299999999999997E-002     7.3034269376206566     
   8.1600000000000006E-002     4.9971625709221286     
   8.1900000000000014E-002     2.5905979282422678     
   8.2199999999999995E-002    0.17229239914627925     
   8.2500000000000004E-002    -2.1697341526289904     
   8.2799999999999999E-002    -4.3513978360869316     
   8.3100000000000007E-002    -6.2947610119818052     
   8.3400000000000002E-002    -7.9324420257805848     
   8.3700000000000011E-002    -9.2080939973028464     
   8.4000000000000005E-002    -10.079728798975708     
   8.4300000000000000E-002    -10.520085827842820     
   8.4599999999999995E-002    -10.517717106752059     
   8.4900000000000003E-002    -10.080042962967298     
   8.5199999999999998E-002    -9.2294472666598040     
   8.5500000000000007E-002    -8.0075976752763438     
   8.5800000000000001E-002    -6.4729335189092296     
   8.6100000000000010E-002    -4.6982107679985603     
   8.6399999999999991E-002    -2.7718766575561773     
   8.6699999999999999E-002   -0.79049154017817180     
   8.7000000000000008E-002     1.1416638037406130     
   8.7300000000000003E-002     2.9197537148579045     
   8.7599999999999997E-002     4.4446882598950594     
   8.7900000000000006E-002     5.6265907217224935     
   8.8200000000000014E-002     6.3948385685215801     
   8.8499999999999995E-002     6.7002914747283455     
   8.8800000000000004E-002     6.5212812544638581     
   8.9100000000000013E-002     5.8669753291613631     
   8.9399999999999993E-002     4.7767549571071726     
   8.9700000000000002E-002     3.3201355182045944     
   9.0000000000000011E-002     1.5924074043994061     
   9.0299999999999991E-002   -0.29128212539824005     
   9.0600000000000000E-002    -2.2027954987149059     
   9.0900000000000009E-002    -4.0108342979476532     
   9.1200000000000017E-002    -5.5906193979411256     
   9.1499999999999998E-002    -6.8318568139625064     
   9.1800000000000007E-002    -7.6496633827736957     
   9.2100000000000001E-002    -7.9888545530596389     
   9.2399999999999996E-002    -7.8298466070234554     
   9.2700000000000005E-002    -7.1910605891461614     
   9.3000000000000013E-002    -6.1249146708028093     
   9.3300000000000008E-002    -4.7174908048348527     
   9.3600000000000003E-002    -3.0782179224124633     
   9.3899999999999997E-002    -1.3330736213200147     
   9.4200000000000006E-002    0.38570179203325949     
   9.4500000000000001E-002     1.9536105079360908     
   9.4800000000000009E-002     3.2591693115888347     
   9.5100000000000004E-002     4.2182195140085810     
   9.5399999999999999E-002     4.7770210625088083     
   9.5699999999999993E-002     4.9172068925889363     
   9.6000000000000002E-002     4.6586032643541131     
   9.6300000000000011E-002     4.0520043171610638     
   9.6600000000000005E-002     3.1792483768967372     
   9.6900000000000000E-002     2.1397463223717281     
   9.7200000000000009E-002     1.0433332123956873     
   9.7499999999999989E-002    -2.2307835453361236E-004
   9.7799999999999998E-002   -0.89432439922514106     
   9.8100000000000007E-002    -1.5600580203515548     
   9.8400000000000015E-002    -1.9477504340012146     
   9.8699999999999996E-002    -2.0373665698777499     
   9.9000000000000005E-002    -1.8397932778782575     
   9.9300000000000013E-002    -1.3949668476938193     
   9.9599999999999994E-002   -0.76378077821665968     
   9.9900000000000003E-002    -2.3339695644615688E-002
  0.10020000000000001         0.74558949333679436     
  0.10049999999999999          1.4657615006142635     
  0.10080000000000000          2.0721955365605353     
  0.10110000000000001          2.5198729472703683     
  0.10140000000000000          2.7857983609413459     
  0.10170000000000000          2.8714852859647735     
  0.10200000000000001          2.7993746373337203     
  0.10230000000000002          2.6094568233890243     
  0.10260000000000000          2.3516222176823618     
  0.10290000000000001          2.0787335770951003     
  0.10320000000000000          1.8388444098377192     
  0.10350000000000001          1.6683454677709619     
  0.10380000000000000          1.5889975601305650     
  0.10410000000000001          1.6031425554339194     
  0.10440000000000001          1.6970174752107354     
  0.10470000000000000          1.8410904166344437     
  0.10500000000000000          1.9961913953107171     
  0.10530000000000000          2.1191502287035959     
  0.10560000000000000          2.1673827184105079     
  0.10590000000000001          2.1080895036292446     
  0.10620000000000000          1.9187822265091050     
  0.10650000000000001          1.5934764937879606     
  0.10679999999999999          1.1414121272375617     
  0.10710000000000000         0.58626718318992310     
  0.10740000000000001         -3.5298050483302923E-002
  0.10770000000000000        -0.68115143301345471     
  0.10800000000000000         -1.3048557937519760     
  0.10830000000000001         -1.8641372225227713     
  0.10859999999999999         -2.3234027295644424     
  0.10890000000000000         -2.6576569845627915     
  0.10920000000000001         -2.8553379280093338     
  0.10950000000000001         -2.9174492738302646     
  0.10979999999999999         -2.8584885607568253     
  0.11009999999999999         -2.7017657466023053     
  0.11040000000000001         -2.4786311051170742     
  0.11070000000000001         -2.2226057859179136     
  0.11100000000000000         -1.9668670440081826     
  0.11130000000000000         -1.7418462527447574     
  0.11160000000000002         -1.5695561321342879     
  0.11190000000000001         -1.4667746987893011     
  0.11220000000000001         -1.4401118871314971     
  0.11250000000000000         -1.4903316720761275     
  0.11280000000000000         -1.6124406447971467     
  0.11309999999999999         -1.7949380215171900     
  0.11340000000000001         -2.0271290654315806     
  0.11369999999999998         -2.2936125257592082     
  0.11400000000000000         -2.5802710419854051     
  0.11430000000000000         -2.8722589708106412     
  0.11460000000000002         -3.1525691843878718     
  0.11489999999999999         -3.4064671239911064     
  0.11520000000000001         -3.6142234559408877     
  0.11550000000000001         -3.7582689065588966     
  0.11580000000000000         -3.8200580574683016     
  0.11609999999999999         -3.7815504442481824     
  0.11640000000000002         -3.6312794932359509     
  0.11670000000000001         -3.3609754039296433     
  0.11700000000000001         -2.9728908252028958     
  0.11730000000000000         -2.4769375285969062     
  0.11760000000000000         -1.8922804420646955     
  0.11789999999999999         -1.2461032094314781     
  0.11820000000000001        -0.56763879993710731     
  0.11850000000000001         0.11189538929363785     
  0.11880000000000000         0.76803115764301566     
  0.11910000000000000          1.3849004236253499     
  0.11940000000000002          1.9589311111810734     
  0.11970000000000001          2.5002669315001924     
  0.12000000000000001          3.0298111965241787     
  0.12030000000000000          3.5777959230623253     
  0.12060000000000000          4.1756152887680287     
  0.12089999999999999          4.8507079018250892     
  0.12119999999999999          5.6184522485152968     
  0.12150000000000001          6.4777235761776382     
  0.12180000000000001          7.4065349493676820     
  0.12210000000000000          8.3630630943909239     
  0.12239999999999999          9.2893331202359377     
  0.12270000000000002          10.116082265621571     
  0.12300000000000001          10.775158179194818     
  0.12330000000000001          11.205858551661947     
  0.12360000000000000          11.367284058187522     
  0.12390000000000000          11.244626388727312     
  0.12419999999999999          10.851885753755170     
  0.12450000000000001          10.233818458926123     
  0.12480000000000001          9.4556033739841041     
  0.12509999999999999          8.5974440590941867     
  0.12540000000000001          7.7365007959836021     
  0.12570000000000003          6.9345012755349273     
  0.12600000000000000          6.2229508835205536     
  0.12630000000000002          5.5882740084881277     
  0.12659999999999999          4.9711889137240632     
  0.12690000000000001          4.2594414531243388     
  0.12719999999999998          3.3013047389324015     
  0.12750000000000000          1.9188024076111745     
  0.12780000000000002         -7.2524976385267337E-002
  0.12809999999999999         -2.8315518887315960     
  0.12840000000000001         -6.4692094127531234     
  0.12869999999999998         -11.017666680773985     
  0.12900000000000000         -16.410318359310153     
  0.12930000000000003         -22.468931259424622     
  0.12959999999999999         -28.899549681607880     
  0.12990000000000002         -35.306391108703821     
  0.13019999999999998         -41.211723587824167     
  0.13050000000000000         -46.094341225643518     
  0.13080000000000003         -49.430666524868570     
  0.13109999999999999         -50.745476402579015     
  0.13140000000000002         -49.660256149181009     
  0.13169999999999998         -45.935320426694261     
  0.13200000000000001         -39.507946644080334     
  0.13229999999999997         -30.506463077208196     
  0.13260000000000000         -19.259648896994264     
  0.13290000000000002         -6.2776095485630776     
  0.13319999999999999          7.7781684823577280     
  0.13350000000000001          22.137596389978626     
  0.13380000000000003          35.982958321844762     
  0.13410000000000000          48.502961938189856     
  0.13440000000000002          58.960361888308398     
  0.13469999999999999          66.742131786962602     
  0.13500000000000001          71.401041761991252     
  0.13529999999999998          72.693802907858924     
  0.13560000000000000          70.583593107995512     
  0.13590000000000002          65.245888960786715     
  0.13619999999999999          57.046393220235132     
  0.13650000000000001          46.505162135701084     
  0.13680000000000003          34.265189529298368     
  0.13710000000000000          21.032924439139606     
  0.13740000000000002          7.5384805863313034     
  0.13769999999999999         -5.5148503428529239     
  0.13800000000000001         -17.494172381792055     
  0.13829999999999998         -27.866623808147779     
  0.13860000000000000         -36.226857069329299     
  0.13890000000000002         -42.311339559624571     
  0.13919999999999999         -46.001206510656857     
  0.13950000000000001         -47.317954158909174     
  0.13979999999999998         -46.410665610925491     
  0.14010000000000000         -43.534164504535511     
  0.14040000000000002         -39.026818702279797     
  0.14069999999999999         -33.281507791889908     
  0.14100000000000001         -26.717254882116777     
  0.14130000000000004         -19.755271547366590     
  0.14160000000000000         -12.788567306543314     
  0.14189999999999997         -6.1671614129766184     
  0.14219999999999999        -0.18025012935910922     
  0.14250000000000002          4.9556289298149068     
  0.14279999999999998          9.0952490424896837     
  0.14310000000000000          12.171523483238047     
  0.14339999999999997          14.181886933622934     
  0.14369999999999999          15.182667895155646     
  0.14400000000000002          15.279942087008180     
  0.14429999999999998          14.607888788576162     
  0.14460000000000001          13.326153672984816     
  0.14490000000000003          11.599572264200731     
  0.14520000000000000          9.5895961006690413     
  0.14550000000000002          7.4498516677068665     
  0.14579999999999999          5.3120058743580074     
  0.14610000000000001          3.2890060644014127     
  0.14640000000000003          1.4701277939187731     
  0.14670000000000000         -8.2333813609949402E-002
  0.14699999999999996         -1.3264697347604510     
  0.14729999999999999         -2.2436457184526262     
  0.14760000000000001         -2.8357871318005152     
  0.14789999999999998         -3.1184586472789846     
  0.14820000000000000         -3.1246546414702152     