  -1.4999999999999999E-002     0.0000000000000000     
  -1.4700000000000000E-002     0.0000000000000000     
  -1.4400000000000000E-002     0.0000000000000000     
  -1.4100000000000000E-002     0.0000000000000000     
  -1.3800000000000000E-002     0.0000000000000000     
  -1.3500000000000000E-002     0.0000000000000000     
  -1.3200000000000000E-002     0.0000000000000000     
  -1.2899999999999998E-002     0.0000000000000000     
  -1.2600000000000000E-002     0.0000000000000000     
  -1.2299999999999998E-002     0.0000000000000000     
  -1.2000000000000000E-002     0.0000000000000000     
  -1.1699999999999999E-002     0.0000000000000000     
  -1.1399999999999999E-002     0.0000000000000000     
  -1.1099999999999999E-002     0.0000000000000000     
  -1.0799999999999999E-002     0.0000000000000000     
  -1.0499999999999999E-002     0.0000000000000000     
  -1.0199999999999999E-002     0.0000000000000000     
  -9.8999999999999991E-003     0.0000000000000000     
  -9.5999999999999992E-003     0.0000000000000000     
  -9.2999999999999992E-003     0.0000000000000000     
  -8.9999999999999993E-003     0.0000000000000000     
  -8.6999999999999994E-003     0.0000000000000000     
  -8.3999999999999995E-003     0.0000000000000000     
  -8.0999999999999996E-003     0.0000000000000000     
  -7.7999999999999988E-003     0.0000000000000000     
  -7.4999999999999997E-003     0.0000000000000000     
  -7.1999999999999998E-003     0.0000000000000000     
  -6.8999999999999981E-003     0.0000000000000000     
  -6.5999999999999982E-003     0.0000000000000000     
  -6.3000000000000000E-003     0.0000000000000000     
  -6.0000000000000001E-003     0.0000000000000000     
  -5.6999999999999985E-003     0.0000000000000000     
  -5.3999999999999986E-003     0.0000000000000000     
  -5.1000000000000004E-003     0.0000000000000000     
  -4.7999999999999987E-003     0.0000000000000000     
  -4.5000000000000005E-003     0.0000000000000000     
  -4.1999999999999989E-003     0.0000000000000000     
  -3.8999999999999990E-003     0.0000000000000000     
  -3.5999999999999990E-003     0.0000000000000000     
  -3.2999999999999991E-003     0.0000000000000000     
  -2.9999999999999992E-003     0.0000000000000000     
  -2.6999999999999993E-003     0.0000000000000000     
  -2.3999999999999994E-003     0.0000000000000000     
  -2.0999999999999977E-003     0.0000000000000000     
  -1.7999999999999995E-003     0.0000000000000000     
  -1.4999999999999979E-003     0.0000000000000000     
  -1.1999999999999997E-003     0.0000000000000000     
  -8.9999999999999976E-004     0.0000000000000000     
  -5.9999999999999810E-004     0.0000000000000000     
  -2.9999999999999992E-004     0.0000000000000000     
   0.0000000000000000          0.0000000000000000     
   3.0000000000000165E-004     0.0000000000000000     
   5.9999999999999984E-004     0.0000000000000000     
   9.0000000000000149E-004     0.0000000000000000     
   1.2000000000000031E-003     0.0000000000000000     
   1.5000000000000013E-003     0.0000000000000000     
   1.8000000000000030E-003     0.0000000000000000     
   2.1000000000000012E-003     0.0000000000000000     
   2.3999999999999994E-003     0.0000000000000000     
   2.7000000000000010E-003     0.0000000000000000     
   2.9999999999999992E-003     0.0000000000000000     
   3.3000000000000008E-003     0.0000000000000000     
   3.6000000000000025E-003     0.0000000000000000     
   3.9000000000000007E-003     0.0000000000000000     
   4.2000000000000023E-003     0.0000000000000000     
   4.5000000000000005E-003     0.0000000000000000     
   4.7999999999999987E-003     0.0000000000000000     
   5.1000000000000004E-003     0.0000000000000000     
   5.4000000000000020E-003     0.0000000000000000     
   5.7000000000000037E-003     0.0000000000000000     
   5.9999999999999984E-003     0.0000000000000000     
   6.3000000000000000E-003     0.0000000000000000     
   6.6000000000000017E-003     0.0000000000000000     
   6.9000000000000034E-003     6.1824324853316706E-038
   7.2000000000000015E-003    -8.7770798747970466E-038
   7.5000000000000032E-003     1.0610107535917241E-037
   7.8000000000000014E-003     4.2405433584496354E-036
   8.0999999999999996E-003    -1.4717364656225891E-035
   8.4000000000000012E-003    -3.6231246767947667E-035
   8.7000000000000029E-003     1.0381355834079903E-034
   9.0000000000000011E-003     1.7557481906540333E-034
   9.2999999999999992E-003    -1.6657723671200876E-033
   9.6000000000000009E-003    -3.1155022334169518E-034
   9.8999999999999991E-003     2.6494062919966438E-032
   1.0200000000000001E-002    -8.8155520634820014E-032
   1.0500000000000002E-002    -2.4051075446956551E-031
   1.0800000000000004E-002     2.8952628497638268E-030
   1.1099999999999999E-002    -7.6739945971578952E-030
   1.1400000000000000E-002    -1.6851851874700031E-029
   1.1700000000000002E-002     1.8710895113892847E-028
   1.2000000000000004E-002    -5.6213466125403001E-028
   1.2300000000000002E-002     2.1251111657589070E-028
   1.2600000000000000E-002     4.0687864723241333E-027
   1.2900000000000002E-002    -1.3546174712765495E-026
   1.3200000000000000E-002     1.0083639879641697E-026
   1.3500000000000002E-002     2.0387573734293725E-026
   1.3800000000000003E-002     3.2512355701552049E-025
   1.4100000000000001E-002    -3.8177042311161000E-024
   1.4400000000000000E-002     2.1823099361065229E-023
   1.4700000000000001E-002    -9.0070862611611882E-023
   1.4999999999999999E-002     2.9920156242156256E-022
   1.5300000000000001E-002    -7.9837739482995535E-022
   1.5600000000000003E-002     1.3134822425259400E-021
   1.5899999999999997E-002     2.8498479931148945E-021
   1.6199999999999999E-002    -4.4469462806025391E-020
   1.6500000000000001E-002     3.0332789687578604E-019
   1.6800000000000002E-002    -1.6442555215085968E-018
   1.7100000000000004E-002     7.8695302300288852E-018
   1.7400000000000006E-002    -3.4518016224295144E-017
   1.7700000000000000E-002     1.4059262090881125E-016
   1.8000000000000002E-002    -5.2996908708931268E-016
   1.8300000000000004E-002     1.8077446625480393E-015
   1.8600000000000005E-002    -5.2649783292923974E-015
   1.8900000000000000E-002     1.0971759315154521E-014
   1.9200000000000002E-002    -7.1640622864574121E-016
   1.9500000000000003E-002    -1.4438198858780125E-013
   1.9799999999999998E-002     9.1378630436225144E-013
   2.0100000000000000E-002    -3.6649852673746224E-012
   2.0400000000000001E-002     1.0138314155228972E-011
   2.0700000000000003E-002    -1.5180474082696240E-011
   2.0999999999999998E-002    -1.8245625755766921E-011
   2.1299999999999999E-002     1.8473601488870704E-010
   2.1600000000000001E-002    -5.0884242078818494E-010
   2.1900000000000003E-002     3.8323401198337149E-010
   2.2200000000000004E-002     1.8726365639174615E-009
   2.2500000000000006E-002    -6.0668527733376313E-009
   2.2800000000000001E-002     2.2823412096663695E-009
   2.3100000000000002E-002     2.2264501049538945E-008
   2.3400000000000004E-002    -3.2633998522373046E-008
   2.3699999999999999E-002    -5.7424969099103827E-008
   2.4000000000000000E-002     1.2226381688344892E-007
   2.4300000000000002E-002     1.7520525714998279E-007
   2.4599999999999997E-002    -3.0643012234250618E-007
   2.4900000000000005E-002    -7.0131333578933407E-007
   2.5200000000000000E-002     4.9064015321268603E-007
   2.5499999999999995E-002     4.0888012202102669E-006
   2.5800000000000003E-002     9.4301766517493227E-006
   2.6099999999999998E-002     1.5789490303165466E-005
   2.6400000000000007E-002     2.4022896649317899E-005
   2.6700000000000002E-002     3.6490992335743225E-005
   2.6999999999999996E-002     5.6461622224008483E-005
   2.7300000000000005E-002     8.7909365533703730E-005
   2.7600000000000000E-002     1.3568947182223973E-004
   2.7900000000000008E-002     2.0630728965089200E-004
   2.8200000000000003E-002     3.0901033701829540E-004
   2.8499999999999998E-002     4.5717264649750358E-004
   2.8800000000000006E-002     6.6921482049680028E-004
   2.9100000000000001E-002     9.6813423086132555E-004
   2.9400000000000003E-002     1.3809181064795770E-003
   2.9700000000000004E-002     1.9393255233290801E-003
   3.0000000000000006E-002     2.6814394326989399E-003
   3.0300000000000001E-002     3.6516147564172735E-003
   3.0600000000000002E-002     4.8975592857103956E-003
   3.0900000000000004E-002     6.4663030001311794E-003
   3.1199999999999999E-002     8.4000988349315353E-003
   3.1500000000000007E-002     1.0730966644033446E-002
   3.1800000000000002E-002     1.3471876367545543E-002
   3.2099999999999997E-002     1.6606169891363709E-002
   3.2400000000000005E-002     2.0078053125413331E-002
   3.2700000000000000E-002     2.3781444635185278E-002
   3.3000000000000002E-002     2.7550727150298715E-002
   3.3300000000000003E-002     3.1150939823239687E-002
   3.3599999999999998E-002     3.4276868165725283E-002
   3.3900000000000000E-002     3.6559705030694944E-002
   3.4200000000000001E-002     3.7576237861364437E-002
   3.4500000000000003E-002     3.6870775411015133E-002
   3.4799999999999998E-002     3.3990533054419680E-002
   3.5099999999999999E-002     2.8529216790223910E-002
   3.5400000000000001E-002     2.0179324310107938E-002
   3.5699999999999996E-002     8.7869598600465171E-003
   3.6000000000000004E-002    -5.5945972913641617E-003
   3.6299999999999999E-002    -2.2652302616151532E-002
   3.6600000000000008E-002    -4.1779513885271569E-002
   3.6900000000000002E-002    -6.2060863044849146E-002
   3.7199999999999997E-002    -8.2291430464113802E-002
   3.7500000000000006E-002   -0.10101914778601628     
   3.7800000000000000E-002   -0.11662123605041064     
   3.8100000000000009E-002   -0.12741464951545334     
   3.8400000000000004E-002   -0.13179449882791960     
   3.8699999999999998E-002   -0.12836908865327512     
   3.9000000000000007E-002   -0.11611252749226564     
   3.9300000000000002E-002    -9.4502581099837890E-002
   3.9600000000000003E-002    -6.3615981472969763E-002
   3.9900000000000005E-002    -2.4199905368152197E-002
   4.0200000000000000E-002     2.2332093268669806E-002
   4.0500000000000001E-002     7.3934135616322783E-002
   4.0800000000000003E-002    0.12802276843676674     
   4.1100000000000005E-002    0.18163734808956544     
   4.1399999999999999E-002    0.23161176557782071     
   4.1700000000000008E-002    0.27478551452041167     
   4.2000000000000003E-002    0.30820022131148228     
   4.2299999999999997E-002    0.32928541157935776     
   4.2600000000000006E-002    0.33602860553763492     
   4.2900000000000001E-002    0.32708198359638452     
   4.3200000000000002E-002    0.30184364355900506     
   4.3500000000000004E-002    0.26046766722643433     
   4.3799999999999999E-002    0.20384941668152123     
   4.4100000000000000E-002    0.13356167468819402     
   4.4400000000000002E-002     5.1776608964011483E-002
   4.4700000000000004E-002    -3.8856910586414717E-002
   4.4999999999999998E-002   -0.13532921612552640     
   4.5300000000000000E-002   -0.23439407075274898     
   4.5600000000000002E-002   -0.33269645788305535     
   4.5899999999999996E-002   -0.42688112786170684     
   4.6200000000000005E-002   -0.51370242339071481     
   4.6500000000000000E-002   -0.59012219531050825     
   4.6799999999999994E-002   -0.65340451199482885     
   4.7100000000000003E-002   -0.70120161185267094     
   4.7399999999999998E-002   -0.73163631715864952     
   4.7700000000000006E-002   -0.74334293747253710     
   4.8000000000000001E-002   -0.73554683628194084     
   4.8300000000000010E-002   -0.70807811177082414     
   4.8600000000000004E-002   -0.66136478718981095     
   4.8899999999999999E-002   -0.59650260629604901     
   4.9200000000000008E-002   -0.51515702173724875     
   4.9500000000000002E-002   -0.41956661968332298     
   4.9800000000000011E-002   -0.31243409297318614     
   5.0100000000000006E-002   -0.19685341288696279     
   5.0400000000000000E-002    -7.6217747352032017E-002
   5.0700000000000009E-002     4.6044943399112803E-002
   5.1000000000000004E-002    0.16645751841531509     
   5.1299999999999998E-002    0.28180543337002506     
   5.1600000000000007E-002    0.38926415023205330     
   5.1900000000000002E-002    0.48657080407264885     
   5.2200000000000010E-002    0.57218159883217545     
   5.2500000000000005E-002    0.64530036585133033     
   5.2800000000000000E-002    0.70605833811139362     
   5.3099999999999994E-002    0.75530446977932186     
   5.3400000000000003E-002    0.79465590458090318     
   5.3699999999999998E-002    0.82619749356987171     
   5.4000000000000006E-002    0.85222960235695311     
   5.4300000000000001E-002    0.87499916348365403     
   5.4599999999999996E-002    0.89616956828755789     
   5.4900000000000004E-002    0.91672987039453702     
   5.5199999999999999E-002    0.93642619241870406     
   5.5499999999999994E-002    0.95365841244306537     
   5.5800000000000002E-002    0.96549444779015303     
   5.6099999999999997E-002    0.96745992336859388     
   5.6400000000000006E-002    0.95417477372622628     
   5.6700000000000000E-002    0.91949715996666370     
   5.6999999999999995E-002    0.85715336402548559     
   5.7300000000000004E-002    0.76160309232774992     
   5.7599999999999998E-002    0.62845454281080748     
   5.7900000000000007E-002    0.45550230165563121     
   5.8200000000000002E-002    0.24298575874528261     
   5.8499999999999996E-002    -5.8626274000375123E-003
   5.8800000000000005E-002   -0.28469825588395414     
   5.9100000000000000E-002   -0.58433014468472333     
   5.9400000000000008E-002   -0.89294146737960212     
   5.9700000000000003E-002    -1.1969693723703578     
   6.0000000000000012E-002    -1.4819985496110277     
   6.0300000000000006E-002    -1.7336430591333283     
   6.0600000000000001E-002    -1.9386646659439322     
   6.0900000000000010E-002    -2.0859938330485619     
   6.1200000000000004E-002    -2.1673230144941158     
   6.1500000000000013E-002    -2.1777244207172544     
   6.1800000000000008E-002    -2.1159104747619892     
   6.2100000000000002E-002    -1.9839920045008981     
   6.2399999999999997E-002    -1.7872645014816584     
   6.2700000000000006E-002    -1.5336037874719821     
   6.3000000000000000E-002    -1.2326210141129508     
   6.3300000000000009E-002   -0.89507930856817808     
   6.3600000000000004E-002   -0.53193985337803440     
   6.3899999999999998E-002   -0.15391553048358197     
   6.4199999999999993E-002    0.22908746272395852     
   6.4500000000000002E-002    0.60819564514746416     
   6.4800000000000010E-002    0.97554702385690106     
   6.5100000000000005E-002     1.3244048316385317     
   6.5400000000000000E-002     1.6486714374248663     
   6.5700000000000008E-002     1.9428826433787947     
   6.5999999999999989E-002     2.2018953201717295     
   6.6299999999999998E-002     2.4204627099613560     
   6.6600000000000006E-002     2.5934817009024727     
   6.6900000000000001E-002     2.7156401051640842     
   6.7199999999999996E-002     2.7819024356507924     
   6.7500000000000004E-002     2.7874130233540200     
   6.7800000000000013E-002     2.7278906470545650     
   6.8099999999999994E-002     2.6002444430767184     
   6.8400000000000002E-002     2.4022749217579928     
   6.8700000000000011E-002     2.1337605673391664     
   6.8999999999999992E-002     1.7961404211569274     
   6.9300000000000000E-002     1.3929491244323913     
   6.9600000000000009E-002    0.93031898517783773     
   6.9900000000000004E-002    0.41663760999509059     
   7.0199999999999999E-002   -0.13694174253915925     
   7.0500000000000007E-002   -0.71681184109484875     
   7.0800000000000016E-002    -1.3067573782688608     
   7.1099999999999997E-002    -1.8882455773231008     
   7.1400000000000005E-002    -2.4411369175936599     
   7.1700000000000000E-002    -2.9439931958626602     
   7.1999999999999995E-002    -3.3752361305881635     
   7.2300000000000003E-002    -3.7143680216014303     
   7.2600000000000012E-002    -3.9427843923370034     
   7.2900000000000006E-002    -4.0456716521145637     
   7.3200000000000001E-002    -4.0130119731334304     
   7.3499999999999996E-002    -3.8407473960269272     
   7.3800000000000004E-002    -3.5319903566440445     
   7.4099999999999999E-002    -3.0968516034404843     
   7.4400000000000008E-002    -2.5528342413574876     
   7.4700000000000003E-002    -1.9237653127118435     
   7.5000000000000011E-002    -1.2383952710775148     
   7.5299999999999992E-002   -0.52926692280367682     
   7.5600000000000001E-002    0.17028722847462241     
   7.5900000000000009E-002    0.82775377256894966     
   7.6200000000000004E-002     1.4140670011464245     
   7.6499999999999999E-002     1.9057791919022975     
   7.6800000000000007E-002     2.2856587434821236     
   7.7099999999999988E-002     2.5450286433247982     
   7.7399999999999997E-002     2.6827904440542767     
   7.7700000000000005E-002     2.7055025151638148     
   7.8000000000000014E-002     2.6265161372372745     
   7.8299999999999995E-002     2.4634319691239881     
   7.8600000000000003E-002     2.2372728415951855     
   7.8900000000000012E-002     1.9693917912857444     
   7.9199999999999993E-002     1.6800825939993729     
   7.9500000000000001E-002     1.3872044401756796     
   7.9800000000000010E-002     1.1039518263679753     
   8.0100000000000018E-002    0.83945720352692632     
   8.0399999999999999E-002    0.59775275176664167     
   8.0700000000000008E-002    0.37871674744919304     
   8.1000000000000003E-002    0.17933558528072968     
   8.1299999999999997E-002    -5.9486371860031362E-003
   8.1600000000000006E-002   -0.18288263478375555     
   8.1900000000000014E-002   -0.35678092583567533     
   8.2199999999999995E-002   -0.53120474129370709     
   8.2500000000000004E-002   -0.70693320911314395     
   8.2799999999999999E-002   -0.88203018965069546     
   8.3100000000000007E-002    -1.0514398103392146     
   8.3400000000000002E-002    -1.2076012577473421     
   8.3700000000000011E-002    -1.3413613593612439     
   8.4000000000000005E-002    -1.4427150515186753     
   8.4300000000000000E-002    -1.5018050011604629     
   8.4599999999999995E-002    -1.5104842322441243     
   8.4900000000000003E-002    -1.4627445876700804     
   8.5199999999999998E-002    -1.3558666917980702     
   8.5500000000000007E-002    -1.1908686174417653     
   8.5800000000000001E-002   -0.97215475960780040     
   8.6100000000000010E-002   -0.70841655304847251     
   8.6399999999999991E-002   -0.41096616155578580     
   8.6699999999999999E-002    -9.3771200449212722E-002
   8.7000000000000008E-002    0.22750659575528154     
   8.7300000000000003E-002    0.53727590869088981     
   8.7599999999999997E-002    0.81990611021223714     
   8.7900000000000006E-002     1.0621608181073334     
   8.8200000000000014E-002     1.2529732624936614     
   8.8499999999999995E-002     1.3844003736616770     
   8.8800000000000004E-002     1.4524763705734713     
   8.9100000000000013E-002     1.4564087595831765     
   8.9399999999999993E-002     1.3995137121412853     
   8.9700000000000002E-002     1.2873006182560047     
   9.0000000000000011E-002     1.1279322798557274     
   9.0299999999999991E-002    0.93090966266458608     
   9.0600000000000000E-002    0.70599262081338310     
   9.0900000000000009E-002    0.46338914527423114     
   9.1200000000000017E-002    0.21209164607931630     
   9.1499999999999998E-002    -3.9405943050687231E-002
   9.1800000000000007E-002   -0.28406022228368144     
   9.2100000000000001E-002   -0.51558174698324599     
   9.2399999999999996E-002   -0.72798277977531356     
   9.2700000000000005E-002   -0.91594529739367658     
   9.3000000000000013E-002    -1.0733972715311211     
   9.3300000000000008E-002    -1.1943507234112971     
   9.3600000000000003E-002    -1.2723323805276365     
   9.3899999999999997E-002    -1.3007283378905328     
   9.4200000000000006E-002    -1.2734486366870144     
   9.4500000000000001E-002    -1.1852394145361984     
   9.4800000000000009E-002    -1.0330556219608020     
   9.5100000000000004E-002   -0.81624294887093995     
   9.5399999999999999E-002   -0.53769568101149723     
   9.5699999999999993E-002   -0.20409139541114474     
   9.6000000000000002E-002    0.17395775413140413     
   9.6300000000000011E-002    0.58169219040009379     
   9.6600000000000005E-002     1.0012662267418211     
   9.6900000000000000E-002     1.4120883585293456     
   9.7200000000000009E-002     1.7922424638911778     
   9.7499999999999989E-002     2.1198781772863384     
   9.7799999999999998E-002     2.3740310830285623     
   9.8100000000000007E-002     2.5365508132473167     
   9.8400000000000015E-002     2.5931284793206402     
   9.8699999999999996E-002     2.5339171553186475     
   9.9000000000000005E-002     2.3550959337503485     
   9.9300000000000013E-002     2.0587089034982142     
   9.9599999999999994E-002     1.6530748478377291     
   9.9900000000000003E-002     1.1528127267092358     
  0.10020000000000001         0.57735580761362648     
  0.10049999999999999         -4.8339261481029183E-002
  0.10080000000000000        -0.69636918274773407     
  0.10110000000000001         -1.3368305872703274     
  0.10140000000000000         -1.9387704453851100     
  0.10170000000000000         -2.4732230037578020     
  0.10200000000000001         -2.9133149480835812     
  0.10230000000000002         -3.2371243814728956     
  0.10260000000000000         -3.4286803623125479     
  0.10290000000000001         -3.4781973237596304     
  0.10320000000000000         -3.3843413502684854     
  0.10350000000000001         -3.1522311425439398     
  0.10380000000000000         -2.7944921486659098     
  0.10410000000000001         -2.3304049264724114     
  0.10440000000000001         -1.7830920186728889     
  0.10470000000000000         -1.1800019093234155     
  0.10500000000000000        -0.54945284628974989     
  0.10530000000000000          8.0709524496120899E-002
  0.10560000000000000         0.68362269333177395     
  0.10590000000000001          1.2363954431637918     
  0.10620000000000000          1.7195915775239641     
  0.10650000000000001          2.1182422797805955     
  0.10679999999999999          2.4222381526157051     
  0.10710000000000000          2.6254681052201789     
  0.10740000000000001          2.7259156461442728     
  0.10770000000000000          2.7248012483086654     
  0.10800000000000000          2.6259020991194149     
  0.10830000000000001          2.4358201458632038     
  0.10859999999999999          2.1624293127451324     
  0.10890000000000000          1.8157499153713061     
  0.10920000000000001          1.4079985402431276     
  0.10950000000000001         0.95267340440916826     
  0.10979999999999999         0.46609068667901177     
  0.11009999999999999         -3.3599710803037475E-002
  0.11040000000000001        -0.52652553581575745     
  0.11070000000000001        -0.99107297845085185     
  0.11100000000000000         -1.4053363661179255     
  0.11130000000000000         -1.7473718033837784     
  0.11160000000000002         -1.9971541499475691     
  0.11190000000000001         -2.1377988414444289     
  0.11220000000000001         -2.1567182046433970     
  0.11250000000000000         -2.0478476424345118     
  0.11280000000000000         -1.8116235819797382     
  0.11309999999999999         -1.4568192846382502     
  0.11340000000000001         -1.0000619560101995     
  0.11369999999999998        -0.46550672969175366     
  0.11400000000000000         0.11546274701786530     
  0.11430000000000000         0.70683721980741154     
  0.11460000000000002          1.2690677743488297     
  0.11489999999999999          1.7628310817145625     
  0.11520000000000001          2.1510816318871733     
  0.11550000000000001          2.4022223140435202     
  0.11580000000000000          2.4933936173824378     
  0.11609999999999999          2.4115889446568133     
  0.11640000000000002          2.1567528632963047     
  0.11670000000000001          1.7409216126061295     
  0.11700000000000001          1.1885536156416627     
  0.11730000000000000         0.53572116582119200     
  0.11760000000000000        -0.17418529845104480     
  0.11789999999999999        -0.89173235307339027     
  0.11820000000000001         -1.5668443171321993     
  0.11850000000000001         -2.1522215703584990     
  0.11880000000000000         -2.6068387474798698     
  0.11910000000000000         -2.9008366826267604     
  0.11940000000000002         -3.0157687027510889     
  0.11970000000000001         -2.9479265235252257     
  0.12000000000000001         -2.7072478440369849     
  0.12030000000000000         -2.3162342204716992     
  0.12060000000000000         -1.8087344977121589     
  0.12089999999999999         -1.2248202804954644     
  0.12119999999999999        -0.60926743969209696     
  0.12150000000000001         -6.3891935729394334E-003
  0.12180000000000001         0.54372787586763494     
  0.12210000000000000          1.0068478501506473     
  0.12239999999999999          1.3585645218950297     
  0.12270000000000002          1.5843669084515248     
  0.12300000000000001          1.6804760183838212     
  0.12330000000000001          1.6535747351191219     
  0.12360000000000000          1.5181866695276298     
  0.12390000000000000          1.2963411754882443     
  0.12419999999999999          1.0144311128571992     
  0.12450000000000001         0.70071368196157735     
  0.12480000000000001         0.38398370240491708     
  0.12509999999999999          9.0382017673176440E-002
  0.12540000000000001        -0.15695084096933964     
  0.12570000000000003        -0.33969407728697876     
  0.12600000000000000        -0.44571279908215455     
  0.12630000000000002        -0.46795623184878465     
  0.12659999999999999        -0.40610873229400646     
  0.12690000000000001        -0.26547154588562982     
  0.12719999999999998         -5.6317683012076625E-002
  0.12750000000000000         0.20596625836977722     
  0.12780000000000002         0.50364244718655460     
  0.12809999999999999         0.81596793335791973     
  0.12840000000000001          1.1215745302825457     
  0.12869999999999998          1.4004895551922196     
  0.12900000000000000          1.6336811935994362     
  0.12930000000000003          1.8068774955640521     
  0.12959999999999999          1.9091834769691260     
  0.12990000000000002          1.9348132944089755     
  0.13019999999999998          1.8838838078768063     
  0.13050000000000000          1.7598138338053602     
  0.13080000000000003          1.5711793076071601     
  0.13109999999999999          1.3285068098792223     
  0.13140000000000002          1.0438657892460022     
  0.13169999999999998         0.72984434654291874     
  0.13200000000000001         0.39691000222376260     
  0.13229999999999997          5.4735856473739020E-002
  0.13260000000000000        -0.29033513949064371     
  0.13290000000000002        -0.63365727379502701     
  0.13319999999999999        -0.97214693598310653     
  0.13350000000000001         -1.3039589036095429     
  0.13380000000000003         -1.6260091927720790     
  0.13410000000000000         -1.9346501271972159     
  0.13440000000000002         -2.2245816178481483     
  0.13469999999999999         -2.4874775960251938     
  0.13500000000000001         -2.7138205739901125     
  0.13529999999999998         -2.8927645337867389     
  0.13560000000000000         -3.0136026429721170     
  0.13590000000000002         -3.0677980236578151     
  0.13619999999999999         -3.0491123323195382     
  0.13650000000000001         -2.9568964625324838     
  0.13680000000000003         -2.7947023125451551     
  0.13710000000000000         -2.5717089507233908     
  0.13740000000000002         -2.3024221585182119     
  0.13769999999999999         -2.0036676482473155     
  0.13800000000000001         -1.6949480846636646     
  0.13829999999999998         -1.3940401700574512     
  0.13860000000000000         -1.1159079185352923     
  0.13890000000000002        -0.87086974598284783     
  0.13919999999999999        -0.66169884048887440     
  0.13950000000000001        -0.48457670206877879     
  0.13979999999999998        -0.32756596721051956     
  0.14010000000000000        -0.17279838669576564     
  0.14040000000000002          1.6428868270494945E-003
  0.14069999999999999         0.22022087018489955     
  0.14100000000000001         0.50545520120602561     
  0.14130000000000004         0.87622819701316956     
  0.14160000000000000          1.3444779408159171     
  0.14189999999999997          1.9128149235200469     
  0.14219999999999999          2.5743427315276293     
  0.14250000000000002          3.3111711293102708     
  0.14279999999999998          4.0955741509558834     
  0.14310000000000000          4.8918427354161480     
  0.14339999999999997          5.6581119726868678     
  0.14369999999999999          6.3498089667670712     
  0.14400000000000002          6.9222093322082685     
  0.14429999999999998          7.3335126762745233     
  0.14460000000000001          7.5480954796546200     
  0.14490000000000003          7.5379526467644666     
  0.14520000000000000          7.2845303008097062     
  0.14550000000000002          6.7801213650615182     
  0.14579999999999999          6.0270327540968935     
  0.14610000000000001          5.0383353412877625     
  0.14640000000000003          3.8368131654082731     
  0.14670000000000000          2.4537058432543191     
  0.14699999999999996         0.92768327234725412     
  0.14729999999999999        -0.69623403941546513     
  0.14760000000000001         -2.3693482724355164     
  0.14789999999999998         -4.0392197868555044     
  0.14820000000000000         -5.6526582912916012     