  -1.4999999999999999E-002     0.0000000000000000     
  -1.4700000000000000E-002     0.0000000000000000     
  -1.4400000000000000E-002     0.0000000000000000     
  -1.4100000000000000E-002     0.0000000000000000     
  -1.3800000000000000E-002     0.0000000000000000     
  -1.3500000000000000E-002     0.0000000000000000     
  -1.3200000000000000E-002     0.0000000000000000     
  -1.2899999999999998E-002     0.0000000000000000     
  -1.2600000000000000E-002     0.0000000000000000     
  -1.2299999999999998E-002     0.0000000000000000     
  -1.2000000000000000E-002     0.0000000000000000     
  -1.1699999999999999E-002     0.0000000000000000     
  -1.1399999999999999E-002     0.0000000000000000     
  -1.1099999999999999E-002     0.0000000000000000     
  -1.0799999999999999E-002     0.0000000000000000     
  -1.0499999999999999E-002     0.0000000000000000     
  -1.0199999999999999E-002     0.0000000000000000     
  -9.8999999999999991E-003     0.0000000000000000     
  -9.5999999999999992E-003     0.0000000000000000     
  -9.2999999999999992E-003     0.0000000000000000     
  -8.9999999999999993E-003     0.0000000000000000     
  -8.6999999999999994E-003     0.0000000000000000     
  -8.3999999999999995E-003     0.0000000000000000     
  -8.0999999999999996E-003     0.0000000000000000     
  -7.7999999999999988E-003     0.0000000000000000     
  -7.4999999999999997E-003     0.0000000000000000     
  -7.1999999999999998E-003     0.0000000000000000     
  -6.8999999999999981E-003     0.0000000000000000     
  -6.5999999999999982E-003     0.0000000000000000     
  -6.3000000000000000E-003     0.0000000000000000     
  -6.0000000000000001E-003     0.0000000000000000     
  -5.6999999999999985E-003     0.0000000000000000     
  -5.3999999999999986E-003     0.0000000000000000     
  -5.1000000000000004E-003     0.0000000000000000     
  -4.7999999999999987E-003     0.0000000000000000     
  -4.5000000000000005E-003     0.0000000000000000     
  -4.1999999999999989E-003     0.0000000000000000     
  -3.8999999999999990E-003     0.0000000000000000     
  -3.5999999999999990E-003     0.0000000000000000     
  -3.2999999999999991E-003     0.0000000000000000     
  -2.9999999999999992E-003     0.0000000000000000     
  -2.6999999999999993E-003     0.0000000000000000     
  -2.3999999999999994E-003     0.0000000000000000     
  -2.0999999999999977E-003     0.0000000000000000     
  -1.7999999999999995E-003     0.0000000000000000     
  -1.4999999999999979E-003     0.0000000000000000     
  -1.1999999999999997E-003     0.0000000000000000     
  -8.9999999999999976E-004     0.0000000000000000     
  -5.9999999999999810E-004     0.0000000000000000     
  -2.9999999999999992E-004     0.0000000000000000     
   0.0000000000000000          0.0000000000000000     
   3.0000000000000165E-004     0.0000000000000000     
   5.9999999999999984E-004     0.0000000000000000     
   9.0000000000000149E-004     0.0000000000000000     
   1.2000000000000031E-003     0.0000000000000000     
   1.5000000000000013E-003     0.0000000000000000     
   1.8000000000000030E-003     0.0000000000000000     
   2.1000000000000012E-003     0.0000000000000000     
   2.3999999999999994E-003     0.0000000000000000     
   2.7000000000000010E-003     0.0000000000000000     
   2.9999999999999992E-003     0.0000000000000000     
   3.3000000000000008E-003     0.0000000000000000     
   3.6000000000000025E-003     0.0000000000000000     
   3.9000000000000007E-003     0.0000000000000000     
   4.2000000000000023E-003     0.0000000000000000     
   4.5000000000000005E-003     0.0000000000000000     
   4.7999999999999987E-003     0.0000000000000000     
   5.1000000000000004E-003     0.0000000000000000     
   5.4000000000000020E-003     0.0000000000000000     
   5.7000000000000037E-003     0.0000000000000000     
   5.9999999999999984E-003     0.0000000000000000     
   6.3000000000000000E-003     0.0000000000000000     
   6.6000000000000017E-003     0.0000000000000000     
   6.9000000000000034E-003     0.0000000000000000     
   7.2000000000000015E-003     0.0000000000000000     
   7.5000000000000032E-003     0.0000000000000000     
   7.8000000000000014E-003     0.0000000000000000     
   8.0999999999999996E-003     0.0000000000000000     
   8.4000000000000012E-003     0.0000000000000000     
   8.7000000000000029E-003     0.0000000000000000     
   9.0000000000000011E-003     0.0000000000000000     
   9.2999999999999992E-003     0.0000000000000000     
   9.6000000000000009E-003     0.0000000000000000     
   9.8999999999999991E-003     0.0000000000000000     
   1.0200000000000001E-002     0.0000000000000000     
   1.0500000000000002E-002     0.0000000000000000     
   1.0800000000000004E-002     0.0000000000000000     
   1.1099999999999999E-002     0.0000000000000000     
   1.1400000000000000E-002     0.0000000000000000     
   1.1700000000000002E-002     3.0630900174807088E-037
   1.2000000000000004E-002    -3.3456693637715770E-037
   1.2300000000000002E-002    -5.2993569743035651E-035
   1.2600000000000000E-002     3.5554727635390556E-034
   1.2900000000000002E-002     2.8531323376670088E-033
   1.3200000000000000E-002    -1.8023801983912347E-032
   1.3500000000000002E-002    -2.0867387470740756E-032
   1.3800000000000003E-002     5.0662118510552811E-031
   1.4100000000000001E-002    -1.3734042472691024E-030
   1.4400000000000000E-002    -4.7538003412790495E-030
   1.4700000000000001E-002     4.2190950068640146E-029
   1.4999999999999999E-002    -8.9986837757933245E-029
   1.5300000000000001E-002    -2.2962347540668889E-028
   1.5600000000000003E-002     1.9605654833211070E-027
   1.5899999999999997E-002    -4.8875841831511061E-027
   1.6199999999999999E-002    -6.9305359420752437E-029
   1.6500000000000001E-002     3.4658720967425772E-026
   1.6800000000000002E-002    -8.0769834896986558E-026
   1.7100000000000004E-002    -1.1218966555089787E-025
   1.7400000000000006E-002     1.3019795239341582E-024
   1.7700000000000000E-002    -4.5673910452593065E-024
   1.8000000000000002E-002     8.2585777170106256E-024
   1.8300000000000004E-002     1.7192705936538127E-023
   1.8600000000000005E-002    -3.2029782333310032E-022
   1.8900000000000000E-002     2.5408048049045326E-021
   1.9200000000000002E-002    -1.5605631441690901E-020
   1.9500000000000003E-002     8.1229317098466314E-020
   1.9799999999999998E-002    -3.7348070611472966E-019
   2.0100000000000000E-002     1.5670315285381929E-018
   2.0400000000000001E-002    -6.1920916722468972E-018
   2.0700000000000003E-002     2.3806535961961954E-017
   2.0999999999999998E-002    -9.1830368909970626E-017
   2.1299999999999999E-002     3.6252128698823318E-016
   2.1600000000000001E-002    -1.4635900295057185E-015
   2.1900000000000003E-002     5.9091741611385414E-015
   2.2200000000000004E-002    -2.3014061359752369E-014
   2.2500000000000006E-002     8.2791697217539373E-014
   2.2800000000000001E-002    -2.6027213695899165E-013
   2.3100000000000002E-002     6.4796063480032640E-013
   2.3400000000000004E-002    -9.1560548205749104E-013
   2.3699999999999999E-002    -1.6548818522130193E-012
   2.4000000000000000E-002     1.6872211960894390E-011
   2.4300000000000002E-002    -6.2656609067790470E-011
   2.4599999999999997E-002     1.2590944953316807E-010
   2.4900000000000005E-002    -1.8299174675551200E-011
   2.5200000000000000E-002    -7.5027600798804883E-010
   2.5499999999999995E-002     2.2311446024048109E-009
   2.5800000000000003E-002    -1.4474212939319386E-009
   2.6099999999999998E-002    -7.7519874963627444E-009
   2.6400000000000007E-002     1.9156935593400704E-008
   2.6700000000000002E-002     5.8254050472328345E-009
   2.6999999999999996E-002    -7.4849772602192388E-008
   2.7300000000000005E-002     1.9866543965463279E-008
   2.7600000000000000E-002     2.2198835836206854E-007
   2.7900000000000008E-002    -2.8018270370466780E-008
   2.8200000000000003E-002    -6.4731892734926078E-007
   2.8499999999999998E-002    -3.5711363466361945E-007
   2.8800000000000006E-002     2.0516233689704677E-006
   2.9100000000000001E-002     6.2671988416695967E-006
   2.9400000000000003E-002     1.1208977412024979E-005
   2.9700000000000004E-002     1.7095400835387409E-005
   3.0000000000000006E-002     2.5859952074824832E-005
   3.0300000000000001E-002     4.0275961509905756E-005
   3.0600000000000002E-002     6.3572697399649769E-005
   3.0900000000000004E-002     9.9504264653660357E-005
   3.1199999999999999E-002     1.5286523557733744E-004
   3.1500000000000007E-002     2.3046717979013920E-004
   3.1800000000000002E-002     3.4251055330969393E-004
   3.2099999999999997E-002     5.0391838885843754E-004
   3.2400000000000005E-002     7.3418312240391970E-004
   3.2700000000000000E-002     1.0562967509031296E-003
   3.3000000000000002E-002     1.4970384072512388E-003
   3.3300000000000003E-002     2.0889269653707743E-003
   3.3599999999999998E-002     2.8715613298118114E-003
   3.3900000000000000E-002     3.8898300845175982E-003
   3.4200000000000001E-002     5.1899668760597706E-003
   3.4500000000000003E-002     6.8165059201419353E-003
   3.4799999999999998E-002     8.8087534531950951E-003
   3.5099999999999999E-002     1.1194752529263496E-002
   3.5400000000000001E-002     1.3982342556118965E-002
   3.5699999999999996E-002     1.7149131745100021E-002
   3.6000000000000004E-002     2.0633542910218239E-002
   3.6299999999999999E-002     2.4323580786585808E-002
   3.6600000000000008E-002     2.8046779334545135E-002
   3.6900000000000002E-002     3.1563285738229752E-002
   3.7199999999999997E-002     3.4567296504974365E-002
   3.7500000000000006E-002     3.6691304296255112E-002
   3.7800000000000000E-002     3.7514746189117432E-002
   3.8100000000000009E-002     3.6583993583917618E-002
   3.8400000000000004E-002     3.3450610935688019E-002
   3.8699999999999998E-002     2.7707755565643311E-002
   3.9000000000000007E-002     1.9040340557694435E-002
   3.9300000000000002E-002     7.2692278772592545E-003
   3.9600000000000003E-002    -7.5954147614538670E-003
   3.9900000000000005E-002    -2.5307396426796913E-002
   4.0200000000000000E-002    -4.5358024537563324E-002
   4.0500000000000001E-002    -6.6965349018573761E-002
   4.0800000000000003E-002    -8.9088134467601776E-002
   4.1100000000000005E-002   -0.11045970767736435     
   4.1399999999999999E-002   -0.12965914607048035     
   4.1700000000000008E-002   -0.14520782232284546     
   4.2000000000000003E-002   -0.15567480027675629     
   4.2299999999999997E-002   -0.15979389846324921     
   4.2600000000000006E-002   -0.15658983588218689     
   4.2900000000000001E-002   -0.14548099040985107     
   4.3200000000000002E-002   -0.12635125219821930     
   4.3500000000000004E-002    -9.9597997963428497E-002
   4.3799999999999999E-002    -6.6119894385337830E-002
   4.4100000000000000E-002    -2.7280976995825768E-002
   4.4400000000000002E-002     1.5183822251856327E-002
   4.4700000000000004E-002     5.9296365827322006E-002
   4.4999999999999998E-002    0.10297336429357529     
   4.5300000000000000E-002    0.14419902861118317     
   4.5600000000000002E-002    0.18113411962985992     
   4.5899999999999996E-002    0.21228606998920441     
   4.6200000000000005E-002    0.23655848205089569     
   4.6500000000000000E-002    0.25331631302833557     
   4.6799999999999994E-002    0.26238125562667847     
   4.7100000000000003E-002    0.26396268606185913     
   4.7399999999999998E-002    0.25864416360855103     
   4.7700000000000006E-002    0.24720756709575653     
   4.8000000000000001E-002    0.23057541251182556     
   4.8300000000000010E-002    0.20968140661716461     
   4.8600000000000004E-002    0.18535549938678741     
   4.8899999999999999E-002    0.15830460190773010     
   4.9200000000000008E-002    0.12900041043758392     
   4.9500000000000002E-002     9.7728036344051361E-002
   4.9800000000000011E-002     6.4565517008304596E-002
   5.0100000000000006E-002     2.9429187998175621E-002
   5.0400000000000000E-002    -7.8230006620287895E-003
   5.0700000000000009E-002    -4.7382004559040070E-002
   5.1000000000000004E-002    -8.9356042444705963E-002
   5.1299999999999998E-002   -0.13374191522598267     
   5.1600000000000007E-002   -0.18031552433967590     
   5.1900000000000002E-002   -0.22862474620342255     
   5.2200000000000010E-002   -0.27793377637863159     
   5.2500000000000005E-002   -0.32722976803779602     
   5.2800000000000000E-002   -0.37527209520339966     
   5.3099999999999994E-002   -0.42056834697723389     
   5.3400000000000003E-002   -0.46151331067085266     
   5.3699999999999998E-002   -0.49644240736961365     
   5.4000000000000006E-002   -0.52368384599685669     
   5.4300000000000001E-002   -0.54174864292144775     
   5.4599999999999996E-002   -0.54933959245681763     
   5.4900000000000004E-002   -0.54548239707946777     
   5.5199999999999999E-002   -0.52957797050476074     
   5.5499999999999994E-002   -0.50143676996231079     
   5.5800000000000002E-002   -0.46131524443626404     
   5.6099999999999997E-002   -0.40985473990440369     
   5.6400000000000006E-002   -0.34809827804565430     
   5.6700000000000000E-002   -0.27735322713851929     
   5.6999999999999995E-002   -0.19917951524257660     
   5.7300000000000004E-002   -0.11519608646631241     
   5.7599999999999998E-002    -2.7130434289574623E-002
   5.7900000000000007E-002     6.3409119844436646E-002
   5.8200000000000002E-002    0.15494364500045776     
   5.8499999999999996E-002    0.24610315263271332     
   5.8800000000000005E-002    0.33580991625785828     
   5.9100000000000000E-002    0.42304128408432007     
   5.9400000000000008E-002    0.50704312324523926     
   5.9700000000000003E-002    0.58706492185592651     
   6.0000000000000012E-002    0.66239589452743530     
   6.0300000000000006E-002    0.73230129480361938     
   6.0600000000000001E-002    0.79583829641342163     
   6.0900000000000010E-002    0.85201233625411987     
   6.1200000000000004E-002    0.89940357208251953     
   6.1500000000000013E-002    0.93647187948226929     
   6.1800000000000008E-002    0.96140587329864502     
   6.2100000000000002E-002    0.97213852405548096     
   6.2399999999999997E-002    0.96664959192276001     
   6.2700000000000006E-002    0.94271576404571533     
   6.3000000000000000E-002    0.89844918251037598     
   6.3300000000000009E-002    0.83216714859008789     
   6.3600000000000004E-002    0.74274480342864990     
   6.3899999999999998E-002    0.62976109981536865     
   6.4199999999999993E-002    0.49350640177726746     
   6.4500000000000002E-002    0.33534649014472961     
   6.4800000000000010E-002    0.15756730735301971     
   6.5100000000000005E-002    -3.6404095590114594E-002
   6.5400000000000000E-002   -0.24219192564487457     
   6.5700000000000008E-002   -0.45442900061607361     
   6.5999999999999989E-002   -0.66698020696640015     
   6.6299999999999998E-002   -0.87331432104110718     
   6.6600000000000006E-002    -1.0664478540420532     
   6.6900000000000001E-002    -1.2396752834320068     
   6.7199999999999996E-002    -1.3865176439285278     
   6.7500000000000004E-002    -1.5012307167053223     
   6.7800000000000013E-002    -1.5791466236114502     
   6.8099999999999994E-002    -1.6166011095046997     
   6.8400000000000002E-002    -1.6116065979003906     
   6.8700000000000011E-002    -1.5633857250213623     
   6.8999999999999992E-002    -1.4729198217391968     
   6.9300000000000000E-002    -1.3424851894378662     
   6.9600000000000009E-002    -1.1757261753082275     
   6.9900000000000004E-002   -0.97749012708663940     
   7.0199999999999999E-002   -0.75343769788742065     
   7.0500000000000007E-002   -0.51001423597335815     
   7.0800000000000016E-002   -0.25382131338119507     
   7.1099999999999997E-002     8.2417614758014679E-003
   7.1400000000000005E-002    0.26959168910980225     
   7.1700000000000000E-002    0.52408832311630249     
   7.1999999999999995E-002    0.76616704463958740     
   7.2300000000000003E-002    0.99120438098907471     
   7.2600000000000012E-002     1.1953674554824829     
   7.2900000000000006E-002     1.3759937286376953     
   7.3200000000000001E-002     1.5310993194580078     
   7.3499999999999996E-002     1.6596980094909668     
   7.3800000000000004E-002     1.7613644599914551     
   7.4099999999999999E-002     1.8360220193862915     
   7.4400000000000008E-002     1.8837985992431641     
   7.4700000000000003E-002     1.9044573307037354     
   7.5000000000000011E-002     1.8973847627639771     
   7.5299999999999992E-002     1.8613185882568359     
   7.5600000000000001E-002     1.7942956686019897     
   7.5900000000000009E-002     1.6936684846878052     
   7.6200000000000004E-002     1.5565527677536011     
   7.6499999999999999E-002     1.3799917697906494     
   7.6800000000000007E-002     1.1617149114608765     
   7.7099999999999988E-002    0.90083807706832886     
   7.7399999999999997E-002    0.59812128543853760     
   7.7700000000000005E-002    0.25707361102104187     
   7.8000000000000014E-002   -0.11607885360717773     
   7.8299999999999995E-002   -0.51205068826675415     
   7.8600000000000003E-002   -0.91856569051742554     
   7.8900000000000012E-002    -1.3211981058120728     
   7.9199999999999993E-002    -1.7038053274154663     
   7.9500000000000001E-002    -2.0498876571655273     
   7.9800000000000010E-002    -2.3435263633728027     
   8.0100000000000018E-002    -2.5711448192596436     
   8.0399999999999999E-002    -2.7220213413238525     
   8.0700000000000008E-002    -2.7897315025329590     
   8.1000000000000003E-002    -2.7725234031677246     
   8.1299999999999997E-002    -2.6732833385467529     
   8.1600000000000006E-002    -2.4996852874755859     
   8.1900000000000014E-002    -2.2625987529754639     
   8.2199999999999995E-002    -1.9759331941604614     
   8.2500000000000004E-002    -1.6544834375381470     
   8.2799999999999999E-002    -1.3130935430526733     
   8.3100000000000007E-002   -0.96509957313537598     
   8.3400000000000002E-002   -0.62108886241912842     
   8.3700000000000011E-002   -0.28916880488395691     
   8.4000000000000005E-002     2.6845354586839676E-002
   8.4300000000000000E-002    0.32509773969650269     
   8.4599999999999995E-002    0.60688805580139160     
   8.4900000000000003E-002    0.87446612119674683     
   8.5199999999999998E-002     1.1299241781234741     
   8.5500000000000007E-002     1.3747756481170654     
   8.5800000000000001E-002     1.6077334880828857     
   8.6100000000000010E-002     1.8251894712448120     
   8.6399999999999991E-002     2.0200133323669434     
   8.6699999999999999E-002     2.1822183132171631     
   8.7000000000000008E-002     2.2997426986694336     
   8.7300000000000003E-002     2.3590691089630127     
   8.7599999999999997E-002     2.3469595909118652     
   8.7900000000000006E-002     2.2520160675048828     
   8.8200000000000014E-002     2.0661075115203857     
   8.8499999999999995E-002     1.7855899333953857     
   8.8800000000000004E-002     1.4126380681991577     
   8.9100000000000013E-002    0.95532274246215820     
   8.9399999999999993E-002    0.42800334095954895     
   8.9700000000000002E-002   -0.14904153347015381     
   9.0000000000000011E-002   -0.75110590457916260     
   9.0299999999999991E-002    -1.3496366739273071     
   9.0600000000000000E-002    -1.9147999286651611     
   9.0900000000000009E-002    -2.4165172576904297     
   9.1200000000000017E-002    -2.8268225193023682     
   9.1499999999999998E-002    -3.1217968463897705     
   9.1800000000000007E-002    -3.2822868824005127     
   9.2100000000000001E-002    -3.2965111732482910     
   9.2399999999999996E-002    -3.1596088409423828     
   9.2700000000000005E-002    -2.8748147487640381     
   9.3000000000000013E-002    -2.4531512260437012     
   9.3300000000000008E-002    -1.9124946594238281     
   9.3600000000000003E-002    -1.2773998975753784     
   9.3899999999999997E-002   -0.57680815458297729     
   9.4200000000000006E-002    0.15711230039596558     
   9.4500000000000001E-002    0.89049106836318970     
   9.4800000000000009E-002     1.5905003547668457     
   9.5100000000000004E-002     2.2259497642517090     
   9.5399999999999999E-002     2.7701230049133301     
   9.5699999999999993E-002     3.2011609077453613     
   9.6000000000000002E-002     3.5035278797149658     
   9.6300000000000011E-002     3.6686167716979980     
   9.6600000000000005E-002     3.6942274570465088     
   9.6900000000000000E-002     3.5856924057006836     
   9.7200000000000009E-002     3.3532953262329102     
   9.7499999999999989E-002     3.0135519504547119     
   9.7799999999999998E-002     2.5861864089965820     
   9.8100000000000007E-002     2.0937995910644531     
   9.8400000000000015E-002     1.5609861612319946     
   9.8699999999999996E-002     1.0112129449844360     
   9.9000000000000005E-002    0.46823424100875854     
   9.9300000000000013E-002    -4.7092594206333160E-002
   9.9599999999999994E-002   -0.51648467779159546     
   9.9900000000000003E-002   -0.92491078376770020     
  0.10020000000000001         -1.2615010738372803     
  0.10049999999999999         -1.5187824964523315     
  0.10080000000000000         -1.6938804388046265     
  0.10110000000000001         -1.7868771553039551     
  0.10140000000000000         -1.8017941713333130     
  0.10170000000000000         -1.7453951835632324     
  0.10200000000000001         -1.6266000270843506     
  0.10230000000000002         -1.4568983316421509     
  0.10260000000000000         -1.2477504014968872     
  0.10290000000000001         -1.0123784542083740     
  0.10320000000000000        -0.76331007480621338     
  0.10350000000000001        -0.51252222061157227     
  0.10380000000000000        -0.27170822024345398     
  0.10410000000000001         -5.0263579934835434E-002
  0.10440000000000001         0.14315138757228851     
  0.10470000000000000         0.30231019854545593     
  0.10500000000000000         0.42203727364540100     
  0.10530000000000000         0.49949672818183899     
  0.10560000000000000         0.53348481655120850     
  0.10590000000000001         0.52396899461746216     
  0.10620000000000000         0.47324296832084656     
  0.10650000000000001         0.38419184088706970     
  0.10679999999999999         0.26149621605873108     
  0.10710000000000000         0.11071285605430603     
  0.10740000000000001         -6.1811782419681549E-002
  0.10770000000000000        -0.24885158240795135     
  0.10800000000000000        -0.44360774755477905     
  0.10830000000000001        -0.63845098018646240     
  0.10859999999999999        -0.82713484764099121     
  0.10890000000000000         -1.0036423206329346     
  0.10920000000000001         -1.1630465984344482     
  0.10950000000000001         -1.3019610643386841     
  0.10979999999999999         -1.4172898530960083     
  0.11009999999999999         -1.5082914829254150     
  0.11040000000000001         -1.5732988119125366     
  0.11070000000000001         -1.6122959852218628     
  0.11100000000000000         -1.6246303319931030     
  0.11130000000000000         -1.6091998815536499     
  0.11160000000000002         -1.5652998685836792     
  0.11190000000000001         -1.4901041984558105     
  0.11220000000000001         -1.3821898698806763     
  0.11250000000000000         -1.2386362552642822     
  0.11280000000000000         -1.0575641393661499     
  0.11309999999999999        -0.83847463130950928     
  0.11340000000000001        -0.58099633455276489     
  0.11369999999999998        -0.28869214653968811     
  0.11400000000000000          3.4051276743412018E-002
  0.11430000000000000         0.37957540154457092     
  0.11460000000000002         0.73771661520004272     
  0.11489999999999999          1.0970218181610107     
  0.11520000000000001          1.4434727430343628     
  0.11550000000000001          1.7630293369293213     
  0.11580000000000000          2.0411241054534912     
  0.11609999999999999          2.2641885280609131     
  0.11640000000000002          2.4200415611267090     
  0.11670000000000001          2.4983086585998535     
  0.11700000000000001          2.4921879768371582     
  0.11730000000000000          2.3970849514007568     
  0.11760000000000000          2.2126677036285400     
  0.11789999999999999          1.9415943622589111     
  0.11820000000000001          1.5907539129257202     
  0.11850000000000001          1.1707861423492432     
  0.11880000000000000         0.69540137052536011     
  0.11910000000000000         0.18277490139007568     
  0.11940000000000002        -0.34709134697914124     
  0.11970000000000001        -0.87024742364883423     
  0.12000000000000001         -1.3622063398361206     
  0.12030000000000000         -1.7974256277084351     
  0.12060000000000000         -2.1502718925476074     
  0.12089999999999999         -2.3987727165222168     
  0.12119999999999999         -2.5223586559295654     
  0.12150000000000001         -2.5075528621673584     
  0.12180000000000001         -2.3463432788848877     
  0.12210000000000000         -2.0382947921752930     
  0.12239999999999999         -1.5929775238037109     
  0.12270000000000002         -1.0261386632919312     
  0.12300000000000001        -0.36456540226936340     
  0.12330000000000001         0.36031118035316467     
  0.12360000000000000          1.1102055311203003     
  0.12390000000000000          1.8434613943099976     
  0.12419999999999999          2.5192172527313232     
  0.12450000000000001          3.0961842536926270     
  0.12480000000000001          3.5404839515686035     
  0.12509999999999999          3.8234796524047852     
  0.12540000000000001          3.9264161586761475     
  0.12570000000000003          3.8413746356964111     
  0.12600000000000000          3.5703356266021729     
  0.12630000000000002          3.1276304721832275     
  0.12659999999999999          2.5362420082092285     
  0.12690000000000001          1.8283458948135376     
  0.12719999999999998          1.0413748025894165     
  0.12750000000000000         0.21705836057662964     
  0.12780000000000002        -0.60157155990600586     
  0.12809999999999999         -1.3739620447158813     
  0.12840000000000001         -2.0616788864135742     
  0.12869999999999998         -2.6333887577056885     
  0.12900000000000000         -3.0636465549468994     
  0.12930000000000003         -3.3350460529327393     
  0.12959999999999999         -3.4390130043029785     
  0.12990000000000002         -3.3739821910858154     
  0.13019999999999998         -3.1476447582244873     
  0.13050000000000000         -2.7737264633178711     
  0.13080000000000003         -2.2735168933868408     
  0.13109999999999999         -1.6731357574462891     
  0.13140000000000002         -1.0036476850509644     
  0.13169999999999998        -0.30053836107254028     
  0.13200000000000001         0.39956963062286377     
  0.13229999999999997          1.0575243234634399     
  0.13260000000000000          1.6352872848510742     
  0.13290000000000002          2.0968098640441895     
  0.13319999999999999          2.4101278781890869     
  0.13350000000000001          2.5502996444702148     
  0.13380000000000003          2.5003969669342041     
  0.13410000000000000          2.2545280456542969     
  0.13440000000000002          1.8178374767303467     
  0.13469999999999999          1.2097904682159424     
  0.13500000000000001         0.46065229177474976     
  0.13529999999999998        -0.38663348555564880     
  0.13560000000000000         -1.2803651094436646     
  0.13590000000000002         -2.1637563705444336     
  0.13619999999999999         -2.9766442775726318     
  0.13650000000000001         -3.6637761592864990     
  0.13680000000000003         -4.1745934486389160     
  0.13710000000000000         -4.4723043441772461     
  0.13740000000000002         -4.5334239006042480     
  0.13769999999999999         -4.3511662483215332     
  0.13800000000000001         -3.9383962154388428     
  0.13829999999999998         -3.3211727142333984     
  0.13860000000000000         -2.5434217453002930     
  0.13890000000000002         -1.6571021080017090     
  0.13919999999999999        -0.72116667032241821     
  0.13950000000000001         0.20367005467414856     
  0.13979999999999998          1.0623852014541626     
  0.14010000000000000          1.8061062097549438     
  0.14040000000000002          2.4001705646514893     
  0.14069999999999999          2.8219115734100342     
  0.14100000000000001          3.0647509098052979     
  0.14130000000000004          3.1360049247741699     
  0.14160000000000000          3.0542204380035400     
  0.14189999999999997          2.8496861457824707     
  0.14219999999999999          2.5559794902801514     
  0.14250000000000002          2.2112329006195068     
  0.14279999999999998          1.8510618209838867     
  0.14310000000000000          1.5074971914291382     
  0.14339999999999997          1.2063766717910767     
  0.14369999999999999         0.96499884128570557     
  0.14400000000000002         0.79412621259689331     
  0.14429999999999998         0.69475883245468140     
  0.14460000000000001         0.66301226615905762     
  0.14490000000000003         0.68874382972717285     
  0.14520000000000000         0.75873619318008423     
  0.14550000000000002         0.85913425683975220     
  0.14579999999999999         0.97456163167953491     
  0.14610000000000001          1.0932984352111816     
  0.14640000000000003          1.2041789293289185     
  0.14670000000000000          1.2999618053436279     
  0.14699999999999996          1.3769682645797729     
  0.14729999999999999          1.4329618215560913     
  0.14760000000000001          1.4689373970031738     
  0.14789999999999998          1.4860521554946899     
  0.14820000000000000          1.4861458539962769     