  -1.4999999999999999E-002     0.0000000000000000     
  -1.4700000000000000E-002     0.0000000000000000     
  -1.4400000000000000E-002     0.0000000000000000     
  -1.4100000000000000E-002     0.0000000000000000     
  -1.3800000000000000E-002     0.0000000000000000     
  -1.3500000000000000E-002     0.0000000000000000     
  -1.3200000000000000E-002     0.0000000000000000     
  -1.2899999999999998E-002     0.0000000000000000     
  -1.2600000000000000E-002     0.0000000000000000     
  -1.2299999999999998E-002     0.0000000000000000     
  -1.2000000000000000E-002     0.0000000000000000     
  -1.1699999999999999E-002     0.0000000000000000     
  -1.1399999999999999E-002     0.0000000000000000     
  -1.1099999999999999E-002     0.0000000000000000     
  -1.0799999999999999E-002     0.0000000000000000     
  -1.0499999999999999E-002     0.0000000000000000     
  -1.0199999999999999E-002     0.0000000000000000     
  -9.8999999999999991E-003     0.0000000000000000     
  -9.5999999999999992E-003     0.0000000000000000     
  -9.2999999999999992E-003     0.0000000000000000     
  -8.9999999999999993E-003     0.0000000000000000     
  -8.6999999999999994E-003     0.0000000000000000     
  -8.3999999999999995E-003     0.0000000000000000     
  -8.0999999999999996E-003     0.0000000000000000     
  -7.7999999999999988E-003     0.0000000000000000     
  -7.4999999999999997E-003     0.0000000000000000     
  -7.1999999999999998E-003     0.0000000000000000     
  -6.8999999999999981E-003     0.0000000000000000     
  -6.5999999999999982E-003     0.0000000000000000     
  -6.3000000000000000E-003     0.0000000000000000     
  -6.0000000000000001E-003     0.0000000000000000     
  -5.6999999999999985E-003     0.0000000000000000     
  -5.3999999999999986E-003     0.0000000000000000     
  -5.1000000000000004E-003     0.0000000000000000     
  -4.7999999999999987E-003     0.0000000000000000     
  -4.5000000000000005E-003     0.0000000000000000     
  -4.1999999999999989E-003     0.0000000000000000     
  -3.8999999999999990E-003     0.0000000000000000     
  -3.5999999999999990E-003     0.0000000000000000     
  -3.2999999999999991E-003     0.0000000000000000     
  -2.9999999999999992E-003     0.0000000000000000     
  -2.6999999999999993E-003     0.0000000000000000     
  -2.3999999999999994E-003     0.0000000000000000     
  -2.0999999999999977E-003     0.0000000000000000     
  -1.7999999999999995E-003     0.0000000000000000     
  -1.4999999999999979E-003     0.0000000000000000     
  -1.1999999999999997E-003     0.0000000000000000     
  -8.9999999999999976E-004     0.0000000000000000     
  -5.9999999999999810E-004     0.0000000000000000     
  -2.9999999999999992E-004     0.0000000000000000     
   0.0000000000000000          0.0000000000000000     
   3.0000000000000165E-004     0.0000000000000000     
   5.9999999999999984E-004     0.0000000000000000     
   9.0000000000000149E-004     0.0000000000000000     
   1.2000000000000031E-003     0.0000000000000000     
   1.5000000000000013E-003     0.0000000000000000     
   1.8000000000000030E-003     0.0000000000000000     
   2.1000000000000012E-003     0.0000000000000000     
   2.3999999999999994E-003     0.0000000000000000     
   2.7000000000000010E-003     0.0000000000000000     
   2.9999999999999992E-003     0.0000000000000000     
   3.3000000000000008E-003     0.0000000000000000     
   3.6000000000000025E-003     0.0000000000000000     
   3.9000000000000007E-003     0.0000000000000000     
   4.2000000000000023E-003     0.0000000000000000     
   4.5000000000000005E-003     0.0000000000000000     
   4.7999999999999987E-003     0.0000000000000000     
   5.1000000000000004E-003     0.0000000000000000     
   5.4000000000000020E-003    -1.8121172445873662E-039
   5.7000000000000037E-003     4.0676100088788446E-038
   5.9999999999999984E-003    -4.8845602773650085E-038
   6.3000000000000000E-003    -1.1353781841108783E-036
   6.6000000000000017E-003     5.3859171111126657E-037
   6.9000000000000034E-003    -2.0349882872858853E-036
   7.2000000000000015E-003     2.4275933337110691E-036
   7.5000000000000032E-003     2.1087173466513862E-035
   7.8000000000000014E-003    -9.3736401874131018E-036
   8.0999999999999996E-003    -1.4858559412197127E-034
   8.4000000000000012E-003     5.6917186011278574E-034
   8.7000000000000029E-003     1.9478613231506678E-034
   9.0000000000000011E-003    -2.4401840272684361E-033
   9.2999999999999992E-003    -9.9283827594821293E-034
   9.6000000000000009E-003     7.9320388258478955E-033
   9.8999999999999991E-003     1.0383831344485531E-031
   1.0200000000000001E-002    -7.1923598202945159E-031
   1.0500000000000002E-002     1.4914711103956084E-030
   1.0800000000000004E-002     6.4204981768434416E-030
   1.1099999999999999E-002    -6.8285436865734022E-029
   1.1400000000000000E-002     2.9358556315764640E-028
   1.1700000000000002E-002    -5.4506975616372214E-028
   1.2000000000000004E-002    -1.6947010385931553E-027
   1.2300000000000002E-002     1.8224888992478144E-026
   1.2600000000000000E-002    -7.9410472078173910E-026
   1.2900000000000002E-002     2.1036801536533487E-025
   1.3200000000000000E-002    -2.4727398282742891E-025
   1.3500000000000002E-002    -8.6965052449563132E-025
   1.3800000000000003E-002     7.9049323723496613E-024
   1.4100000000000001E-002    -4.3091518746149176E-023
   1.4400000000000000E-002     2.1280609462923260E-022
   1.4700000000000001E-002    -9.7706911136229488E-022
   1.4999999999999999E-002     3.9878793552105244E-021
   1.5300000000000001E-002    -1.3742846224529261E-020
   1.5600000000000003E-002     3.6518183624676928E-020
   1.5899999999999997E-002    -4.9320908055605209E-020
   1.6199999999999999E-002    -1.9778622073114188E-019
   1.6500000000000001E-002     2.1041078755570969E-018
   1.6800000000000002E-002    -1.1773826725076042E-017
   1.7100000000000004E-002     5.1171167214394870E-017
   1.7400000000000006E-002    -1.8139058419925872E-016
   1.7700000000000000E-002     4.8343010636415668E-016
   1.8000000000000002E-002    -4.9954444492418121E-016
   1.8300000000000004E-002    -4.5911292275564586E-015
   1.8600000000000005E-002     4.2151006874137411E-014
   1.8900000000000000E-002    -2.2670212403608806E-013
   1.9200000000000002E-002     9.1420736068357124E-013
   1.9500000000000003E-002    -2.7858596132519328E-012
   1.9799999999999998E-002     5.5676188319077249E-012
   2.0100000000000000E-002    -1.3063729604736784E-012
   2.0400000000000001E-002    -4.1053121495529747E-011
   2.0700000000000003E-002     1.7170914711146127E-010
   2.0999999999999998E-002    -3.1514742895050800E-010
   2.1299999999999999E-002    -1.1736810134060851E-010
   2.1600000000000001E-002     2.1260797428268883E-009
   2.1900000000000003E-002    -4.2030913679341457E-009
   2.2200000000000004E-002    -2.1757778284111835E-009
   2.2500000000000006E-002     2.1306733182593600E-008
   2.2800000000000001E-002    -1.5657794008272403E-008
   2.3100000000000002E-002    -6.5711100976566351E-008
   2.3400000000000004E-002     7.4638745650254421E-008
   2.3699999999999999E-002     1.9792563970160065E-007
   2.4000000000000000E-002    -1.6885635075387588E-007
   2.4300000000000002E-002    -6.8290797734569054E-007
   2.4599999999999997E-002     4.9200582181106322E-008
   2.4900000000000005E-002     3.1455759390377244E-006
   2.5200000000000000E-002     8.2749582610334126E-006
   2.5499999999999995E-002     1.4583407011627668E-005
   2.5800000000000003E-002     2.2487915043615495E-005
   2.6099999999999998E-002     3.4007366538336753E-005
   2.6400000000000007E-002     5.2243764534983059E-005
   2.6700000000000002E-002     8.1125537144444409E-005
   2.6999999999999996E-002     1.2542667012576661E-004
   2.7300000000000005E-002     1.9135800736675302E-004
   2.7600000000000000E-002     2.8758597418405973E-004
   2.7900000000000008E-002     4.2657699727400265E-004
   2.8200000000000003E-002     6.2576416825515027E-004
   2.8499999999999998E-002     9.0742198181888861E-004
   2.8800000000000006E-002     1.2979780312709355E-003
   2.9100000000000001E-002     1.8283604030658804E-003
   2.9400000000000003E-002     2.5354227437382054E-003
   2.9700000000000004E-002     3.4624866204998189E-003
   3.0000000000000006E-002     4.6570588164294990E-003
   3.0300000000000001E-002     6.1667920204008797E-003
   3.0600000000000002E-002     8.0354015366527753E-003
   3.0900000000000004E-002     1.0297108899867791E-002
   3.1199999999999999E-002     1.2968642512216799E-002
   3.1500000000000007E-002     1.6039436972675958E-002
   3.1800000000000002E-002     1.9460675245717596E-002
   3.2099999999999997E-002     2.3136278305146418E-002
   3.2400000000000005E-002     2.6911861608965637E-002
   3.2700000000000000E-002     3.0565500521550826E-002
   3.3000000000000002E-002     3.3805806085291046E-002
   3.3300000000000003E-002     3.6275440748021470E-002
   3.3599999999999998E-002     3.7563945054298387E-002
   3.3900000000000000E-002     3.7226879812684244E-002
   3.4200000000000001E-002     3.4816564148076434E-002
   3.4500000000000003E-002     2.9930048483722049E-002
   3.4799999999999998E-002     2.2257633227507290E-002
   3.5099999999999999E-002     1.1638833287869008E-002
   3.5400000000000001E-002    -1.8803432995242730E-003
   3.5699999999999996E-002    -1.8002402815879059E-002
   3.6000000000000004E-002    -3.6127384963893672E-002
   3.6299999999999999E-002    -5.5352013112431209E-002
   3.6600000000000008E-002    -7.4476789058783410E-002
   3.6900000000000002E-002    -9.2047819383534346E-002
   3.7199999999999997E-002   -0.10644318766609695     
   3.7500000000000006E-002   -0.11596935563401356     
   3.7800000000000000E-002   -0.11901612437975961     
   3.8100000000000009E-002   -0.11419619020145255     
   3.8400000000000004E-002   -0.10049790664917513     
   3.8699999999999998E-002    -7.7444521232424623E-002
   3.9000000000000007E-002    -4.5183780561527581E-002
   3.9300000000000002E-002    -4.5752566148994367E-003
   3.9600000000000003E-002     4.2801980976831189E-002
   3.9900000000000005E-002     9.4704220380978033E-002
   4.0200000000000000E-002    0.14830535450213667     
   4.0500000000000001E-002    0.20037559031225172     
   4.0800000000000003E-002    0.24747911453752724     
   4.1100000000000005E-002    0.28619081656133005     
   4.1399999999999999E-002    0.31334099369476043     
   4.1700000000000008E-002    0.32622711599363363     
   4.2000000000000003E-002    0.32279850351594952     
   4.2299999999999997E-002    0.30181039480388883     
   4.2600000000000006E-002    0.26290031401740954     
   4.2900000000000001E-002    0.20662163694662850     
   4.3200000000000002E-002    0.13443203906878332     
   4.3500000000000004E-002     4.8578697541908245E-002
   4.3799999999999999E-002    -4.7978891909373544E-002
   4.4100000000000000E-002   -0.15173882944784722     
   4.4400000000000002E-002   -0.25884689248657633     
   4.4700000000000004E-002   -0.36523086162292984     
   4.4999999999999998E-002   -0.46683116767977140     
   4.5300000000000000E-002   -0.55971435659642665     
   4.5600000000000002E-002   -0.64025347361453200     
   4.5899999999999996E-002   -0.70527342782427027     
   4.6200000000000005E-002   -0.75212375928650133     
   4.6500000000000000E-002   -0.77882633429980075     
   4.6799999999999994E-002   -0.78408888493557072     
   4.7100000000000003E-002   -0.76735535395411603     
   4.7399999999999998E-002   -0.72885297205122512     
   4.7700000000000006E-002   -0.66950672056066907     
   4.8000000000000001E-002   -0.59095493876676919     
   4.8300000000000010E-002   -0.49549987114133032     
   4.8600000000000004E-002   -0.38592929717073332     
   4.8899999999999999E-002   -0.26553829237838888     
   4.9200000000000008E-002   -0.13788307712259962     
   4.9500000000000002E-002    -6.6866934016571733E-003
   4.9800000000000011E-002    0.12428161768727630     
   5.0100000000000006E-002    0.25145879232207058     
   5.0400000000000000E-002    0.37157545176234485     
   5.0700000000000009E-002    0.48183956026646513     
   5.1000000000000004E-002    0.58017767285478428     
   5.1299999999999998E-002    0.66515966064172716     
   5.1600000000000007E-002    0.73623078266266972     
   5.1900000000000002E-002    0.79371905592390846     
   5.2200000000000010E-002    0.83860414117596704     
   5.2500000000000005E-002    0.87269731500678560     
   5.2800000000000000E-002    0.89810941961846424     
   5.3099999999999994E-002    0.91718286677772554     
   5.3400000000000003E-002    0.93214166403846122     
   5.3699999999999998E-002    0.94453950246463236     
   5.4000000000000006E-002    0.95525546786547011     
   5.4300000000000001E-002    0.96390200849621266     
   5.4599999999999996E-002    0.96875382496065043     
   5.4900000000000004E-002    0.96678275271995773     
   5.5199999999999999E-002    0.95346779976600970     
   5.5499999999999994E-002    0.92345177111328880     
   5.5800000000000002E-002    0.87076221901436668     
   5.6099999999999997E-002    0.78937098930242300     
   5.6400000000000006E-002    0.67412629305387206     
   5.6700000000000000E-002    0.52125144780120358     
   5.6999999999999995E-002    0.32910745782835266     
   5.7300000000000004E-002     9.8837549841870320E-002
   5.7599999999999998E-002   -0.16550106287187516     
   5.7900000000000007E-002   -0.45669162539635444     
   5.8200000000000002E-002   -0.76455653367621679     
   5.8499999999999996E-002    -1.0765257955276866     
   5.8800000000000005E-002    -1.3783320927568994     
   5.9100000000000000E-002    -1.6550065255508528     
   5.9400000000000008E-002    -1.8919675684989699     
   5.9700000000000003E-002    -2.0759798783372645     
   6.0000000000000012E-002    -2.1963496624107677     
   6.0300000000000006E-002    -2.2453317110758206     
   6.0600000000000001E-002    -2.2189834244250903     
   6.0900000000000010E-002    -2.1171943620387736     
   6.1200000000000004E-002    -1.9433391161206401     
   6.1500000000000013E-002    -1.7042884714006732     
   6.1800000000000008E-002    -1.4093008973567223     
   6.2100000000000002E-002    -1.0694732885003297     
   6.2399999999999997E-002   -0.69684695217422910     
   6.2700000000000006E-002   -0.30342104974037909     
   6.3000000000000000E-002     9.9178780574165404E-002
   6.3300000000000009E-002    0.50060095547887684     
   6.3600000000000004E-002    0.89153563452628859     
   6.3899999999999998E-002     1.2641107621910379     
   6.4199999999999993E-002     1.6117256244984972     
   6.4500000000000002E-002     1.9284237098952559     
   6.4800000000000010E-002     2.2092297068590909     
   6.5100000000000005E-002     2.4490574539753993     
   6.5400000000000000E-002     2.6428932223189889     
   6.5700000000000008E-002     2.7858214718522589     
   6.5999999999999989E-002     2.8723783345594143     
   6.6299999999999998E-002     2.8974755770653360     
   6.6600000000000006E-002     2.8561055168348020     
   6.6900000000000001E-002     2.7439764121222368     
   6.7199999999999996E-002     2.5580438363731446     
   6.7500000000000004E-002     2.2965438351744893     
   6.7800000000000013E-002     1.9600493304169291     
   6.8099999999999994E-002     1.5512880540742380     
   6.8400000000000002E-002     1.0757726871992137     
   6.8700000000000011E-002    0.54203557724376772     
   6.8999999999999992E-002    -3.8454512059439061E-002
   6.9300000000000000E-002   -0.65112052131366127     
   6.9600000000000009E-002    -1.2785536287315082     
   6.9900000000000004E-002    -1.9007868256306821     
   7.0199999999999999E-002    -2.4957755655217113     
   7.0500000000000007E-002    -3.0403192126041318     
   7.0800000000000016E-002    -3.5110400834674209     
   7.1099999999999997E-002    -3.8852862198238824     
   7.1400000000000005E-002    -4.1428605141228445     
   7.1700000000000000E-002    -4.2672207419540200     
   7.1999999999999995E-002    -4.2467392191365434     
   7.2300000000000003E-002    -4.0762322041912142     
   7.2600000000000012E-002    -3.7577041785369119     
   7.2900000000000006E-002    -3.3009939556855556     
   7.3200000000000001E-002    -2.7236370150755391     
   7.3499999999999996E-002    -2.0502202290608089     
   7.3800000000000004E-002    -1.3114420047493978     
   7.4099999999999999E-002   -0.54194066020988174     
   7.4400000000000008E-002    0.22159865481823893     
   7.4700000000000003E-002    0.94282629921051964     
   7.5000000000000011E-002     1.5886794455995812     
   7.5299999999999992E-002     2.1311210988003069     
   7.5600000000000001E-002     2.5491851474881031     
   7.5900000000000009E-002     2.8305904516936948     
   7.6200000000000004E-002     2.9718778867062667     
   7.6499999999999999E-002     2.9784882408893338     
   7.6800000000000007E-002     2.8639382914517455     
   7.7099999999999988E-002     2.6476616551307757     
   7.7399999999999997E-002     2.3537039265986195     
   7.7700000000000005E-002     2.0077381642760557     
   7.8000000000000014E-002     1.6351037610051833     
   7.8299999999999995E-002     1.2591037358338433     
   7.8600000000000003E-002    0.89824667553498294     
   7.8900000000000012E-002    0.56653047268583956     
   7.9199999999999993E-002    0.27204693685793835     
   7.9500000000000001E-002     1.7360597105991804E-002
   7.9800000000000010E-002   -0.19890545329893605     
   8.0100000000000018E-002   -0.38201420149754206     
   8.0399999999999999E-002   -0.53872030422868455     
   8.0700000000000008E-002   -0.67603165293979472     
   8.1000000000000003E-002   -0.80016743286007497     
   8.1299999999999997E-002   -0.91475198663595947     
   8.1600000000000006E-002    -1.0208624445157426     
   8.1900000000000014E-002    -1.1164031833268453     
   8.2199999999999995E-002    -1.1963648381314869     
   8.2500000000000004E-002    -1.2544040179649230     
   8.2799999999999999E-002    -1.2826190021549593     
   8.3100000000000007E-002    -1.2735036826066306     
   8.3400000000000002E-002    -1.2212861796499084     
   8.3700000000000011E-002    -1.1221943638084575     
   8.4000000000000005E-002   -0.97637631364493060     
   8.4300000000000000E-002   -0.78732669423830615     
   8.4599999999999995E-002   -0.56234923372181811     
   8.4900000000000003E-002   -0.31243106570189205     
   8.5199999999999998E-002    -5.0330313735023502E-002
   8.5500000000000007E-002    0.20902704238610159     
   8.5800000000000001E-002    0.45108115918172409     
   8.6100000000000010E-002    0.66255005809916767     
   8.6399999999999991E-002    0.83216220444930045     
   8.6699999999999999E-002    0.95291559763697364     
   8.7000000000000008E-002     1.0212209797211713     
   8.7300000000000003E-002     1.0381671523564329     
   8.7599999999999997E-002     1.0087679471657545     
   8.7900000000000006E-002    0.94095237881564842     
   8.8200000000000014E-002    0.84558559004691780     
   8.8499999999999995E-002    0.73341164268248171     
   8.8800000000000004E-002    0.61510249808972972     
   8.9100000000000013E-002    0.49919033850905237     
   8.9399999999999993E-002    0.39114242190452941     
   8.9700000000000002E-002    0.29335955776500455     
   9.0000000000000011E-002    0.20436678975662215     
   9.0299999999999991E-002    0.12028710049477009     
   9.0600000000000000E-002     3.4928398204772337E-002
   9.0900000000000009E-002    -5.8040118971916549E-002
   9.1200000000000017E-002   -0.16351188592633203     
   9.1499999999999998E-002   -0.28420265903818809     
   9.1800000000000007E-002   -0.41813946815621250     
   9.2100000000000001E-002   -0.55935737207543923     
   9.2399999999999996E-002   -0.69696479313232373     
   9.2700000000000005E-002   -0.81603235653388850     
   9.3000000000000013E-002   -0.89957391976115275     
   9.3300000000000008E-002   -0.92910419101848873     
   9.3600000000000003E-002   -0.88835891448382753     
   9.3899999999999997E-002   -0.76462507625292098     
   9.4200000000000006E-002   -0.55090237053910363     
   9.4500000000000001E-002   -0.24820203336062718     
   9.4800000000000009E-002    0.13470212748262189     
   9.5100000000000004E-002    0.58027247337708943     
   9.5399999999999999E-002     1.0639315732812555     
   9.5699999999999993E-002     1.5550220379470190     
   9.6000000000000002E-002     2.0193205024417509     
   9.6300000000000011E-002     2.4221515532865965     
   9.6600000000000005E-002     2.7304787053382995     
   9.6900000000000000E-002     2.9163276921417918     
   9.7200000000000009E-002     2.9588551603794571     
   9.7499999999999989E-002     2.8462589192585881     
   9.7799999999999998E-002     2.5765554627509886     
   9.8100000000000007E-002     2.1580096924126053     
   9.8400000000000015E-002     1.6085562768558486     
   9.8699999999999996E-002    0.95441900995767881     
   9.9000000000000005E-002    0.22842428849260266     
   9.9300000000000013E-002   -0.53265010336014740     
   9.9599999999999994E-002    -1.2899061943830787     
   9.9900000000000003E-002    -2.0056736765315435     
  0.10020000000000001         -2.6448851687822099     
  0.10049999999999999         -3.1777446668190947     
  0.10080000000000000         -3.5810483470838221     
  0.10110000000000001         -3.8387950274085938     
  0.10140000000000000         -3.9437413107000054     
  0.10170000000000000         -3.8957943228213594     
  0.10200000000000001         -3.7027370008741656     
  0.10230000000000002         -3.3787285715051496     
  0.10260000000000000         -2.9426322606252882     
  0.10290000000000001         -2.4176825435314697     
  0.10320000000000000         -1.8285681117210650     
  0.10350000000000001         -1.2012599491501854     
  0.10380000000000000        -0.56119230784060292     
  0.10410000000000001          6.8312138667218303E-002
  0.10440000000000001         0.66512227851744399     
  0.10470000000000000          1.2104676575442497     
  0.10500000000000000          1.6881796374837279     
  0.10530000000000000          2.0847358293882223     
  0.10560000000000000          2.3901800413091792     
  0.10590000000000001          2.5963397355215676     
  0.10620000000000000          2.6985949685963817     
  0.10650000000000001          2.6948113590666054     
  0.10679999999999999          2.5858377682439340     
  0.10710000000000000          2.3764995946610483     
  0.10740000000000001          2.0745580246105959     
  0.10770000000000000          1.6925367653797068     
  0.10800000000000000          1.2469083591286889     
  0.10830000000000001         0.75763932880608920     
  0.10859999999999999         0.24877117374562197     
  0.10890000000000000        -0.25375974153145808     
  0.10920000000000001        -0.72229880599543961     
  0.10950000000000001         -1.1293799565363898     
  0.10979999999999999         -1.4501228392296568     
  0.11009999999999999         -1.6626534805625397     
  0.11040000000000001         -1.7515639052523397     
  0.11070000000000001         -1.7079765878152813     
  0.11100000000000000         -1.5313479601170101     
  0.11130000000000000         -1.2302024724835250     
  0.11160000000000002        -0.82107659540328370     
  0.11190000000000001        -0.32957958150766942     
  0.11220000000000001         0.21235778971569186     
  0.11250000000000000         0.76773037588079518     
  0.11280000000000000          1.2962546853982175     
  0.11309999999999999          1.7585547726404158     
  0.11340000000000001          2.1170648085155079     
  0.11369999999999998          2.3406662925674624     
  0.11400000000000000          2.4061084622602493     
  0.11430000000000000          2.3003248143048083     
  0.11460000000000002          2.0227336206936855     
  0.11489999999999999          1.5843835076934005     
  0.11520000000000001          1.0092145784194031     
  0.11550000000000001         0.33169188604782818     
  0.11580000000000000        -0.40501946356420149     
  0.11609999999999999         -1.1516206576978618     
  0.11640000000000002         -1.8576458529196600     
  0.11670000000000001         -2.4735209352793674     
  0.11700000000000001         -2.9559873797185503     
  0.11730000000000000         -3.2709668843143618     
  0.11760000000000000         -3.3961972902060467     
  0.11789999999999999         -3.3238513850924534     
  0.11820000000000001         -3.0599340887387712     
  0.11850000000000001         -2.6250014643709108     
  0.11880000000000000         -2.0515924264585941     
  0.11910000000000000         -1.3815439094256368     
  0.11940000000000002        -0.66294819290133944     
  0.11970000000000001          5.4819094643152155E-002
  0.12000000000000001         0.72384826255069257     
  0.12030000000000000          1.3023852909983873     
  0.12060000000000000          1.7578010899267582     
  0.12089999999999999          2.0681310612613188     
  0.12119999999999999          2.2238495647612240     
  0.12150000000000001          2.2278067216563784     
  0.12180000000000001          2.0940731387595051     
  0.12210000000000000          1.8464248173353184     
  0.12239999999999999          1.5154604648749839     
  0.12270000000000002          1.1361424857166043     
  0.12300000000000001         0.74481160101237798     
  0.12330000000000001         0.37611675468343542     
  0.12360000000000000          6.0514423742374035E-002
  0.12390000000000000        -0.17796770423720609     
  0.12419999999999999        -0.32262186214778765     
  0.12450000000000001        -0.36546197554502857     
  0.12480000000000001        -0.30711547120560656     
  0.12509999999999999        -0.15614010201559481     
  0.12540000000000001          7.1648664835414211E-002
  0.12570000000000003         0.35520476268631818     
  0.12600000000000000         0.66955792291724592     
  0.12630000000000002         0.98845725147642582     
  0.12659999999999999          1.2861534135222001     
  0.12690000000000001          1.5391734030793529     
  0.12719999999999998          1.7280286711249744     
  0.12750000000000000          1.8383534553814371     
  0.12780000000000002          1.8617811232574581     
  0.12809999999999999          1.7954450771913244     
  0.12840000000000001          1.6419572077159224     
  0.12869999999999998          1.4083509687956681     
  0.12900000000000000          1.1047433752015690     
  0.12930000000000003         0.74325075929657203     
  0.12959999999999999         0.33655987722067948     
  0.12990000000000002        -0.10289290894376268     
  0.13019999999999998        -0.56340809877961107     
  0.13050000000000000         -1.0346173270022234     
  0.13080000000000003         -1.5070050429078350     
  0.13109999999999999         -1.9711861052323911     
  0.13140000000000002         -2.4176253110621673     
  0.13169999999999998         -2.8354941451877806     
  0.13200000000000001         -3.2127079049433860     
  0.13229999999999997         -3.5358334655988273     
  0.13260000000000000         -3.7902479752759604     
  0.13290000000000002         -3.9619722223814762     
  0.13319999999999999         -4.0378984395495792     
  0.13350000000000001         -4.0079985614422213     
  0.13380000000000003         -3.8667675014894627     
  0.13410000000000000         -3.6143373491414934     
  0.13440000000000002         -3.2579634877344290     
  0.13469999999999999         -2.8106910860013414     
  0.13500000000000001         -2.2920387429334355     
  0.13529999999999998         -1.7254886720966205     
  0.13560000000000000         -1.1373811949927486     
  0.13590000000000002        -0.55409391543862441     
  0.13619999999999999          1.1342106265654905E-003
  0.13650000000000001         0.50912235906698378     
  0.13680000000000003         0.95795777053897169     
  0.13710000000000000          1.3432186370984667     
  0.13740000000000002          1.6682649933459928     
  0.13769999999999999          1.9441657023846517     
  0.13800000000000001          2.1869603255295260     
  0.13829999999999998          2.4167544324860728     
  0.13860000000000000          2.6538233052381912     
  0.13890000000000002          2.9165326331559669     
  0.13919999999999999          3.2188844808970316     
  0.13950000000000001          3.5677704097309544     
  0.13979999999999998          3.9626395081235728     
  0.14010000000000000          4.3938301727767168     
  0.14040000000000002          4.8437112817387913     
  0.14069999999999999          5.2873602353679416     
  0.14100000000000001          5.6944796369485005     
  0.14130000000000004          6.0318675885460777     
  0.14160000000000000          6.2656425367951556     
  0.14189999999999997          6.3636930175530892     
  0.14219999999999999          6.2979123560906629     
  0.14250000000000002          6.0464968313199421     
  0.14279999999999998          5.5946250506347397     
  0.14310000000000000          4.9360179431426410     
  0.14339999999999997          4.0728506390385775     
  0.14369999999999999          3.0162837764146246     
  0.14400000000000002          1.7854640606549737     
  0.14429999999999998         0.40773513754733415     
  0.14460000000000001         -1.0824162117505356     
  0.14490000000000003         -2.6445364353832375     
  0.14520000000000000         -4.2327457855698043     
  0.14550000000000002         -5.7977142494971190     
  0.14579999999999999         -7.2882297930409266     
  0.14610000000000001         -8.6516581098399570     
  0.14640000000000003         -9.8372545366921145     
  0.14670000000000000         -10.798014135723633     
  0.14699999999999996         -11.491810711878600     
  0.14729999999999999         -11.885016696982291     
  0.14760000000000001         -11.953019839473200     
  0.14789999999999998         -11.681996159765134     
  0.14820000000000000         -11.070687376038137     