  -1.4999999999999999E-002     0.0000000000000000     
  -1.4700000000000000E-002     0.0000000000000000     
  -1.4400000000000000E-002     0.0000000000000000     
  -1.4100000000000000E-002     0.0000000000000000     
  -1.3800000000000000E-002     0.0000000000000000     
  -1.3500000000000000E-002     0.0000000000000000     
  -1.3200000000000000E-002     0.0000000000000000     
  -1.2899999999999998E-002     0.0000000000000000     
  -1.2600000000000000E-002     0.0000000000000000     
  -1.2299999999999998E-002     0.0000000000000000     
  -1.2000000000000000E-002     0.0000000000000000     
  -1.1699999999999999E-002     0.0000000000000000     
  -1.1399999999999999E-002     0.0000000000000000     
  -1.1099999999999999E-002     0.0000000000000000     
  -1.0799999999999999E-002     0.0000000000000000     
  -1.0499999999999999E-002     0.0000000000000000     
  -1.0199999999999999E-002     0.0000000000000000     
  -9.8999999999999991E-003     0.0000000000000000     
  -9.5999999999999992E-003     0.0000000000000000     
  -9.2999999999999992E-003     0.0000000000000000     
  -8.9999999999999993E-003     0.0000000000000000     
  -8.6999999999999994E-003     0.0000000000000000     
  -8.3999999999999995E-003     0.0000000000000000     
  -8.0999999999999996E-003     0.0000000000000000     
  -7.7999999999999988E-003     0.0000000000000000     
  -7.4999999999999997E-003     0.0000000000000000     
  -7.1999999999999998E-003     0.0000000000000000     
  -6.8999999999999981E-003     0.0000000000000000     
  -6.5999999999999982E-003     0.0000000000000000     
  -6.3000000000000000E-003     0.0000000000000000     
  -6.0000000000000001E-003     0.0000000000000000     
  -5.6999999999999985E-003     0.0000000000000000     
  -5.3999999999999986E-003     0.0000000000000000     
  -5.1000000000000004E-003     0.0000000000000000     
  -4.7999999999999987E-003     1.0571709155397813E-038
  -4.5000000000000005E-003    -7.2070405526443959E-038
  -4.1999999999999989E-003    -7.9384809158225318E-037
  -3.8999999999999990E-003     1.2103249823933057E-036
  -3.5999999999999990E-003     4.8008346446292860E-036
  -3.2999999999999991E-003    -5.4994693561376358E-035
  -2.9999999999999992E-003     7.8281222114752592E-035
  -2.6999999999999993E-003     8.1519798902649098E-034
  -2.3999999999999994E-003    -4.3616648585078146E-033
  -2.0999999999999977E-003     4.8062321307018747E-033
  -1.7999999999999995E-003     3.6928539871231796E-032
  -1.4999999999999979E-003    -1.4547449580194406E-031
  -1.1999999999999997E-003     8.1766106615225417E-032
  -8.9999999999999976E-004     4.8655595454100865E-031
  -5.9999999999999810E-004    -2.6241279400460862E-031
  -2.9999999999999992E-004    -3.1489125758529558E-030
   0.0000000000000000         -2.3665189405454177E-032
   3.0000000000000165E-004     5.0497156818757579E-029
   5.9999999999999984E-004    -1.7984688768756225E-028
   9.0000000000000149E-004     1.8301112227286325E-028
   1.2000000000000031E-003     8.4167586475885564E-028
   1.5000000000000013E-003    -4.4766463675296071E-027
   1.8000000000000030E-003     1.0085325753884775E-026
   2.1000000000000012E-003    -6.7296118935727052E-027
   2.3999999999999994E-003    -3.4263055865247463E-026
   2.7000000000000010E-003     1.4449338211610253E-025
   2.9999999999999992E-003    -2.9438568302896469E-025
   3.3000000000000008E-003     2.8446178954297384E-025
   3.6000000000000025E-003     3.1005676640727483E-025
   3.9000000000000007E-003    -1.8929219676950123E-024
   4.2000000000000023E-003     4.0130108834672553E-024
   4.5000000000000005E-003    -4.1532839854791918E-024
   4.7999999999999987E-003    -2.4292061710367284E-024
   5.1000000000000004E-003     1.9360815552387514E-023
   5.4000000000000020E-003    -4.0941777086910530E-023
   5.7000000000000037E-003     4.2154533623095816E-023
   5.9999999999999984E-003     2.3241422283779796E-023
   6.3000000000000000E-003    -2.0184031865530494E-022
   6.6000000000000017E-003     4.8881913533028177E-022
   6.9000000000000034E-003    -7.7133519253481624E-022
   7.2000000000000015E-003     8.8271549699991881E-022
   7.5000000000000032E-003    -1.0713705183611035E-021
   7.8000000000000014E-003     3.4107557987196287E-021
   8.0999999999999996E-003    -1.4085639151184190E-020
   8.4000000000000012E-003     4.1772617604992848E-020
   8.7000000000000029E-003    -7.1560741254809691E-020
   9.0000000000000011E-003    -3.4952102243287156E-020
   9.2999999999999992E-003     7.6236211725573794E-019
   9.6000000000000009E-003    -3.1542802649594200E-018
   9.8999999999999991E-003     8.3869069746968220E-018
   1.0200000000000001E-002    -1.6314923881877047E-017
   1.0500000000000002E-002     2.9324644084702740E-017
   1.0800000000000004E-002    -9.4045380993252856E-017
   1.1099999999999999E-002     4.5099364077582734E-016
   1.1400000000000000E-002    -1.7048336242007276E-015
   1.1700000000000002E-002     3.5566343726524008E-015
   1.2000000000000004E-002     5.0598660610211219E-015
   1.2300000000000002E-002    -8.6438469661843748E-014
   1.2600000000000000E-002     4.5967572453652064E-013
   1.2900000000000002E-002    -1.6007811868204003E-012
   1.3200000000000000E-002     3.6384019659088705E-012
   1.3500000000000002E-002    -2.7941308881347218E-012
   1.3800000000000003E-002    -1.6954552870425222E-011
   1.4100000000000001E-002     8.1825200410986792E-011
   1.4400000000000000E-002    -1.5278276108655246E-010
   1.4700000000000001E-002    -5.9540975474172067E-011
   1.4999999999999999E-002     9.7304390417542636E-010
   1.5300000000000001E-002    -1.5818945422795850E-009
   1.5600000000000003E-002    -2.1239215390840386E-009
   1.5899999999999997E-002     9.3627037152455101E-009
   1.6199999999999999E-002     1.0512487683745034E-009
   1.6500000000000001E-002    -3.8466748970683355E-008
   1.6800000000000002E-002    -1.3739276299799301E-009
   1.7100000000000004E-002     1.2259417656850728E-007
   1.7400000000000006E-002     3.1233771433079069E-008
   1.7700000000000000E-002    -3.3171495944614611E-007
   1.8000000000000002E-002    -2.0692559251621932E-007
   1.8300000000000004E-002     1.0111083070654927E-006
   1.8600000000000005E-002     2.5475007928010417E-006
   1.8900000000000000E-002     3.5811496313117814E-006
   1.9200000000000002E-002     5.6779111966564783E-006
   1.9500000000000003E-002     1.1934132744338157E-005
   1.9799999999999998E-002     2.3671794655674770E-005
   2.0100000000000000E-002     4.0408642738273002E-005
   2.0400000000000001E-002     6.4053113837334854E-005
   2.0700000000000003E-002     1.0127182659013184E-004
   2.0999999999999998E-002     1.6069709851824782E-004
   2.1299999999999999E-002     2.5048621318029055E-004
   2.1600000000000001E-002     3.8217795231108333E-004
   2.1900000000000003E-002     5.7636276347601545E-004
   2.2200000000000004E-002     8.6179156968404363E-004
   2.2500000000000006E-002     1.2718859649377412E-003
   2.2800000000000001E-002     1.8496647830383434E-003
   2.3100000000000002E-002     2.6577803649159987E-003
   2.3400000000000004E-002     3.7797828782759335E-003
   2.3699999999999999E-002     5.3131162247859187E-003
   2.4000000000000000E-002     7.3705577407930101E-003
   2.4300000000000002E-002     1.0092734123290537E-002
   2.4599999999999997E-002     1.3653537591234888E-002
   2.4900000000000005E-002     1.8249097225549349E-002
   2.5200000000000000E-002     2.4085762335383287E-002
   2.5499999999999995E-002     3.1380132674707073E-002
   2.5800000000000003E-002     4.0357563721174161E-002
   2.6099999999999998E-002     5.1232511976686101E-002
   2.6400000000000007E-002     6.4178724840497692E-002
   2.6700000000000002E-002     7.9307503436609750E-002
   2.6999999999999996E-002     9.6649883973888517E-002
   2.7300000000000005E-002    0.11612410496687930     
   2.7600000000000000E-002    0.13749507904854052     
   2.7900000000000008E-002    0.16035039423885866     
   2.8200000000000003E-002    0.18408943821701040     
   2.8499999999999998E-002    0.20791127928088304     
   2.8800000000000006E-002    0.23079652645525428     
   2.9100000000000001E-002    0.25152016822103640     
   2.9400000000000003E-002    0.26871538254612304     
   2.9700000000000004E-002    0.28093199801037017     
   3.0000000000000006E-002    0.28668152374819833     
   3.0300000000000001E-002    0.28451937353357160     
   3.0600000000000002E-002    0.27320066578390900     
   3.0900000000000004E-002    0.25178225033472668     
   3.1199999999999999E-002    0.21969463370269260     
   3.1500000000000007E-002    0.17684094448964771     
   3.1800000000000002E-002    0.12368148428248427     
   3.2099999999999997E-002     6.1295392000770610E-002
   3.2400000000000005E-002    -8.6464771165609688E-003
   3.2700000000000000E-002    -8.3984282885732675E-002
   3.3000000000000002E-002   -0.16213874743074808     
   3.3300000000000003E-002   -0.24027861188567368     
   3.3599999999999998E-002   -0.31547748631905570     
   3.3900000000000000E-002   -0.38495652224846921     
   3.4200000000000001E-002   -0.44637144821869335     
   3.4500000000000003E-002   -0.49798005866255934     
   3.4799999999999998E-002   -0.53882558984867046     
   3.5099999999999999E-002   -0.56892964067262142     
   3.5400000000000001E-002   -0.58929067494879206     
   3.5699999999999996E-002   -0.60188963184082311     
   3.6000000000000004E-002   -0.60952205882557919     
   3.6299999999999999E-002   -0.61559941455081457     
   3.6600000000000008E-002   -0.62384818649766061     
   3.6900000000000002E-002   -0.63783184594089093     
   3.7199999999999997E-002   -0.66051074162731283     
   3.7500000000000006E-002   -0.69389617078262233     
   3.7800000000000000E-002   -0.73855255776159723     
   3.8100000000000009E-002   -0.79325094248713413     
   3.8400000000000004E-002   -0.85477846026660487     
   3.8699999999999998E-002   -0.91787883671135617     
   3.9000000000000007E-002   -0.97548870337686466     
   3.9300000000000002E-002    -1.0189448151884335     
   3.9600000000000003E-002    -1.0385056997684572     
   3.9900000000000005E-002    -1.0241524078204023     
   4.0200000000000000E-002   -0.96639090644416470     
   4.0500000000000001E-002   -0.85705633212358379     
   4.0800000000000003E-002   -0.69024516877360753     
   4.1100000000000005E-002   -0.46309713018570164     
   4.1399999999999999E-002   -0.17653790651729118     
   4.1700000000000008E-002    0.16440484008438627     
   4.2000000000000003E-002    0.55040385748942633     
   4.2299999999999997E-002    0.96796954656731415     
   4.2600000000000006E-002     1.3999390685242474     
   4.2900000000000001E-002     1.8261879728480466     
   4.3200000000000002E-002     2.2248118045814209     
   4.3500000000000004E-002     2.5733934132785521     
   4.3799999999999999E-002     2.8503085901546967     
   4.4100000000000000E-002     3.0362700473473438     
   4.4400000000000002E-002     3.1157739194353411     
   4.4700000000000004E-002     3.0782281454688700     
   4.4999999999999998E-002     2.9189974048141494     
   4.5300000000000000E-002     2.6400114902074989     
   4.5600000000000002E-002     2.2500366030004457     
   4.5899999999999996E-002     1.7643114399325484     
   4.6200000000000005E-002     1.2037863204271364     
   4.6500000000000000E-002    0.59420105237991017     
   4.6799999999999994E-002    -3.5413327402375572E-002
   4.7100000000000003E-002   -0.65443825774396558     
   4.7399999999999998E-002    -1.2325978981607122     
   4.7700000000000006E-002    -1.7418806029906690     
   4.8000000000000001E-002    -2.1579790571874184     
   4.8300000000000010E-002    -2.4618017292005447     
   4.8600000000000004E-002    -2.6406757448378357     
   4.8899999999999999E-002    -2.6889411736597992     
   4.9200000000000008E-002    -2.6082772356427597     
   4.9500000000000002E-002    -2.4073960327775197     
   4.9800000000000011E-002    -2.1012600014962715     
   5.0100000000000006E-002    -1.7103439784039196     
   5.0400000000000000E-002    -1.2592436192418290     
   5.0700000000000009E-002   -0.77495753440687221     
   5.1000000000000004E-002   -0.28544918367737004     
   5.1299999999999998E-002    0.18194257631372812     
   5.1600000000000007E-002    0.60209923563584766     
   5.1900000000000002E-002    0.95354369176695997     
   5.2200000000000010E-002     1.2197822849099254     
   5.2500000000000005E-002     1.3898479541031179     
   5.2800000000000000E-002     1.4588455914747840     
   5.3099999999999994E-002     1.4285169913022884     
   5.3400000000000003E-002     1.3067641608914613     
   5.3699999999999998E-002     1.1069253535657353     
   5.4000000000000006E-002    0.84683257364791942     
   5.4300000000000001E-002    0.54749085707484912     
   5.4599999999999996E-002    0.23212138090776158     
   5.4900000000000004E-002    -7.5835082594671421E-002
   5.5199999999999999E-002   -0.35449420181726410     
   5.5499999999999994E-002   -0.58447910773127276     
   5.5800000000000002E-002   -0.75017065363126179     
   5.6099999999999997E-002   -0.84083865133478497     
   5.6400000000000006E-002   -0.85118921130950298     
   5.6700000000000000E-002   -0.78141878565320866     
   5.6999999999999995E-002   -0.63698479279989861     
   5.7300000000000004E-002   -0.42792492627904632     
   5.7599999999999998E-002   -0.16839088147783343     
   5.7900000000000007E-002    0.12450547366241249     
   5.8200000000000002E-002    0.43206531422750949     
   5.8499999999999996E-002    0.73519020037131710     
   5.8800000000000005E-002     1.0154381091702298     
   5.9100000000000000E-002     1.2559421295404150     
   5.9400000000000008E-002     1.4425233880228348     
   5.9700000000000003E-002     1.5645724001508370     
   6.0000000000000012E-002     1.6151471571032587     
   6.0300000000000006E-002     1.5908978430690226     
   6.0600000000000001E-002     1.4923104710939157     
   6.0900000000000010E-002     1.3234244908801536     
   6.1200000000000004E-002     1.0912135724286252     
   6.1500000000000013E-002    0.80443456461949958     
   6.1800000000000008E-002    0.47325510055215325     
   6.2100000000000002E-002    0.10881681683773614     
   6.2399999999999997E-002   -0.27744576443345981     
   6.2700000000000006E-002   -0.67451198110007482     
   6.3000000000000000E-002    -1.0716258692142091     
   6.3300000000000009E-002    -1.4582265655641748     
   6.3600000000000004E-002    -1.8234963729123095     
   6.3899999999999998E-002    -2.1564085143972846     
   6.4199999999999993E-002    -2.4459587140010228     
   6.4500000000000002E-002    -2.6802470366567093     
   6.4800000000000010E-002    -2.8468466109220287     
   6.5100000000000005E-002    -2.9340381264928794     
   6.5400000000000000E-002    -2.9312416137702115     
   6.5700000000000008E-002    -2.8301168962626519     
   6.5999999999999989E-002    -2.6261621464166325     
   6.6299999999999998E-002    -2.3198302479103674     
   6.6600000000000006E-002    -1.9179987292139415     
   6.6900000000000001E-002    -1.4343685319666291     
   6.7199999999999996E-002   -0.88936643308874430     
   6.7500000000000004E-002   -0.31006135145680069     
   6.7800000000000013E-002    0.27163327481834143     
   6.8099999999999994E-002    0.82080912724241273     
   6.8400000000000002E-002     1.3019315348086167     
   6.8700000000000011E-002     1.6823938536229832     
   6.8999999999999992E-002     1.9350409802759927     
   6.9300000000000000E-002     2.0404692710541141     
   6.9600000000000009E-002     1.9895840643274383     
   6.9900000000000004E-002     1.7843737293439546     
   7.0199999999999999E-002     1.4389081576159057     
   7.0500000000000007E-002    0.97825679342100003     
   7.0800000000000016E-002    0.43634437706396767     
   7.1099999999999997E-002   -0.14605299120372894     
   7.1400000000000005E-002   -0.72423695699345103     
   7.1700000000000000E-002    -1.2533007411140389     
   7.1999999999999995E-002    -1.6916803999746435     
   7.2300000000000003E-002    -2.0042376026581081     
   7.2600000000000012E-002    -2.1644484105722341     
   7.2900000000000006E-002    -2.1564742456611157     
   7.3200000000000001E-002    -1.9767849481397590     
   7.3499999999999996E-002    -1.6336026459531183     
   7.3800000000000004E-002    -1.1459941608952935     
   7.4099999999999999E-002   -0.54251903878113694     
   7.4400000000000008E-002    0.14046477872192975     
   7.4700000000000003E-002    0.86177353735831730     
   7.5000000000000011E-002     1.5786463990790196     
   7.5299999999999992E-002     2.2495611400793365     
   7.5600000000000001E-002     2.8362375069243768     
   7.5900000000000009E-002     3.3065285339339567     
   7.6200000000000004E-002     3.6367524784483578     
   7.6499999999999999E-002     3.8123618322894970     
   7.6800000000000007E-002     3.8288167093797085     
   7.7099999999999988E-002     3.6921409721454239     
   7.7399999999999997E-002     3.4175908387942826     
   7.7700000000000005E-002     3.0283994198366813     
   7.8000000000000014E-002     2.5541175687863245     
   7.8299999999999995E-002     2.0287326938226080     
   7.8600000000000003E-002     1.4876384324078984     
   7.8900000000000012E-002    0.96456678576728505     
   7.9199999999999993E-002    0.48999467310527511     
   7.9500000000000001E-002     8.9186588234793085E-002
   7.9800000000000010E-002   -0.22036402254061827     
   8.0100000000000018E-002   -0.42977824367151074     
   8.0399999999999999E-002   -0.53851030848784021     
   8.0700000000000008E-002   -0.55392476511656064     
   8.1000000000000003E-002   -0.49074597015440347     
   8.1299999999999997E-002   -0.36912638572348300     
   8.1600000000000006E-002   -0.21265536210538016     
   8.1900000000000014E-002    -4.5754848246943425E-002
   8.2199999999999995E-002    0.10817296556409595     
   8.2500000000000004E-002    0.22850184127662576     
   8.2799999999999999E-002    0.29911871961701841     
   8.3100000000000007E-002    0.30977235598686814     
   8.3400000000000002E-002    0.25660232217553602     
   8.3700000000000011E-002    0.14165133400985974     
   8.4000000000000005E-002    -2.7993951023981611E-002
   8.4300000000000000E-002   -0.24013655937172018     
   8.4599999999999995E-002   -0.47929432580283482     
   8.4900000000000003E-002   -0.72887863621778592     
   8.5199999999999998E-002   -0.97193690827534240     
   8.5500000000000007E-002    -1.1927385204836796     
   8.5800000000000001E-002    -1.3785063085669051     
   8.6100000000000010E-002    -1.5206482849448832     
   8.6399999999999991E-002    -1.6152803882120992     
   8.6699999999999999E-002    -1.6638379727542514     
   8.7000000000000008E-002    -1.6731296010011150     
   8.7300000000000003E-002    -1.6551148086059300     
   8.7599999999999997E-002    -1.6258754803554041     
   8.7900000000000006E-002    -1.6042022780520000     
   8.8200000000000014E-002    -1.6098775009359869     
   8.8499999999999995E-002    -1.6619034962923394     
   8.8800000000000004E-002    -1.7764315460478244     
   8.9100000000000013E-002    -1.9642177469146276     
   8.9399999999999993E-002    -2.2286699861577119     
   8.9700000000000002E-002    -2.5656497006142729     
   9.0000000000000011E-002    -2.9624008972198226     
   9.0299999999999991E-002    -3.3969674677288850     
   9.0600000000000000E-002    -3.8400610348048758     
   9.0900000000000009E-002    -4.2572296919096004     
   9.1200000000000017E-002    -4.6107088286086650     
   9.1499999999999998E-002    -4.8618169188328864     
   9.1800000000000007E-002    -4.9742778016689897     
   9.2100000000000001E-002    -4.9176219550261351     
   9.2399999999999996E-002    -4.6689868400266334     
   9.2700000000000005E-002    -4.2140764923714400     
   9.3000000000000013E-002    -3.5488377130793332     
   9.3300000000000008E-002    -2.6800560594810747     
   9.3600000000000003E-002    -1.6245289191238328     
   9.3899999999999997E-002   -0.40760921703386543     
   9.4200000000000006E-002    0.93782447858441387     
   9.4500000000000001E-002     2.3727092571381405     
   9.4800000000000009E-002     3.8529957866066553     
   9.5100000000000004E-002     5.3321494367798721     
   9.5399999999999999E-002     6.7631075631149145     
   9.5699999999999993E-002     8.0978259824437657     
   9.6000000000000002E-002     9.2888752096866369     
   9.6300000000000011E-002     10.292129829193470     
   9.6600000000000005E-002     11.067500559335258     
   9.6900000000000000E-002     11.579745867905785     
   9.7200000000000009E-002     11.799537925667664     
   9.7499999999999989E-002     11.706250755223948     
   9.7799999999999998E-002     11.289062557697491     
   9.8100000000000007E-002     10.546432985994954     
   9.8400000000000015E-002     9.4875552685276432     
   9.8699999999999996E-002     8.1331774007447777     
   9.9000000000000005E-002     6.5145142684251951     
   9.9300000000000013E-002     4.6719242466853501     
   9.9599999999999994E-002     2.6544168991650139     
   9.9900000000000003E-002    0.51807843079397031     
  0.10020000000000001         -1.6761117607080589     
  0.10049999999999999         -3.8636360388714195     
  0.10080000000000000         -5.9779411392977124     
  0.10110000000000001         -7.9525026275280482     
  0.10140000000000000         -9.7223711449721577     
  0.10170000000000000         -11.225554536049117     
  0.10200000000000001         -12.404628309372356     
  0.10230000000000002         -13.209722890752744     
  0.10260000000000000         -13.600312307844035     
  0.10290000000000001         -13.547280484811040     
  0.10320000000000000         -13.036648022922463     
  0.10350000000000001         -12.071077555122656     
  0.10380000000000000         -10.672144919577534     
  0.10410000000000001         -8.8821119447970780     
  0.10440000000000001         -6.7633256392131926     
  0.10470000000000000         -4.3971670213612981     
  0.10500000000000000         -1.8809039801417100     
  0.10530000000000000         0.67643390023817318     
  0.10560000000000000          3.1588837768950810     
  0.10590000000000001          5.4513131028875534     
  0.10620000000000000          7.4468221496926219     
  0.10650000000000001          9.0517904129723661     
  0.10679999999999999          10.192482257225265     
  0.10710000000000000          10.821219983712240     
  0.10740000000000001          10.918104538805409     
  0.10770000000000000          10.491496352746736     
  0.10800000000000000          9.5785632044271978     
  0.10830000000000001          8.2418725676756424     
  0.10859999999999999          6.5647114394806039     
  0.10890000000000000          4.6451771409214189     
  0.10920000000000001          2.5906336660649600     
  0.10950000000000001         0.51158646198297220     
  0.10979999999999999         -1.4858665430920599     
  0.11009999999999999         -3.3044082788140798     
  0.11040000000000001         -4.8598694513370617     
  0.11070000000000001         -6.0863990832622790     
  0.11100000000000000         -6.9373210582694469     
  0.11130000000000000         -7.3868778826433186     
  0.11160000000000002         -7.4315492499021190     
  0.11190000000000001         -7.0885834042214952     
  0.11220000000000001         -6.3945773825372534     
  0.11250000000000000         -5.4030754921135316     
  0.11280000000000000         -4.1820125146315306     
  0.11309999999999999         -2.8094453276081879     
  0.11340000000000001         -1.3686058245211541     
  0.11369999999999998          5.5489151249364710E-002
  0.11400000000000000          1.3815888325615653     
  0.11430000000000000          2.5378092995740431     
  0.11460000000000002          3.4646226024494240     
  0.11489999999999999          4.1185766017491972     
  0.11520000000000001          4.4761254404544957     
  0.11550000000000001          4.5341073897035145     
  0.11580000000000000          4.3085214415009112     
  0.11609999999999999          3.8347240622053098     
  0.11640000000000002          3.1645805964470384     
  0.11670000000000001          2.3611766743545211     
  0.11700000000000001          1.4945346563878772     
  0.11730000000000000         0.63631690893224402     
  0.11760000000000000        -0.14517143807412047     
  0.11789999999999999        -0.79115951724786093     
  0.11820000000000001         -1.2561040132284216     
  0.11850000000000001         -1.5104757271264520     
  0.11880000000000000         -1.5437920695319445     
  0.11910000000000000         -1.3636852669049624     
  0.11940000000000002        -0.99503582656464573     
  0.11970000000000001        -0.47869532501993817     
  0.12000000000000001         0.13421553558447474     
  0.12030000000000000         0.78638645675679264     
  0.12060000000000000          1.4182129684332025     
  0.12089999999999999          1.9735232463820225     
  0.12119999999999999          2.4049809728112805     
  0.12150000000000001          2.6770993097022142     
  0.12180000000000001          2.7679803503660274     
  0.12210000000000000          2.6715762929666411     
  0.12239999999999999          2.3982242360670565     
  0.12270000000000002          1.9715200752002975     
  0.12300000000000001          1.4256085013407080     
  0.12330000000000001         0.80330305190387463     
  0.12360000000000000         0.15112365026311991     
  0.12390000000000000        -0.48627876423550376     
  0.12419999999999999         -1.0685722333476662     
  0.12450000000000001         -1.5629941309619255     
  0.12480000000000001         -1.9476224713285646     
  0.12509999999999999         -2.2117188521920141     
  0.12540000000000001         -2.3569729246828288     
  0.12570000000000003         -2.3955687973190010     
  0.12600000000000000         -2.3476639506765338     
  0.12630000000000002         -2.2393957001708600     
  0.12659999999999999         -2.0995828333782072     
  0.12690000000000001         -1.9564300182197840     
  0.12719999999999998         -1.8336879052166921     
  0.12750000000000000         -1.7482892519763169     
  0.12780000000000002         -1.7107033578604600     
  0.12809999999999999         -1.7219352535468389     
  0.12840000000000001         -1.7731515141804408     
  0.12869999999999998         -1.8492912257609291     
  0.12900000000000000         -1.9299606986172435     
  0.12930000000000003         -1.9906968032703176     
  0.12959999999999999         -2.0070645833280167     
  0.12990000000000002         -1.9574225283577178     
  0.13019999999999998         -1.8247586000837828     
  0.13050000000000000         -1.5985606897465239     
  0.13080000000000003         -1.2765239098159400     
  0.13109999999999999        -0.86530256000281369     
  0.13140000000000002        -0.37891361526473943     
  0.13169999999999998         0.16206610406815969     
  0.13200000000000001         0.73117178231910174     
  0.13229999999999997          1.2996283077049000     
  0.13260000000000000          1.8389292491638969     
  0.13290000000000002          2.3216785285598434     
  0.13319999999999999          2.7254812275158997     
  0.13350000000000001          3.0335204210864077     
  0.13380000000000003          3.2347052555387421     
  0.13410000000000000          3.3262132422862578     
  0.13440000000000002          3.3115317664789501     
  0.13469999999999999          3.1990284684279686     
  0.13500000000000001          3.0023840562215156     
  0.13529999999999998          2.7387150949553245     
  0.13560000000000000          2.4266928994657349     
  0.13590000000000002          2.0841512431527320     
  0.13619999999999999          1.7286996747957346     
  0.13650000000000001          1.3778523017100035     
  0.13680000000000003          1.0450450730550251     
  0.13710000000000000         0.74071191855922391     
  0.13740000000000002         0.47427438773683228     
  0.13769999999999999         0.25203749146732513     
  0.13800000000000001          7.7122551632856862E-002
  0.13829999999999998         -4.9613712362087226E-002
  0.13860000000000000        -0.12961077816115307     
  0.13890000000000002        -0.16733466020291932     
  0.13919999999999999        -0.16972184071317065     
  0.13950000000000001        -0.14518047339849049     
  0.13979999999999998        -0.10373663720286785     
  0.14010000000000000         -5.7695981658756557E-002
  0.14040000000000002         -1.9749047392807029E-002
  0.14069999999999999         -1.0917447049472173E-003
  0.14100000000000001         -1.2688216683963471E-002
  0.14130000000000004         -6.4086695082345546E-002
  0.14160000000000000        -0.16155072403050041     
  0.14189999999999997        -0.30879044233720876     
  0.14219999999999999        -0.50650385359721817     
  0.14250000000000002        -0.75235798395508269     
  0.14279999999999998         -1.0417491906464598     
  0.14310000000000000         -1.3668025441895182     
  0.14339999999999997         -1.7178265720184456     
  0.14369999999999999         -2.0833710797185176     
  0.14400000000000002         -2.4501721842874531     
  0.14429999999999998         -2.8038146646451025     
  0.14460000000000001         -3.1283387561864089     
  0.14490000000000003         -3.4076616176560890     
  0.14520000000000000         -3.6264928857580117     
  0.14550000000000002         -3.7697004058519781     
  0.14579999999999999         -3.8246983224769480     
  0.14610000000000001         -3.7830341273254788     
  0.14640000000000003         -3.6405060305942385     
  0.14670000000000000         -3.3985266437319552     
  0.14699999999999996         -3.0642413649396545     
  0.14729999999999999         -2.6497586214037767     
  0.14760000000000001         -2.1724369923807600     
  0.14789999999999998         -1.6521637331388028     
  0.14820000000000000         -1.1089494563758642     