  -1.4999999999999999E-002     0.0000000000000000     
  -1.4700000000000000E-002     0.0000000000000000     
  -1.4400000000000000E-002     0.0000000000000000     
  -1.4100000000000000E-002     0.0000000000000000     
  -1.3800000000000000E-002     0.0000000000000000     
  -1.3500000000000000E-002     0.0000000000000000     
  -1.3200000000000000E-002     0.0000000000000000     
  -1.2899999999999998E-002    -1.5951843619263417E-036
  -1.2600000000000000E-002     9.5721487442209357E-036
  -1.2299999999999998E-002    -1.6384263540318976E-034
  -1.2000000000000000E-002     5.4354979384556118E-033
  -1.1699999999999999E-002    -4.9885948677313588E-033
  -1.1399999999999999E-002    -1.1141108360861756E-030
  -1.1099999999999999E-002     9.2104738918469934E-030
  -1.0799999999999999E-002     7.9043173727608717E-029
  -1.0499999999999999E-002    -2.5955588314611419E-027
  -1.0199999999999999E-002     3.0675005902874169E-026
  -9.8999999999999991E-003    -2.1506522818096357E-025
  -9.5999999999999992E-003     9.5368285755676442E-025
  -9.2999999999999992E-003    -2.4100170741956654E-024
  -8.9999999999999993E-003    -4.0112337603115777E-025
  -8.6999999999999994E-003     3.9489212909126466E-023
  -8.3999999999999995E-003    -2.3887023600111955E-022
  -8.0999999999999996E-003     9.2666476191590151E-022
  -7.7999999999999988E-003    -2.6908230776377188E-021
  -7.4999999999999997E-003     6.2737936546933228E-021
  -7.1999999999999998E-003    -1.2694505743317831E-020
  -6.8999999999999981E-003     2.5656108181779715E-020
  -6.5999999999999982E-003    -6.1490214443898873E-020
  -6.3000000000000000E-003     1.5150196813835111E-019
  -6.0000000000000001E-003    -1.9297381346365699E-019
  -5.6999999999999985E-003    -6.9010245893472875E-019
  -5.3999999999999986E-003     5.2645953272427162E-018
  -5.1000000000000004E-003    -1.7857193874967223E-017
  -4.7999999999999987E-003     3.7083636702730172E-017
  -4.5000000000000005E-003    -3.4388653673135561E-017
  -4.1999999999999989E-003    -7.7493258775771305E-017
  -3.8999999999999990E-003     4.4488418214771038E-016
  -3.5999999999999990E-003    -1.1579572067421308E-015
  -3.2999999999999991E-003     1.9579386558557483E-015
  -2.9999999999999992E-003    -1.8713938010410983E-015
  -2.6999999999999993E-003    -7.9361028266618799E-016
  -2.3999999999999994E-003     7.3927195460464295E-015
  -2.0999999999999977E-003    -1.6659645518952547E-014
  -1.7999999999999995E-003     2.2806447408931592E-014
  -1.4999999999999979E-003    -1.7135949411424997E-014
  -1.1999999999999997E-003    -6.0990900004009120E-015
  -8.9999999999999976E-004     4.6346110691833039E-014
  -5.9999999999999810E-004    -1.0603800002471594E-013
  -2.9999999999999992E-004     2.0392709783162707E-013
   0.0000000000000000         -3.4876443157475700E-013
   3.0000000000000165E-004     4.4242996905737166E-013
   5.9999999999999984E-004    -2.0813048674535816E-013
   9.0000000000000149E-004    -6.1638424070595240E-013
   1.2000000000000031E-003     1.7235785181882825E-012
   1.5000000000000013E-003    -1.8073974758632929E-012
   1.8000000000000030E-003    -7.1502107328107439E-013
   2.1000000000000012E-003     5.2212679300393879E-012
   2.3999999999999994E-003    -6.0552330283372020E-012
   2.7000000000000010E-003    -5.3440771321974713E-012
   2.9999999999999992E-003     2.7531346211123604E-011
   3.3000000000000008E-003    -4.5419519211620327E-011
   3.6000000000000025E-003     1.1634378191523726E-010
   3.9000000000000007E-003    -5.4260557527527732E-010
   4.2000000000000023E-003     1.4631068714577630E-009
   4.5000000000000005E-003    -4.6644091204295456E-010
   4.7999999999999987E-003    -9.5564579727854171E-009
   5.1000000000000004E-003     2.7846395295994314E-008
   5.4000000000000020E-003    -7.0324891190562049E-009
   5.7000000000000037E-003    -1.2858953051674839E-007
   5.9999999999999984E-003     2.1619694566885022E-007
   6.3000000000000000E-003     3.1817334866603478E-007
   6.6000000000000017E-003    -1.1340491415697346E-006
   6.9000000000000034E-003    -8.4314667448511031E-007
   7.2000000000000015E-003     3.7805243587507229E-006
   7.5000000000000032E-003     3.0324782438509684E-006
   7.8000000000000014E-003    -9.7312129194443290E-006
   8.0999999999999996E-003    -1.1363687197767298E-005
   8.4000000000000012E-003     2.7347836426408218E-005
   8.7000000000000029E-003     9.1173513463727214E-005
   9.0000000000000011E-003     1.4014791223799106E-004
   9.2999999999999992E-003     1.8452935845021147E-004
   9.6000000000000009E-003     2.9076294284913033E-004
   9.8999999999999991E-003     5.0398665407428225E-004
   1.0200000000000001E-002     8.1778385227856965E-004
   1.0500000000000002E-002     1.2444914922929359E-003
   1.0800000000000004E-002     1.8778196598133595E-003
   1.1099999999999999E-002     2.8616600397272929E-003
   1.1400000000000000E-002     4.3252868177005854E-003
   1.1700000000000002E-002     6.4034643033416550E-003
   1.2000000000000004E-002     9.3325294628439082E-003
   1.2300000000000002E-002     1.3464729775837736E-002
   1.2600000000000000E-002     1.9185751676532803E-002
   1.2900000000000002E-002     2.6918713249592829E-002
   1.3200000000000000E-002     3.7225242300787498E-002
   1.3500000000000002E-002     5.0803557116804177E-002
   1.3800000000000003E-002     6.8364489081782054E-002
   1.4100000000000001E-002     9.0605770348644921E-002
   1.4400000000000000E-002    0.11828893274442054     
   1.4700000000000001E-002    0.15217198451568681     
   1.4999999999999999E-002    0.19279870307935987     
   1.5300000000000001E-002    0.24037302017513618     
   1.5600000000000003E-002    0.29474209325036682     
   1.5899999999999997E-002    0.35531679338090427     
   1.6199999999999999E-002    0.42087020156660415     
   1.6500000000000001E-002    0.48932605042615229     
   1.6800000000000002E-002    0.55775073431262001     
   1.7100000000000004E-002    0.62251425276974715     
   1.7400000000000006E-002    0.67925946159954265     
   1.7700000000000000E-002    0.72289237164049780     
   1.8000000000000002E-002    0.74796198550834347     
   1.8300000000000004E-002    0.74918989034600614     
   1.8600000000000005E-002    0.72180454056789145     
   1.8900000000000000E-002    0.66185842712604170     
   1.9200000000000002E-002    0.56692870287375285     
   1.9500000000000003E-002    0.43688291666086698     
   1.9799999999999998E-002    0.27410958091721072     
   2.0100000000000000E-002     8.3413843806442678E-002
   2.0400000000000001E-002   -0.12773633847288579     
   2.0700000000000003E-002   -0.34918708444208946     
   2.0999999999999998E-002   -0.56868496875491914     
   2.1299999999999999E-002   -0.77289624876224394     
   2.1600000000000001E-002   -0.94856447619539708     
   2.1900000000000003E-002    -1.0833105404838292     
   2.2200000000000004E-002    -1.1666873336376469     
   2.2500000000000006E-002    -1.1917003456375568     
   2.2800000000000001E-002    -1.1558816234385105     
   2.3100000000000002E-002    -1.0616221904098992     
   2.3400000000000004E-002   -0.91617869302967492     
   2.3699999999999999E-002   -0.73177964650774818     
   2.4000000000000000E-002   -0.52532174556693345     
   2.4300000000000002E-002   -0.31671722699775318     
   2.4599999999999997E-002   -0.12711912462370734     
   2.4900000000000005E-002     2.2134768388890502E-002
   2.5200000000000000E-002    0.11130318515855242     
   2.5499999999999995E-002    0.12426902011173846     
   2.5800000000000003E-002     5.0166605539768261E-002
   2.6099999999999998E-002   -0.11583964036801042     
   2.6400000000000007E-002   -0.37188573126730518     
   2.6700000000000002E-002   -0.70902200391514825     
   2.6999999999999996E-002    -1.1115783522342610     
   2.7300000000000005E-002    -1.5581598884452390     
   2.7600000000000000E-002    -2.0228712900516967     
   2.7900000000000008E-002    -2.4769839639260880     
   2.8200000000000003E-002    -2.8906737588796432     
   2.8499999999999998E-002    -3.2347710624665496     
   2.8800000000000006E-002    -3.4827279212686619     
   2.9100000000000001E-002    -3.6123377836157715     
   2.9400000000000003E-002    -3.6067719943497707     
   2.9700000000000004E-002    -3.4558774270909396     
   3.0000000000000006E-002    -3.1567841548661590     
   3.0300000000000001E-002    -2.7138167903564749     
   3.0600000000000002E-002    -2.1382970493542928     
   3.0900000000000004E-002    -1.4484481552158499     
   3.1199999999999999E-002   -0.66855506320124647     
   3.1500000000000007E-002    0.17286316449000116     
   3.1800000000000002E-002     1.0438552980774105     
   3.2099999999999997E-002     1.9100174788842565     
   3.2400000000000005E-002     2.7366216717133085     
   3.2700000000000000E-002     3.4904481766479449     
   3.3000000000000002E-002     4.1405530267726078     
   3.3300000000000003E-002     4.6598982362996821     
   3.3599999999999998E-002     5.0276309721343466     
   3.3900000000000000E-002     5.2301437361194871     
   3.4200000000000001E-002     5.2614783929215889     
   3.4500000000000003E-002     5.1246246328562961     
   3.4799999999999998E-002     4.8323439284296228     
   3.5099999999999999E-002     4.4062066989868356     
   3.5400000000000001E-002     3.8759170638585942     
   3.5699999999999996E-002     3.2778950891854208     
   3.6000000000000004E-002     2.6533825928590886     
   3.6299999999999999E-002     2.0461370889182575     
   3.6600000000000008E-002     1.4987354002382105     
   3.6900000000000002E-002     1.0494919995525365     
   3.7199999999999997E-002    0.73003501256986425     
   3.7500000000000006E-002    0.56295649888951083     
   3.7800000000000000E-002    0.55894426323141921     
   3.8100000000000009E-002    0.71520837213514810     
   3.8400000000000004E-002     1.0162478354179427     
   3.8699999999999998E-002     1.4348514712512497     
   3.9000000000000007E-002     1.9323915559467650     
   3.9300000000000002E-002     2.4612151194516798     
   3.9600000000000003E-002     2.9688035150959706     
   3.9900000000000005E-002     3.4009184656945592     
   4.0200000000000000E-002     3.7039057038206948     
   4.0500000000000001E-002     3.8283979363891731     
   4.0800000000000003E-002     3.7330018021826206     
   4.1100000000000005E-002     3.3862044590862244     
   4.1399999999999999E-002     2.7681612947920300     
   4.1700000000000008E-002     1.8723841690818830     
   4.2000000000000003E-002    0.70729614499185089     
   4.2299999999999997E-002   -0.70404136749508650     
   4.2600000000000006E-002    -2.3234866270862753     
   4.2900000000000001E-002    -4.0977296685338587     
   4.3200000000000002E-002    -5.9596022154923958     
   4.3500000000000004E-002    -7.8301701613617922     
   4.3799999999999999E-002    -9.6209303091587230     
   4.4100000000000000E-002    -11.236959789732737     
   4.4400000000000002E-002    -12.581525223304425     
   4.4700000000000004E-002    -13.561585728497846     
   4.4999999999999998E-002    -14.094151396164534     
   4.5300000000000000E-002    -14.111756917663342     
   4.5600000000000002E-002    -13.568603022897719     
   4.5899999999999996E-002    -12.446212853021763     
   4.6200000000000005E-002    -10.758144450795655     
   4.6500000000000000E-002    -8.5505322894450444     
   4.6799999999999994E-002    -5.9015041578408045     
   4.7100000000000003E-002    -2.9196289472117769     
   4.7399999999999998E-002    0.26231516780227082     
   4.7700000000000006E-002     3.4957817463769700     
   4.8000000000000001E-002     6.6252497961006895     
   4.8300000000000010E-002     9.4986417147851512     
   4.8600000000000004E-002     11.977493791170900     
   4.8899999999999999E-002     13.946191380636833     
   4.9200000000000008E-002     15.319311038595060     
   4.9500000000000002E-002     16.046000439527575     
   4.9800000000000011E-002     16.111910262149479     
   5.0100000000000006E-002     15.537598223353825     
   5.0400000000000000E-002     14.375723165724395     
   5.0700000000000009E-002     12.704620054629800     
   5.1000000000000004E-002     10.619938784366305     
   5.1299999999999998E-002     8.2276617914308403     
   5.1600000000000007E-002     5.6373360616499042     
   5.1900000000000002E-002     2.9547617492447955     
   5.2200000000000010E-002    0.27636917939655348     
   5.2500000000000005E-002    -2.3121289284638458     
   5.2800000000000000E-002    -4.7370886598525033     
   5.3099999999999994E-002    -6.9374636315253326     
   5.3400000000000003E-002    -8.8633148311201637     
   5.3699999999999998E-002    -10.473317085132123     
   5.4000000000000006E-002    -11.732649440606394     
   5.4300000000000001E-002    -12.612938967348157     
   5.4599999999999996E-002    -13.091993081239707     
   5.4900000000000004E-002    -13.153527736388014     
   5.5199999999999999E-002    -12.790211729426801     
   5.5499999999999994E-002    -12.005249026356154     
   5.5800000000000002E-002    -10.815465866865225     
   5.6099999999999997E-002    -9.2537614298505986     
   5.6400000000000006E-002    -7.3687721275424778     
   5.6700000000000000E-002    -5.2257653071170864     
   5.6999999999999995E-002    -2.9054091623842453     
   5.7300000000000004E-002   -0.49977888300468010     
   5.7599999999999998E-002     1.8929519174870464     
   5.7900000000000007E-002     4.1743780475776049     
   5.8200000000000002E-002     6.2510486116660786     
   5.8499999999999996E-002     8.0416749050780538     
   5.8800000000000005E-002     9.4825369699302655     
   5.9100000000000000E-002     10.530660680521805     
   5.9400000000000008E-002     11.167125849545414     
   5.9700000000000003E-002     11.397478437435751     
   6.0000000000000012E-002     11.248480514405117     
   6.0300000000000006E-002     10.765045095729903     
   6.0600000000000001E-002     10.007099202885541     
   6.0900000000000010E-002     9.0424023632343733     
   6.1200000000000004E-002     7.9399106102454482     
   6.1500000000000013E-002     6.7652070572742247     
   6.1800000000000008E-002     5.5758187979951259     
   6.2100000000000002E-002     4.4177205651853200     
   6.2399999999999997E-002     3.3232256319173246     
   6.2700000000000006E-002     2.3103151560722637     
   6.3000000000000000E-002     1.3845750661048566     
   6.3300000000000009E-002    0.54102718204962486     
   6.3600000000000004E-002   -0.23244726020345752     
   6.3899999999999998E-002   -0.95193816571187284     
   6.4199999999999993E-002    -1.6344998867875944     
   6.4500000000000002E-002    -2.2936485037156444     
   6.4800000000000010E-002    -2.9386811995168074     
   6.5100000000000005E-002    -3.5731906540902401     
   6.5400000000000000E-002    -4.1934515469532698     
   6.5700000000000008E-002    -4.7903596883834325     
   6.5999999999999989E-002    -5.3503442654572950     
   6.6299999999999998E-002    -5.8566969067105106     
   6.6600000000000006E-002    -6.2914115807781741     
   6.6900000000000001E-002    -6.6382411563918708     
   6.7199999999999996E-002    -6.8844176467414115     
   6.7500000000000004E-002    -7.0207098978616500     
   6.7800000000000013E-002    -7.0437967399764432     
   6.8099999999999994E-002    -6.9570020119513174     
   6.8400000000000002E-002    -6.7696977150736473     
   6.8700000000000011E-002    -6.4958296326500999     
   6.8999999999999992E-002    -6.1538555314741359     
   6.9300000000000000E-002    -5.7652721306382659     
   6.9600000000000009E-002    -5.3510340754154413     
   6.9900000000000004E-002    -4.9308596223758343     
   7.0199999999999999E-002    -4.5205425327478821     
   7.0500000000000007E-002    -4.1287019348934137     
   7.0800000000000016E-002    -3.7573583276977018     
   7.1099999999999997E-002    -3.4007620831046736     
   7.1400000000000005E-002    -3.0449904595409230     
   7.1700000000000000E-002    -2.6693728952024216     
   7.1999999999999995E-002    -2.2496782856399804     
   7.2300000000000003E-002    -1.7622696974973451     
   7.2600000000000012E-002    -1.1854540235809949     
   7.2900000000000006E-002   -0.50416142193253322     
   7.3200000000000001E-002    0.28660121799780924     
   7.3499999999999996E-002     1.1815971847581164     
   7.3800000000000004E-002     2.1650133294730267     
   7.4099999999999999E-002     3.2129814103756331     
   7.4400000000000008E-002     4.2973824734906003     
   7.4700000000000003E-002     5.3903752843230279     
   7.5000000000000011E-002     6.4697769182108402     
   7.5299999999999992E-002     7.5235514129374792     
   7.5600000000000001E-002     8.5532778484297864     
   7.5900000000000009E-002     9.5732627961014600     
   7.6200000000000004E-002     10.607512169372512     
   7.6499999999999999E-002     11.685085766442398     
   7.6800000000000007E-002     12.829947091799568     
   7.7099999999999988E-002     14.049383121704238     
   7.7399999999999997E-002     15.325062509909799     
   7.7700000000000005E-002     16.604833270290442     
   7.8000000000000014E-002     17.795243340385184     
   7.8299999999999995E-002     18.761025771719972     
   7.8600000000000003E-002     19.332812829647210     
   7.8900000000000012E-002     19.318353849269727     
   7.9199999999999993E-002     18.518930196867700     
   7.9500000000000001E-002     16.753369181780840     
   7.9800000000000010E-002     13.881847821048439     
   8.0100000000000018E-002     9.8292878812860067     
   8.0399999999999999E-002     4.6058420882073960     
   8.0700000000000008E-002    -1.6792474077619630     
   8.1000000000000003E-002    -8.8115382445204915     
   8.1299999999999997E-002    -16.476580834131425     
   8.1600000000000006E-002    -24.275004381558801     
   8.1900000000000014E-002    -31.747132697494294     
   8.2199999999999995E-002    -38.405738942078187     
   8.2500000000000004E-002    -43.774342258082356     
   8.2799999999999999E-002    -47.427086531260898     
   8.3100000000000007E-002    -49.026118573225176     
   8.3400000000000002E-002    -48.352578484002393     
   8.3700000000000011E-002    -45.330224676460148     
   8.4000000000000005E-002    -40.038040770450493     
   8.4300000000000000E-002    -32.706969470413696     
   8.4599999999999995E-002    -23.704748763647331     
   8.4900000000000003E-002    -13.512981731494278     
   8.5199999999999998E-002    -2.6923121794894769     
   8.5500000000000007E-002     8.1607143210044057     
   8.5800000000000001E-002     18.455719069748000     
   8.6100000000000010E-002     27.649015041680855     
   8.6399999999999991E-002     35.280009229006737     
   8.6699999999999999E-002     41.000889761006079     
   8.7000000000000008E-002     44.594968873022481     
   8.7300000000000003E-002     45.982154265723352     
   8.7599999999999997E-002     45.217472772854961     
   8.7900000000000006E-002     42.478734957134975     
   8.8200000000000014E-002     38.044021977656087     
   8.8499999999999995E-002     32.266746694115824     
   8.8800000000000004E-002     25.545772553772053     
   8.9100000000000013E-002     18.296049801409879     
   8.9399999999999993E-002     10.923856520589538     
   8.9700000000000002E-002     3.8007475581161998     
   9.0000000000000011E-002    -2.7549429031256665     
   9.0299999999999991E-002    -8.4880430774233275     
   9.0600000000000000E-002    -13.216459457587348     
   9.0900000000000009E-002    -16.831743226838114     
   9.1200000000000017E-002    -19.295779833387996     
   9.1499999999999998E-002    -20.635108555963484     
   9.1800000000000007E-002    -20.930847881855698     
   9.2100000000000001E-002    -20.307504629240725     
   9.2399999999999996E-002    -18.920968477894718     
   9.2700000000000005E-002    -16.945700456762864     
   9.3000000000000013E-002    -14.563466329790899     
   9.3300000000000008E-002    -11.952297672415128     
   9.3600000000000003E-002    -9.2748321393359205     
   9.3899999999999997E-002    -6.6744653926150406     
   9.4200000000000006E-002    -4.2680610894812787     
   9.4500000000000001E-002    -2.1411569943576438     
   9.4800000000000009E-002   -0.35007479940193065     
   9.5100000000000004E-002     1.0785477267395147     
   9.5399999999999999E-002     2.1451016025159362     
   9.5699999999999993E-002     2.8705702427118212     
   9.6000000000000002E-002     3.2931225144421035     
   9.6300000000000011E-002     3.4607778225051078     
   9.6600000000000005E-002     3.4265687833819385     
   9.6900000000000000E-002     3.2448389484324522     
   9.7200000000000009E-002     2.9644828508340808     
   9.7499999999999989E-002     2.6289068076923385     
   9.7799999999999998E-002     2.2744443648809920     
   9.8100000000000007E-002     1.9285948482089807     
   9.8400000000000015E-002     1.6119377599899458     
   9.8699999999999996E-002     1.3387048141376425     
   9.9000000000000005E-002     1.1169755269145902     
   9.9300000000000013E-002    0.95144817934009396     
   9.9599999999999994E-002    0.84320771647644577     
   9.9900000000000003E-002    0.78911989289247231     
  0.10020000000000001         0.78439699007492436     
  0.10049999999999999         0.82080851019912515     
  0.10080000000000000         0.88754492338526703     
  0.10110000000000001         0.97232092930501324     
  0.10140000000000000          1.0600072362632140     
  0.10170000000000000          1.1356381071241728     
  0.10200000000000001          1.1859053758213314     
  0.10230000000000002          1.1983748275568935     
  0.10260000000000000          1.1649064277877343     
  0.10290000000000001          1.0816964143105086     
  0.10320000000000000         0.95090903280959171     
  0.10350000000000001         0.78033757709416829     
  0.10380000000000000         0.58044799271888259     
  0.10410000000000001         0.36618447071092497     
  0.10440000000000001         0.15552673179566767     
  0.10470000000000000         -3.5613931930035037E-002
  0.10500000000000000        -0.19298261400593342     
  0.10530000000000000        -0.30502679718624659     
  0.10560000000000000        -0.36587121971401970     
  0.10590000000000001        -0.37440972958611773     
  0.10620000000000000        -0.33462026977058734     
  0.10650000000000001        -0.25566635239157343     
  0.10679999999999999        -0.14953761522120423     
  0.10710000000000000         -3.1685910439030213E-002
  0.10740000000000001          8.3106728829913878E-002
  0.10770000000000000         0.18128686708507846     
  0.10800000000000000         0.24832028803524153     
  0.10830000000000001         0.27401852854453423     
  0.10859999999999999         0.25319679794791661     
  0.10890000000000000         0.18204140847080996     
  0.10920000000000001          6.0790220581175447E-002
  0.10950000000000001        -0.10623949599995131     
  0.10979999999999999        -0.31170652144327171     
  0.11009999999999999        -0.54551300489522347     
  0.11040000000000001        -0.79624288214844796     
  0.11070000000000001         -1.0503220828356987     
  0.11100000000000000         -1.2931131517159287     
  0.11130000000000000         -1.5109682147486438     
  0.11160000000000002         -1.6895202710510873     
  0.11190000000000001         -1.8156616596420960     
  0.11220000000000001         -1.8801458915599554     
  0.11250000000000000         -1.8754702503962974     
  0.11280000000000000         -1.7963546243275417     
  0.11309999999999999         -1.6436383427360965     
  0.11340000000000001         -1.4218605416184076     
  0.11369999999999998         -1.1392585286041275     
  0.11400000000000000        -0.80816600753068535     
  0.11430000000000000        -0.44396854927497742     
  0.11460000000000002         -6.5047339832624118E-002
  0.11489999999999999         0.31006438269787662     
  0.11520000000000001         0.66469543081429450     
  0.11550000000000001         0.98128206407498908     
  0.11580000000000000          1.2473588552828119     
  0.11609999999999999          1.4551292812841652     
  0.11640000000000002          1.5986335284513800     
  0.11670000000000001          1.6791117211120223     
  0.11700000000000001          1.7012370671806707     
  0.11730000000000000          1.6717392083062279     
  0.11760000000000000          1.6000888667968667     
  0.11789999999999999          1.4953705737180769     
  0.11820000000000001          1.3672179449064217     
  0.11850000000000001          1.2231617867926659     
  0.11880000000000000          1.0664033195209690     
  0.11910000000000000         0.89989696768136440     
  0.11940000000000002         0.72429054534360304     
  0.11970000000000001         0.53761696588135255     
  0.12000000000000001         0.33945678477991237     
  0.12030000000000000         0.13015021408041427     
  0.12060000000000000         -8.8116504885504376E-002
  0.12089999999999999        -0.30880575919058995     
  0.12119999999999999        -0.52297624634435635     
  0.12150000000000001        -0.71881672704395783     
  0.12180000000000001        -0.88153215404581076     
  0.12210000000000000        -0.99754052710950702     
  0.12239999999999999         -1.0535408018519341     
  0.12270000000000002         -1.0402471585896933     
  0.12300000000000001        -0.95507824458525370     
  0.12330000000000001        -0.79948423245326694     
  0.12360000000000000        -0.58295692730697724     
  0.12390000000000000        -0.32237279256302287     
  0.12419999999999999         -3.7915162876080544E-002
  0.12450000000000001         0.24540228153943788     
  0.12480000000000001         0.50319982666817020     
  0.12509999999999999         0.71443655363839476     
  0.12540000000000001         0.86113895081226843     
  0.12570000000000003         0.93377715444758458     
  0.12600000000000000         0.93170800500190865     
  0.12630000000000002         0.86138548627342360     
  0.12659999999999999         0.73823666893264672     
  0.12690000000000001         0.58154864530983019     
  0.12719999999999998         0.41286155972699490     
  0.12750000000000000         0.25493153358980258     
  0.12780000000000002         0.12436692778464575     
  0.12809999999999999          3.0985165859545472E-002
  0.12840000000000001         -2.2720457293059937E-002
  0.12869999999999998         -4.4772130875072591E-002
  0.12900000000000000         -5.0061508392236220E-002
  0.12930000000000003         -5.9478058888769780E-002
  0.12959999999999999         -9.8358391395692024E-002
  0.12990000000000002        -0.18828498618011835     
  0.13019999999999998        -0.34695241124415510     
  0.13050000000000000        -0.58392223060360493     
  0.13080000000000003        -0.89560787957480770     
  0.13109999999999999         -1.2682510479864320     
  0.13140000000000002         -1.6759803070428703     
  0.13169999999999998         -2.0809624267321212     
  0.13200000000000001         -2.4421662494681442     
  0.13229999999999997         -2.7151763989044326     
  0.13260000000000000         -2.8585778968279349     
  0.13290000000000002         -2.8400151258323900     
  0.13319999999999999         -2.6373307256156728     
  0.13350000000000001         -2.2454448781425995     
  0.13380000000000003         -1.6753775954343908     
  0.13410000000000000        -0.95277255854941245     
  0.13440000000000002        -0.11961721575580242     
  0.13469999999999999         0.77219500073775471     
  0.13500000000000001          1.6646341733902545     
  0.13529999999999998          2.4959578963412241     
  0.13560000000000000          3.2096669862964120     
  0.13590000000000002          3.7580794756552933     
  0.13619999999999999          4.1030148974748073     
  0.13650000000000001          4.2218769542793950     
  0.13680000000000003          4.1089820814485876     
  0.13710000000000000          3.7735648183736501     
  0.13740000000000002          3.2405121545269728     
  0.13769999999999999          2.5450743492292638     
  0.13800000000000001          1.7328983523221453     
  0.13829999999999998         0.85711806983481864     
  0.13860000000000000         -3.1241610481480109E-002
  0.13890000000000002        -0.88028323479764481     
  0.13919999999999999         -1.6421334868318169     
  0.13950000000000001         -2.2794911894726653     
  0.13979999999999998         -2.7613952040328229     
  0.14010000000000000         -3.0677981696138801     
  0.14040000000000002         -3.1914627288501265     
  0.14069999999999999         -3.1337808606504893     
  0.14100000000000001         -2.9076043089866133     
  0.14130000000000004         -2.5332185489191943     
  0.14160000000000000         -2.0380086086811069     
  0.14189999999999997         -1.4570481666758313     
  0.14219999999999999        -0.82581440288323016     
  0.14250000000000002        -0.18073282615897845     
  0.14279999999999998         0.44008738713383533     
  0.14310000000000000          1.0046026694662658     
  0.14339999999999997          1.4847910565557498     
  0.14369999999999999          1.8578226582144808     
  0.14400000000000002          2.1102189353707743     
  0.14429999999999998          2.2349053202182319     
  0.14460000000000001          2.2326194083529458     
  0.14490000000000003          2.1125560683452704     
  0.14520000000000000          1.8886231389071213     
  0.14550000000000002          1.5813185289717495     
  0.14579999999999999          1.2132269026380271     
  0.14610000000000001         0.80692436438979698     
  0.14640000000000003         0.38810832812558793     
  0.14670000000000000         -2.1053763340411091E-002
  0.14699999999999996        -0.40323841777084013     
  0.14729999999999999        -0.74181440961255163     
  0.14760000000000001         -1.0263755208595704     
  0.14789999999999998         -1.2504990153697548     
  0.14820000000000000         -1.4106337265006701     