  -1.4999999999999999E-002     0.0000000000000000     
  -1.4700000000000000E-002     0.0000000000000000     
  -1.4400000000000000E-002    -6.6950312893507040E-034
  -1.4100000000000000E-002    -1.9301092123665562E-029
  -1.3800000000000000E-002    -2.4671193402479601E-026
  -1.3500000000000000E-002    -2.7348612459741069E-024
  -1.3200000000000000E-002     8.3849350902262116E-024
  -1.2899999999999998E-002     1.2763354442530952E-021
  -1.2600000000000000E-002    -9.0161858779873897E-022
  -1.2299999999999998E-002    -7.2099692365975869E-020
  -1.2000000000000000E-002    -3.8633858250201292E-020
  -1.1699999999999999E-002     1.6146920210722732E-018
  -1.1399999999999999E-002     9.3516883472667230E-019
  -1.1099999999999999E-002     6.6004277272724742E-018
  -1.0799999999999999E-002    -1.3714854402965192E-016
  -1.0499999999999999E-002    -3.2983841483930759E-016
  -1.0199999999999999E-002     4.3232231285010060E-015
  -9.8999999999999991E-003    -7.3799337951471755E-015
  -9.5999999999999992E-003    -1.8206515803439668E-014
  -9.2999999999999992E-003     9.2205282580144765E-014
  -8.9999999999999993E-003    -1.8975851434881869E-013
  -8.6999999999999994E-003     2.4086358992383983E-013
  -8.3999999999999995E-003     1.8770645844948253E-013
  -8.0999999999999996E-003    -1.7912780633788650E-012
  -7.7999999999999988E-003     3.4274204568224276E-012
  -7.4999999999999997E-003    -2.5114786552510315E-012
  -7.1999999999999998E-003     6.2145205431338169E-013
  -6.8999999999999981E-003     8.3310029881655812E-013
  -6.5999999999999982E-003    -1.0617309115223961E-011
  -6.3000000000000000E-003     2.8847724556357868E-011
  -6.0000000000000001E-003    -2.4311622159878254E-011
  -5.6999999999999985E-003    -4.2459712829012730E-011
  -5.3999999999999986E-003     1.4692823346873496E-010
  -5.1000000000000004E-003    -9.1725300965794787E-011
  -4.7999999999999987E-003    -3.5188685298948030E-010
  -4.5000000000000005E-003     8.5550255768396255E-010
  -4.1999999999999989E-003    -3.9817799057928482E-010
  -3.8999999999999990E-003    -1.5208360126806042E-009
  -3.5999999999999990E-003     3.1623998975049972E-009
  -3.2999999999999991E-003    -1.1461698257164699E-009
  -2.9999999999999992E-003    -4.2093244445595701E-009
  -2.6999999999999993E-003     5.7689422128248680E-009
  -2.3999999999999994E-003     9.0945778685735945E-010
  -2.0999999999999977E-003    -7.7648740770541735E-009
  -1.7999999999999995E-003     3.4521341341076095E-009
  -1.4999999999999979E-003     1.0414682449777501E-008
  -1.1999999999999997E-003    -1.7587561629284210E-008
  -8.9999999999999976E-004     2.1955788298555490E-009
  -5.9999999999999810E-004     3.4690987860130917E-008
  -2.9999999999999992E-004    -6.7406212167497870E-008
   0.0000000000000000          2.9597750028642622E-008
   3.0000000000000165E-004     1.5399193387111154E-007
   5.9999999999999984E-004    -3.4643042567950033E-007
   9.0000000000000149E-004    -3.5304054790685768E-008
   1.2000000000000031E-003     1.2626157968043117E-006
   1.5000000000000013E-003    -1.0530503686823067E-006
   1.8000000000000030E-003    -3.7963525301165646E-006
   2.1000000000000012E-003     4.5338665586314164E-006
   2.3999999999999994E-003     1.0985517292283475E-005
   2.7000000000000010E-003    -1.1447814358689357E-005
   2.9999999999999992E-003    -3.2935058698058128E-005
   3.3000000000000008E-003     2.3072600015439093E-005
   3.6000000000000025E-003     1.5673018060624599E-004
   3.9000000000000007E-003     2.6660563889890909E-004
   4.2000000000000023E-003     3.2442642259411514E-004
   4.5000000000000005E-003     4.6269778977148235E-004
   4.7999999999999987E-003     7.9371081665158272E-004
   5.1000000000000004E-003     1.2971719261258841E-003
   5.4000000000000020E-003     1.9775480031967163E-003
   5.7000000000000037E-003     2.9783083591610193E-003
   5.9999999999999984E-003     4.4949045404791832E-003
   6.3000000000000000E-003     6.7206900566816330E-003
   6.6000000000000017E-003     9.9148051813244820E-003
   6.9000000000000034E-003     1.4440068043768406E-002
   7.2000000000000015E-003     2.0732082426548004E-002
   7.5000000000000032E-003     2.9296964406967163E-002
   7.8000000000000014E-003     4.0780175477266312E-002
   8.0999999999999996E-003     5.5968951433897018E-002
   8.4000000000000012E-003     7.5679592788219452E-002
   8.7000000000000029E-003    0.10070338100194931     
   9.0000000000000011E-003    0.13183945417404175     
   9.2999999999999992E-003    0.16985467076301575     
   9.6000000000000009E-003    0.21516941487789154     
   9.8999999999999991E-003    0.26758584380149841     
   1.0200000000000001E-002    0.32639023661613464     
   1.0500000000000002E-002    0.39022147655487061     
   1.0800000000000004E-002    0.45660281181335449     
   1.1099999999999999E-002    0.52176719903945923     
   1.1400000000000000E-002    0.58066612482070923     
   1.1700000000000002E-002    0.62696647644042969     
   1.2000000000000004E-002    0.65308457612991333     
   1.2300000000000002E-002    0.65046590566635132     
   1.2600000000000000E-002    0.61026602983474731     
   1.2900000000000002E-002    0.52385908365249634     
   1.3200000000000000E-002    0.38345879316329956     
   1.3500000000000002E-002    0.18338048458099365     
   1.3800000000000003E-002    -7.9050600528717041E-002
   1.4100000000000001E-002   -0.40256571769714355     
   1.4400000000000000E-002   -0.78094887733459473     
   1.4700000000000001E-002    -1.2026561498641968     
   1.4999999999999999E-002    -1.6508954763412476     
   1.5300000000000001E-002    -2.1038305759429932     
   1.5600000000000003E-002    -2.5355124473571777     
   1.5899999999999997E-002    -2.9172863960266113     
   1.6199999999999999E-002    -3.2199616432189941     
   1.6500000000000001E-002    -3.4164586067199707     
   1.6800000000000002E-002    -3.4837155342102051     
   1.7100000000000004E-002    -3.4053475856781006     
   1.7400000000000006E-002    -3.1740591526031494     
   1.7700000000000000E-002    -2.7925708293914795     
   1.8000000000000002E-002    -2.2744235992431641     
   1.8300000000000004E-002    -1.6440870761871338     
   1.8600000000000005E-002   -0.93480670452117920     
   1.8900000000000000E-002   -0.18674682080745697     
   1.9200000000000002E-002    0.55589300394058228     
   1.9500000000000003E-002     1.2491126060485840     
   1.9799999999999998E-002     1.8520404100418091     
   2.0100000000000000E-002     2.3308103084564209     
   2.0400000000000001E-002     2.6620430946350098     
   2.0700000000000003E-002     2.8340275287628174     
   2.0999999999999998E-002     2.8486449718475342     
   2.1299999999999999E-002     2.7210223674774170     
   2.1600000000000001E-002     2.4777250289916992     
   2.1900000000000003E-002     2.1553714275360107     
   2.2200000000000004E-002     1.7970242500305176     
   2.2500000000000006E-002     1.4488477706909180     
   2.2800000000000001E-002     1.1564990282058716     
   2.3100000000000002E-002    0.96075582504272461     
   2.3400000000000004E-002    0.89521616697311401     
   2.3699999999999999E-002    0.98402428627014160     
   2.4000000000000000E-002     1.2388466596603394     
   2.4300000000000002E-002     1.6579625606536865     
   2.4599999999999997E-002     2.2269470691680908     
   2.4900000000000005E-002     2.9189081192016602     
   2.5200000000000000E-002     3.6954066753387451     
   2.5499999999999995E-002     4.5073237419128418     
   2.5800000000000003E-002     5.2976121902465820     
   2.6099999999999998E-002     6.0051832199096680     
   2.6400000000000007E-002     6.5663247108459473     
   2.6700000000000002E-002     6.9183888435363770     
   2.6999999999999996E-002     7.0036592483520508     
   2.7300000000000005E-002     6.7733497619628906     
   2.7600000000000000E-002     6.1920561790466309     
   2.7900000000000008E-002     5.2410058975219727     
   2.8200000000000003E-002     3.9208288192749023     
   2.8499999999999998E-002     2.2555263042449951     
   2.8800000000000006E-002    0.29330694675445557     
   2.9100000000000001E-002    -1.8947175741195679     
   2.9400000000000003E-002    -4.2152919769287109     
   2.9700000000000004E-002    -6.5585770606994629     
   3.0000000000000006E-002    -8.8022670745849609     
   3.0300000000000001E-002    -10.819758415222168     
   3.0600000000000002E-002    -12.490688323974609     
   3.0900000000000004E-002    -13.706749916076660     
   3.1199999999999999E-002    -14.381907463073730     
   3.1500000000000007E-002    -14.460763931274414     
   3.1800000000000002E-002    -13.921428680419922     
   3.2099999999999997E-002    -12.781128883361816     
   3.2400000000000005E-002    -11.094200134277344     
   3.2700000000000000E-002    -8.9487123489379883     
   3.3000000000000002E-002    -6.4625148773193359     
   3.3300000000000003E-002    -3.7727181911468506     
   3.3599999999999998E-002    -1.0270888805389404     
   3.3900000000000000E-002     1.6261130571365356     
   3.4200000000000001E-002     4.0500741004943848     
   3.4500000000000003E-002     6.1261229515075684     
   3.4799999999999998E-002     7.7613697052001953     
   3.5099999999999999E-002     8.8960056304931641     
   3.5400000000000001E-002     9.5003986358642578     
   3.5699999999999996E-002     9.5784654617309570     
   3.6000000000000004E-002     9.1647796630859375     
   3.6299999999999999E-002     8.3166675567626953     
   3.6600000000000008E-002     7.1115083694458008     
   3.6900000000000002E-002     5.6402373313903809     
   3.7199999999999997E-002     3.9970736503601074     
   3.7500000000000006E-002     2.2774202823638916     
   3.7800000000000000E-002    0.57158768177032471     
   3.8100000000000009E-002    -1.0400276184082031     
   3.8400000000000004E-002    -2.4880931377410889     
   3.8699999999999998E-002    -3.7187123298645020     
   3.9000000000000007E-002    -4.6905584335327148     
   3.9300000000000002E-002    -5.3755273818969727     
   3.9600000000000003E-002    -5.7603473663330078     
   3.9900000000000005E-002    -5.8419036865234375     
   4.0200000000000000E-002    -5.6268458366394043     
   4.0500000000000001E-002    -5.1328377723693848     
   4.0800000000000003E-002    -4.3835334777832031     
   4.1100000000000005E-002    -3.4103748798370361     
   4.1399999999999999E-002    -2.2502026557922363     
   4.1700000000000008E-002   -0.94353878498077393     
   4.2000000000000003E-002    0.46631801128387451     
   4.2299999999999997E-002     1.9360342025756836     
   4.2600000000000006E-002     3.4247803688049316     
   4.2900000000000001E-002     4.8965792655944824     
   4.3200000000000002E-002     6.3226761817932129     
   4.3500000000000004E-002     7.6817011833190918     
   4.3799999999999999E-002     8.9603424072265625     
   4.4100000000000000E-002     10.153549194335938     
   4.4400000000000002E-002     11.258296966552734     
   4.4700000000000004E-002     12.268975257873535     
   4.4999999999999998E-002     13.172527313232422     
   4.5300000000000000E-002     13.941271781921387     
   4.5600000000000002E-002     14.526324272155762     
   4.5899999999999996E-002     14.856192588806152     
   4.6200000000000005E-002     14.834391593933105     
   4.6500000000000000E-002     14.346416473388672     
   4.6799999999999994E-002     13.268629074096680     
   4.7100000000000003E-002     11.479555130004883     
   4.7399999999999998E-002     8.8790092468261719     
   4.7700000000000006E-002     5.4066519737243652     
   4.8000000000000001E-002     1.0581783056259155     
   4.8300000000000010E-002    -4.0969243049621582     
   4.8600000000000004E-002    -9.9089260101318359     
   4.8899999999999999E-002    -16.145948410034180     
   4.9200000000000008E-002    -22.498853683471680     
   4.9500000000000002E-002    -28.601257324218750     
   4.9800000000000011E-002    -34.049919128417969     
   5.0100000000000006E-002    -38.437946319580078     
   5.0400000000000000E-002    -41.389373779296875     
   5.0700000000000009E-002    -42.590171813964844     
   5.1000000000000004E-002    -41.822998046875000     
   5.1299999999999998E-002    -38.989871978759766     
   5.1600000000000007E-002    -34.127368927001953     
   5.1900000000000002E-002    -27.410047531127930     
   5.2200000000000010E-002    -19.144889831542969     
   5.2500000000000005E-002    -9.7508554458618164     
   5.2800000000000000E-002    0.26889985799789429     
   5.3099999999999994E-002     10.362111091613770     
   5.3400000000000003E-002     19.969902038574219     
   5.3699999999999998E-002     28.561902999877930     
   5.4000000000000006E-002     35.678897857666016     
   5.4300000000000001E-002     40.964294433593750     
   5.4599999999999996E-002     44.179763793945312     
   5.4900000000000004E-002     45.227745056152344     
   5.5199999999999999E-002     44.148155212402344     
   5.5499999999999994E-002     41.108695983886719     
   5.5800000000000002E-002     36.389366149902344     
   5.6099999999999997E-002     30.353219985961914     
   5.6400000000000006E-002     23.420278549194336     
   5.6700000000000000E-002     16.029674530029297     
   5.6999999999999995E-002     8.6073389053344727     
   5.7300000000000004E-002     1.5450712442398071     
   5.7599999999999998E-002    -4.8293948173522949     
   5.7900000000000007E-002    -10.268255233764648     
   5.8200000000000002E-002    -14.607927322387695     
   5.8499999999999996E-002    -17.769920349121094     
   5.8800000000000005E-002    -19.756294250488281     
   5.9100000000000000E-002    -20.639829635620117     
   5.9400000000000008E-002    -20.545782089233398     
   5.9700000000000003E-002    -19.634437561035156     
   6.0000000000000012E-002    -18.088548660278320     
   6.0300000000000006E-002    -16.096639633178711     
   6.0600000000000001E-002    -13.836008071899414     
   6.0900000000000010E-002    -11.467890739440918     
   6.1200000000000004E-002    -9.1312932968139648     
   6.1500000000000013E-002    -6.9316406250000000     
   6.1800000000000008E-002    -4.9485015869140625     
   6.2100000000000002E-002    -3.2344741821289062     
   6.2399999999999997E-002    -1.8103901147842407     
   6.2700000000000006E-002   -0.67884498834609985     
   6.3000000000000000E-002    0.17817349731922150     
   6.3300000000000009E-002    0.79399549961090088     
   6.3600000000000004E-002     1.2088739871978760     
   6.3899999999999998E-002     1.4747282266616821     
   6.4199999999999993E-002     1.6387277841567993     
   6.4500000000000002E-002     1.7458041906356812     
   6.4800000000000010E-002     1.8394756317138672     
   6.5100000000000005E-002     1.9466675519943237     
   6.5400000000000000E-002     2.0857403278350830     
   6.5700000000000008E-002     2.2650480270385742     
   6.5999999999999989E-002     2.4769766330718994     
   6.6299999999999998E-002     2.7072033882141113     
   6.6600000000000006E-002     2.9335370063781738     
   6.6900000000000001E-002     3.1307256221771240     
   6.7199999999999996E-002     3.2738854885101318     
   6.7500000000000004E-002     3.3408188819885254     
   6.7800000000000013E-002     3.3185191154479980     
   6.8099999999999994E-002     3.2002117633819580     
   6.8400000000000002E-002     2.9859261512756348     
   6.8700000000000011E-002     2.6868989467620850     
   6.8999999999999992E-002     2.3197011947631836     
   6.9300000000000000E-002     1.9021538496017456     
   6.9600000000000009E-002     1.4563765525817871     
   6.9900000000000004E-002     1.0036841630935669     
   7.0199999999999999E-002    0.56064015626907349     
   7.0500000000000007E-002    0.14371830224990845     
   7.0800000000000016E-002   -0.23619639873504639     
   7.1099999999999997E-002   -0.57151311635971069     
   7.1400000000000005E-002   -0.85489773750305176     
   7.1700000000000000E-002    -1.0835914611816406     
   7.1999999999999995E-002    -1.2535276412963867     
   7.2300000000000003E-002    -1.3619817495346069     
   7.2600000000000012E-002    -1.4067714214324951     
   7.2900000000000006E-002    -1.3849325180053711     
   7.3200000000000001E-002    -1.2983782291412354     
   7.3499999999999996E-002    -1.1468646526336670     
   7.3800000000000004E-002   -0.93275475502014160     
   7.4099999999999999E-002   -0.66581237316131592     
   7.4400000000000008E-002   -0.35260829329490662     
   7.4700000000000003E-002    -4.4992901384830475E-003
   7.5000000000000011E-002    0.36380240321159363     
   7.5299999999999992E-002    0.73860329389572144     
   7.5600000000000001E-002     1.1046572923660278     
   7.5900000000000009E-002     1.4472600221633911     
   7.6200000000000004E-002     1.7498642206192017     
   7.6499999999999999E-002     1.9967600107192993     
   7.6800000000000007E-002     2.1757493019104004     
   7.7099999999999988E-002     2.2708895206451416     
   7.7399999999999997E-002     2.2687113285064697     
   7.7700000000000005E-002     2.1614825725555420     
   7.8000000000000014E-002     1.9406518936157227     
   7.8299999999999995E-002     1.6028786897659302     
   7.8600000000000003E-002     1.1533935070037842     
   7.8900000000000012E-002    0.60349190235137939     
   7.9199999999999993E-002    -2.8571810573339462E-002
   7.9500000000000001E-002   -0.71552592515945435     
   7.9800000000000010E-002    -1.4237354993820190     
   8.0100000000000018E-002    -2.1134643554687500     
   8.0399999999999999E-002    -2.7464847564697266     
   8.0700000000000008E-002    -3.2832646369934082     
   8.1000000000000003E-002    -3.6870570182800293     
   8.1299999999999997E-002    -3.9338750839233398     
   8.1600000000000006E-002    -4.0081887245178223     
   8.1900000000000014E-002    -3.9032492637634277     
   8.2199999999999995E-002    -3.6293237209320068     
   8.2500000000000004E-002    -3.2060961723327637     
   8.2799999999999999E-002    -2.6620588302612305     
   8.3100000000000007E-002    -2.0332179069519043     
   8.3400000000000002E-002    -1.3579739332199097     
   8.3700000000000011E-002   -0.67676210403442383     
   8.4000000000000005E-002    -2.4983029812574387E-002
   8.4300000000000000E-002    0.56765538454055786     
   8.4599999999999995E-002     1.0756174325942993     
   8.4900000000000003E-002     1.4842463731765747     
   8.5199999999999998E-002     1.7866576910018921     
   8.5500000000000007E-002     1.9791100025177002     
   8.5800000000000001E-002     2.0686924457550049     
   8.6100000000000010E-002     2.0649199485778809     
   8.6399999999999991E-002     1.9777958393096924     
   8.6699999999999999E-002     1.8222994804382324     
   8.7000000000000008E-002     1.6123042106628418     
   8.7300000000000003E-002     1.3613525629043579     
   8.7599999999999997E-002     1.0841109752655029     
   8.7900000000000006E-002    0.79139101505279541     
   8.8200000000000014E-002    0.49796283245086670     
   8.8499999999999995E-002    0.21625919640064240     
   8.8800000000000004E-002    -4.4849306344985962E-002
   8.9100000000000013E-002   -0.27070841193199158     
   8.9399999999999993E-002   -0.45107448101043701     
   8.9700000000000002E-002   -0.57792526483535767     
   9.0000000000000011E-002   -0.64234226942062378     
   9.0299999999999991E-002   -0.64052140712738037     
   9.0600000000000000E-002   -0.57000577449798584     
   9.0900000000000009E-002   -0.43373855948448181     
   9.1200000000000017E-002   -0.24002960324287415     
   9.1499999999999998E-002     3.3055311068892479E-003
   9.1800000000000007E-002    0.28082528710365295     
   9.2100000000000001E-002    0.57339531183242798     
   9.2399999999999996E-002    0.86508768796920776     
   9.2700000000000005E-002     1.1375347375869751     
   9.3000000000000013E-002     1.3725360631942749     
   9.3300000000000008E-002     1.5575939416885376     
   9.3600000000000003E-002     1.6834075450897217     
   9.3899999999999997E-002     1.7456589937210083     
   9.4200000000000006E-002     1.7451848983764648     
   9.4500000000000001E-002     1.6869664192199707     
   9.4800000000000009E-002     1.5822688341140747     
   9.5100000000000004E-002     1.4419695138931274     
   9.5399999999999999E-002     1.2766433954238892     
   9.5699999999999993E-002     1.1000622510910034     
   9.6000000000000002E-002    0.91770392656326294     
   9.6300000000000011E-002    0.73169600963592529     
   9.6600000000000005E-002    0.54311770200729370     
   9.6900000000000000E-002    0.34297114610671997     
   9.7200000000000009E-002    0.12181230634450912     
   9.7499999999999989E-002   -0.12992401421070099     
   9.7799999999999998E-002   -0.42457833886146545     
   9.8100000000000007E-002   -0.76792806386947632     
   9.8400000000000015E-002    -1.1605746746063232     
   9.8699999999999996E-002    -1.5948811769485474     
   9.9000000000000005E-002    -2.0543022155761719     
   9.9300000000000013E-002    -2.5158228874206543     
   9.9599999999999994E-002    -2.9463522434234619     
   9.9900000000000003E-002    -3.3103492259979248     
  0.10020000000000001         -3.5754752159118652     
  0.10049999999999999         -3.7087612152099609     
  0.10080000000000000         -3.6859638690948486     
  0.10110000000000001         -3.4977927207946777     
  0.10140000000000000         -3.1441178321838379     
  0.10170000000000000         -2.6389684677124023     
  0.10200000000000001         -2.0115802288055420     
  0.10230000000000002         -1.2983154058456421     
  0.10260000000000000        -0.54271280765533447     
  0.10290000000000001         0.20865389704704285     
  0.10320000000000000         0.91320568323135376     
  0.10350000000000001          1.5324259996414185     
  0.10380000000000000          2.0390958786010742     
  0.10410000000000001          2.4143490791320801     
  0.10440000000000001          2.6496603488922119     
  0.10470000000000000          2.7498223781585693     
  0.10500000000000000          2.7246036529541016     
  0.10530000000000000          2.5885691642761230     
  0.10560000000000000          2.3640868663787842     
  0.10590000000000001          2.0713598728179932     
  0.10620000000000000          1.7298486232757568     
  0.10650000000000001          1.3596265316009521     
  0.10679999999999999         0.97752887010574341     
  0.10710000000000000         0.59832793474197388     
  0.10740000000000001         0.23500032722949982     
  0.10770000000000000        -0.10108251124620438     
  0.10800000000000000        -0.39778622984886169     
  0.10830000000000001        -0.64679473638534546     
  0.10859999999999999        -0.84077411890029907     
  0.10890000000000000        -0.97067707777023315     
  0.10920000000000001         -1.0347880125045776     
  0.10950000000000001         -1.0318908691406250     
  0.10979999999999999        -0.96154081821441650     
  0.11009999999999999        -0.83161503076553345     
  0.11040000000000001        -0.64974492788314819     
  0.11070000000000001        -0.42578828334808350     
  0.11100000000000000        -0.17363917827606201     
  0.11130000000000000          9.4191849231719971E-002
  0.11160000000000002         0.36308547854423523     
  0.11190000000000001         0.62102454900741577     
  0.11220000000000001         0.85683959722518921     
  0.11250000000000000          1.0589858293533325     
  0.11280000000000000          1.2209510803222656     
  0.11309999999999999          1.3368232250213623     
  0.11340000000000001          1.4009991884231567     
  0.11369999999999998          1.4121471643447876     
  0.11400000000000000          1.3697221279144287     
  0.11430000000000000          1.2742294073104858     
  0.11460000000000002          1.1292977333068848     
  0.11489999999999999         0.94060027599334717     
  0.11520000000000001         0.71378123760223389     
  0.11550000000000001         0.45817446708679199     
  0.11580000000000000         0.18293477594852448     
  0.11609999999999999        -0.10311508178710938     
  0.11640000000000002        -0.38826936483383179     
  0.11670000000000001        -0.66553801298141479     
  0.11700000000000001        -0.92648363113403320     
  0.11730000000000000         -1.1647975444793701     
  0.11760000000000000         -1.3779062032699585     
  0.11789999999999999         -1.5607368946075439     
  0.11820000000000001         -1.7137490510940552     
  0.11850000000000001         -1.8360835313796997     
  0.11880000000000000         -1.9235877990722656     
  0.11910000000000000         -1.9788430929183960     
  0.11940000000000002         -1.9967461824417114     
  0.11970000000000001         -1.9734437465667725     
  0.12000000000000001         -1.9071894884109497     
  0.12030000000000000         -1.7927590608596802     
  0.12060000000000000         -1.6281864643096924     
  0.12089999999999999         -1.4116489887237549     
  0.12119999999999999         -1.1456065177917480     
  0.12150000000000001        -0.83517116308212280     
  0.12180000000000001        -0.48598793148994446     
  0.12210000000000000        -0.11060100048780441     
  0.12239999999999999         0.27753388881683350     
  0.12270000000000002         0.66400045156478882     
  0.12300000000000001          1.0328222513198853     
  0.12330000000000001          1.3680303096771240     
  0.12360000000000000          1.6553828716278076     
  0.12390000000000000          1.8845758438110352     
  0.12419999999999999          2.0439724922180176     
  0.12450000000000001          2.1298937797546387     
  0.12480000000000001          2.1409549713134766     
  0.12509999999999999          2.0772531032562256     
  0.12540000000000001          1.9462410211563110     
  0.12570000000000003          1.7544071674346924     
  0.12600000000000000          1.5141878128051758     
  0.12630000000000002          1.2396250963211060     
  0.12659999999999999         0.94193351268768311     
  0.12690000000000001         0.63978934288024902     
  0.12719999999999998         0.34572511911392212     
  0.12750000000000000          7.1949474513530731E-002
  0.12780000000000002        -0.16870261728763580     
  0.12809999999999999        -0.37122723460197449     
  0.12840000000000001        -0.52899396419525146     
  0.12869999999999998        -0.64196819067001343     
  0.12900000000000000        -0.71392911672592163     
  0.12930000000000003        -0.74771273136138916     
  0.12959999999999999        -0.75201815366744995     
  0.12990000000000002        -0.73386979103088379     
  0.13019999999999998        -0.69966435432434082     
  0.13050000000000000        -0.65574288368225098     
  0.13080000000000003        -0.60431289672851562     
  0.13109999999999999        -0.54710614681243896     
  0.13140000000000002        -0.48241841793060303     
  0.13169999999999998        -0.40735617280006409     
  0.13200000000000001        -0.31781965494155884     
  0.13229999999999997        -0.21217688918113708     
  0.13260000000000000         -8.8882915675640106E-002
  0.13290000000000002          5.1767058670520782E-002
  0.13319999999999999         0.20242333412170410     
  0.13350000000000001         0.35689997673034668     
  0.13380000000000003         0.50423282384872437     
  0.13410000000000000         0.63044440746307373     
  0.13440000000000002         0.72434484958648682     
  0.13469999999999999         0.77160388231277466     
  0.13500000000000001         0.76396095752716064     
  0.13529999999999998         0.69462043046951294     
  0.13560000000000000         0.55945199728012085     
  0.13590000000000002         0.36517399549484253     
  0.13619999999999999         0.11524846404790878     
  0.13650000000000001        -0.17878571152687073     
  0.13680000000000003        -0.49876821041107178     
  0.13710000000000000        -0.83072078227996826     
  0.13740000000000002         -1.1545094251632690     
  0.13769999999999999         -1.4511109590530396     
  0.13800000000000001         -1.7023711204528809     
  0.13829999999999998         -1.8915194272994995     
  0.13860000000000000         -2.0058748722076416     
  0.13890000000000002         -2.0340156555175781     
  0.13919999999999999         -1.9709147214889526     
  0.13950000000000001         -1.8165094852447510     
  0.13979999999999998         -1.5735064744949341     
  0.14010000000000000         -1.2514439821243286     
  0.14040000000000002        -0.86587214469909668     
  0.14069999999999999        -0.43481019139289856     
  0.14100000000000001          2.1913563832640648E-002
  0.14130000000000004         0.47858813405036926     
  0.14160000000000000         0.91226738691329956     
  0.14189999999999997          1.3029435873031616     
  0.14219999999999999          1.6293350458145142     
  0.14250000000000002          1.8797918558120728     
  0.14279999999999998          2.0437602996826172     
  0.14310000000000000          2.1182222366333008     
  0.14339999999999997          2.1076300144195557     
  0.14369999999999999          2.0166525840759277     
  0.14400000000000002          1.8581194877624512     
  0.14429999999999998          1.6459543704986572     
  0.14460000000000001          1.3924727439880371     
  0.14490000000000003          1.1147831678390503     
  0.14520000000000000         0.82478874921798706     
  0.14550000000000002         0.53332090377807617     
  0.14579999999999999         0.25129681825637817     
  0.14610000000000001         -1.5307301655411720E-002
  0.14640000000000003        -0.25957438349723816     
  0.14670000000000000        -0.47701480984687805     
  0.14699999999999996        -0.66474086046218872     
  0.14729999999999999        -0.81832593679428101     
  0.14760000000000001        -0.93417716026306152     
  0.14789999999999998         -1.0113211870193481     
  0.14820000000000000         -1.0462552309036255     