  -1.4999999999999999E-002     0.0000000000000000     
  -1.4700000000000000E-002     1.1022210158209703E-010
  -1.4400000000000000E-002     9.5018617821089174E-009
  -1.4100000000000000E-002     4.3539996678212839E-008
  -1.3800000000000000E-002    -1.7748385375293285E-007
  -1.3500000000000000E-002    -4.7175323006993235E-007
  -1.3200000000000000E-002     6.6088713695340655E-007
  -1.2899999999999998E-002     1.0666353893416182E-006
  -1.2600000000000000E-002    -2.4629885986611900E-007
  -1.2299999999999998E-002     5.2792418509478936E-007
  -1.2000000000000000E-002    -1.5155976211292074E-006
  -1.1699999999999999E-002    -4.7317573035554630E-006
  -1.1399999999999999E-002     4.8127593868014682E-007
  -1.1099999999999999E-002     5.0191478065916059E-006
  -1.0799999999999999E-002     2.7480479938691919E-006
  -1.0499999999999999E-002     7.2202527473508825E-006
  -1.0199999999999999E-002     9.8077467710684001E-006
  -9.8999999999999991E-003    -5.2158027296042879E-006
  -9.5999999999999992E-003    -1.6065560695771987E-005
  -9.2999999999999992E-003    -1.8021594572628879E-005
  -8.9999999999999993E-003    -2.1829514040811989E-005
  -8.6999999999999994E-003     2.2314491596446551E-005
  -8.3999999999999995E-003     1.9006075575874219E-004
  -8.0999999999999996E-003     4.5960901207084057E-004
  -7.7999999999999988E-003     7.7510444563565900E-004
  -7.4999999999999997E-003     1.1838346588358278E-003
  -7.1999999999999998E-003     1.7056010130459612E-003
  -6.8999999999999981E-003     2.4099751307399275E-003
  -6.5999999999999982E-003     3.6069306834391329E-003
  -6.3000000000000000E-003     5.6052148860626094E-003
  -6.0000000000000001E-003     8.5554652520309915E-003
  -5.6999999999999985E-003     1.2765245052554219E-002
  -5.3999999999999986E-003     1.8870510071863522E-002
  -5.1000000000000004E-003     2.7440385872446682E-002
  -4.7999999999999987E-003     3.9096214095994286E-002
  -4.5000000000000005E-003     5.5010352194834189E-002
  -4.1999999999999989E-003     7.6329851048208663E-002
  -3.8999999999999990E-003    0.10382152321716687     
  -3.5999999999999990E-003    0.13865117620276290     
  -3.2999999999999991E-003    0.18238294449966386     
  -2.9999999999999992E-003    0.23572640598303352     
  -2.6999999999999993E-003    0.29832868416644587     
  -2.3999999999999994E-003    0.36961574031659161     
  -2.0999999999999977E-003    0.44780639088948604     
  -1.7999999999999995E-003    0.52840945256950711     
  -1.4999999999999979E-003    0.60464075389991478     
  -1.1999999999999997E-003    0.66778780086838618     
  -8.9999999999999976E-004    0.70594912465906212     
  -5.9999999999999810E-004    0.70323718762960752     
  -2.9999999999999992E-004    0.64109720347300225     
   0.0000000000000000         0.49914069334745648     
   3.0000000000000165E-004    0.25517869156933237     
   5.9999999999999984E-004   -0.11279663001841289     
   9.0000000000000149E-004   -0.62396390957684034     
   1.2000000000000031E-003    -1.2921802420625248     
   1.5000000000000013E-003    -2.1232028123178495     
   1.8000000000000030E-003    -3.1117285954519787     
   2.1000000000000012E-003    -4.2378673681100025     
   2.3999999999999994E-003    -5.4646640942803231     
   2.7000000000000010E-003    -6.7367767871925821     
   2.9999999999999992E-003    -7.9802139916387205     
   3.3000000000000008E-003    -9.1037368843467448     
   3.6000000000000025E-003    -10.001452406528045     
   3.9000000000000007E-003    -10.558251747734658     
   4.2000000000000023E-003    -10.656987020640884     
   4.5000000000000005E-003    -10.185900988971241     
   4.7999999999999987E-003    -9.0482835756851614     
   5.1000000000000004E-003    -7.1732178765856816     
   5.4000000000000020E-003    -4.5247956560728255     
   5.7000000000000037E-003    -1.1097295148431670     
   5.9999999999999984E-003     3.0149464866677711     
   6.3000000000000000E-003     7.7371355316787742     
   6.6000000000000017E-003     12.889721815050223     
   6.9000000000000034E-003     18.252983060305667     
   7.2000000000000015E-003     23.560615441800792     
   7.5000000000000032E-003     28.510238815007369     
   7.8000000000000014E-003     32.778440511772374     
   8.0999999999999996E-003     36.039319698344570     
   8.4000000000000012E-003     37.983627670306475     
   8.7000000000000029E-003     38.341310238394527     
   9.0000000000000011E-003     36.905218661136928     
   9.2999999999999992E-003     33.551630066244570     
   9.6000000000000009E-003     28.258293542901811     
   9.8999999999999991E-003     21.117817490698144     
   1.0200000000000001E-002     12.343393709431552     
   1.0500000000000002E-002     2.2674731839352376     
   1.0800000000000004E-002    -8.6692210300438290     
   1.1099999999999999E-002    -19.938407765061584     
   1.1400000000000000E-002    -30.954509706939120     
   1.1700000000000002E-002    -41.109317321363733     
   1.2000000000000004E-002    -49.812303308914579     
   1.2300000000000002E-002    -56.534608916267871     
   1.2600000000000000E-002    -60.848529642199196     
   1.2900000000000002E-002    -62.460192750796750     
   1.3200000000000000E-002    -61.234192494836250     
   1.3500000000000002E-002    -57.207996077359326     
   1.3800000000000003E-002    -50.590693334359685     
   1.4100000000000001E-002    -41.746697356256163     
   1.4400000000000000E-002    -31.173129192614624     
   1.4700000000000001E-002    -19.460804693238174     
   1.4999999999999999E-002    -7.2497602803674681     
   1.5300000000000001E-002     4.8141412986224168     
   1.5600000000000003E-002     16.124984932935774     
   1.5899999999999997E-002     26.155631687418463     
   1.6199999999999999E-002     34.489636638248840     
   1.6500000000000001E-002     40.842288289485168     
   1.6800000000000002E-002     45.063571010726832     
   1.7100000000000004E-002     47.141880219821360     
   1.7400000000000006E-002     47.188229537719792     
   1.7700000000000000E-002     45.412290143882956     
   1.8000000000000002E-002     42.099909004166136     
   1.8300000000000004E-002     37.582242908995909     
   1.8600000000000005E-002     32.207116272573870     
   1.8900000000000000E-002     26.316006047828608     
   1.9200000000000002E-002     20.221414268612342     
   1.9500000000000003E-002     14.193190926105675     
   1.9799999999999998E-002     8.4506910767929355     
   2.0100000000000000E-002     3.1595483989586910     
   2.0400000000000001E-002    -1.5643959688842983     
   2.0700000000000003E-002    -5.6515957351331139     
   2.0999999999999998E-002    -9.0706939605617833     
   2.1299999999999999E-002    -11.817671816339981     
   2.1600000000000001E-002    -13.909683626254491     
   2.1900000000000003E-002    -15.380240612223758     
   2.2200000000000004E-002    -16.270348376969423     
   2.2500000000000006E-002    -16.627938055492450     
   2.2800000000000001E-002    -16.506398470666170     
   2.3100000000000002E-002    -15.962021312915056     
   2.3400000000000004E-002    -15.056577662247435     
   2.3699999999999999E-002    -13.855413179029995     
   2.4000000000000000E-002    -12.426096457101096     
   2.4300000000000002E-002    -10.840087081527884     
   2.4599999999999997E-002    -9.1670448717396482     
   2.4900000000000005E-002    -7.4746937992680671     
   2.5200000000000000E-002    -5.8265008106548066     
   2.5499999999999995E-002    -4.2756360306719188     
   2.5800000000000003E-002    -2.8667003552642001     
   2.6099999999999998E-002    -1.6317457674005524     
   2.6400000000000007E-002   -0.58959815352051237     
   2.6700000000000002E-002    0.25143206430576637     
   2.6999999999999996E-002    0.89532258922528030     
   2.7300000000000005E-002     1.3546888705074309     
   2.7600000000000000E-002     1.6471796328392543     
   2.7900000000000008E-002     1.7968072644690238     
   2.8200000000000003E-002     1.8294491580023760     
   2.8499999999999998E-002     1.7701756231177725     
   2.8800000000000006E-002     1.6438988834514277     
   2.9100000000000001E-002     1.4736103046493341     
   2.9400000000000003E-002     1.2802620667120621     
   2.9700000000000004E-002     1.0816975410141794     
   3.0000000000000006E-002    0.89272566883507665     
   3.0300000000000001E-002    0.72724179783583764     
   3.0600000000000002E-002    0.59565380645037891     
   3.0900000000000004E-002    0.50518148444949418     
   3.1199999999999999E-002    0.46138120617888134     
   3.1500000000000007E-002    0.46685165441487975     
   3.1800000000000002E-002    0.52111380882212899     
   3.2099999999999997E-002    0.62197712291410667     
   3.2400000000000005E-002    0.76422581857884708     
   3.2700000000000000E-002    0.94047901291000358     
   3.3000000000000002E-002     1.1430715525252459     
   3.3300000000000003E-002     1.3627727350264109     
   3.3599999999999998E-002     1.5891098586845374     
   3.3900000000000000E-002     1.8125481501170739     
   3.4200000000000001E-002     2.0235976931706787     
   3.4500000000000003E-002     2.2128666316353787     
   3.4799999999999998E-002     2.3709407896787837     
   3.5099999999999999E-002     2.4884971809619287     
   3.5400000000000001E-002     2.5590690628274757     
   3.5699999999999996E-002     2.5753905083932551     
   3.6000000000000004E-002     2.5313717857394096     
   3.6299999999999999E-002     2.4241528829725780     
   3.6600000000000008E-002     2.2530768125661140     
   3.6900000000000002E-002     2.0207647036575551     
   3.7199999999999997E-002     1.7335094295300451     
   3.7500000000000006E-002     1.4005385272480808     
   3.7800000000000000E-002     1.0360139377792414     
   3.8100000000000009E-002    0.65649063393001228     
   3.8400000000000004E-002    0.27907884606815436     
   3.8699999999999998E-002    -7.7938314227147698E-002
   3.9000000000000007E-002   -0.39830311987625677     
   3.9300000000000002E-002   -0.66864588024601090     
   3.9600000000000003E-002   -0.87935849946092048     
   3.9900000000000005E-002    -1.0269733921395172     
   4.0200000000000000E-002    -1.1126225008899056     
   4.0500000000000001E-002    -1.1426782163384388     
   4.0800000000000003E-002    -1.1283435888342197     
   4.1100000000000005E-002    -1.0830713275484740     
   4.1399999999999999E-002    -1.0222121801115165     
   4.1700000000000008E-002   -0.95983993524022893     
   4.2000000000000003E-002   -0.90755192292577647     
   4.2299999999999997E-002   -0.87438844504091406     
   4.2600000000000006E-002   -0.86398897629651117     
   4.2900000000000001E-002   -0.87570302007591749     
   4.3200000000000002E-002   -0.90444190741047592     
   4.3500000000000004E-002   -0.94121604587236618     
   4.3799999999999999E-002   -0.97452754071991166     
   4.4100000000000000E-002   -0.99225130108209214     
   4.4400000000000002E-002   -0.98319834980004117     
   4.4700000000000004E-002   -0.93723277221239343     
   4.4999999999999998E-002   -0.84794179512220325     
   4.5300000000000000E-002   -0.71366324892579591     
   4.5600000000000002E-002   -0.53712159884883270     
   4.5899999999999996E-002   -0.32444242627246456     
   4.6200000000000005E-002    -8.6163199653046973E-002
   4.6500000000000000E-002    0.16268294212601209     
   4.6799999999999994E-002    0.40528116894027733     
   4.7100000000000003E-002    0.62571345387008748     
   4.7399999999999998E-002    0.80720494198732595     
   4.7700000000000006E-002    0.93396449788095737     
   4.8000000000000001E-002    0.99457228413901433     
   4.8300000000000010E-002    0.98144461470033661     
   4.8600000000000004E-002    0.89143805272572862     
   4.8899999999999999E-002    0.72626712510960267     
   4.9200000000000008E-002    0.49322971094674983     
   4.9500000000000002E-002    0.20516217972486483     
   4.9800000000000011E-002   -0.12210164599620121     
   5.0100000000000006E-002   -0.46904219509598732     
   5.0400000000000000E-002   -0.81290102290321187     
   5.0700000000000009E-002    -1.1326297347567653     
   5.1000000000000004E-002    -1.4068206354257811     
   5.1299999999999998E-002    -1.6166624237450975     
   5.1600000000000007E-002    -1.7479184185287835     
   5.1900000000000002E-002    -1.7909075197801130     
   5.2200000000000010E-002    -1.7436595811654385     
   5.2500000000000005E-002    -1.6092902358214864     
   5.2800000000000000E-002    -1.3971511591281143     
   5.3099999999999994E-002    -1.1233549842127140     
   5.3400000000000003E-002   -0.80814181663535933     
   5.3699999999999998E-002   -0.47445652129777471     
   5.4000000000000006E-002   -0.14517982082056413     
   5.4300000000000001E-002    0.15798282437394118     
   5.4599999999999996E-002    0.41627641143697680     
   5.4900000000000004E-002    0.61765319658635676     
   5.5199999999999999E-002    0.75720953720193940     
   5.5499999999999994E-002    0.83710242156919179     
   5.5800000000000002E-002    0.86714022156264647     
   5.6099999999999997E-002    0.86272746605772355     
   5.6400000000000006E-002    0.84351029156518820     
   5.6700000000000000E-002    0.83025689157671323     
   5.6999999999999995E-002    0.84193365722070013     
   5.7300000000000004E-002    0.89225795939840680     
   5.7599999999999998E-002    0.98704892725274718     
   5.7900000000000007E-002     1.1241967734523044     
   5.8200000000000002E-002     1.2916017052656557     
   5.8499999999999996E-002     1.4676913163544043     
   5.8800000000000005E-002     1.6250386590276200     
   5.9100000000000000E-002     1.7329256431856761     
   5.9400000000000008E-002     1.7610166420820388     
   5.9700000000000003E-002     1.6847521376843169     
   6.0000000000000012E-002     1.4880241660827593     
   6.0300000000000006E-002     1.1679901557394743     
   6.0600000000000001E-002    0.73501355364997067     
   6.0900000000000010E-002    0.21468903638022852     
   6.1200000000000004E-002   -0.35428059528058498     
   6.1500000000000013E-002   -0.92489935778548293     
   6.1800000000000008E-002    -1.4444611822749103     
   6.2100000000000002E-002    -1.8605505708044028     
   6.2399999999999997E-002    -2.1278424403715892     
   6.2700000000000006E-002    -2.2129799158898251     
   6.3000000000000000E-002    -2.0986590256932374     
   6.3300000000000009E-002    -1.7853497915449594     
   6.3600000000000004E-002    -1.2933321700028060     
   6.3899999999999998E-002   -0.66060012301522875     
   6.4199999999999993E-002     6.0902897452974614E-002
   6.4500000000000002E-002    0.80966860785158712     
   6.4800000000000010E-002     1.5212516537838390     
   6.5100000000000005E-002     2.1344334472457689     
   6.5400000000000000E-002     2.5966705106873533     
   6.5700000000000008E-002     2.8684240740543068     
   6.5999999999999989E-002     2.9277259620141862     
   6.6299999999999998E-002     2.7713472166545650     
   6.6600000000000006E-002     2.4128816861638498     
   6.6900000000000001E-002     1.8811712042975586     
   6.7199999999999996E-002     1.2181786321843262     
   6.7500000000000004E-002    0.47335790865754390     
   6.7800000000000013E-002   -0.30165073803311238     
   6.8099999999999994E-002    -1.0573324955329042     
   6.8400000000000002E-002    -1.7492838635311756     
   6.8700000000000011E-002    -2.3412306076251923     
   6.8999999999999992E-002    -2.8076056964642504     
   6.9300000000000000E-002    -3.1341807148021843     
   6.9600000000000009E-002    -3.3161262129518718     
   6.9900000000000004E-002    -3.3588509000963853     
   7.0199999999999999E-002    -3.2744666372436271     
   7.0500000000000007E-002    -3.0800780126100236     
   7.0800000000000016E-002    -2.7971447357403818     
   7.1099999999999997E-002    -2.4475582950373607     
   7.1400000000000005E-002    -2.0531636152678239     
   7.1700000000000000E-002    -1.6342949870653243     
   7.1999999999999995E-002    -1.2085627308197697     
   7.2300000000000003E-002   -0.79105600646484042     
   7.2600000000000012E-002   -0.39331016013024489     
   7.2900000000000006E-002    -2.2578230280470457E-002
   7.3200000000000001E-002    0.31625523473535289     
   7.3499999999999996E-002    0.62132439171305798     
   7.3800000000000004E-002    0.89300968071812648     
   7.4099999999999999E-002     1.1335494979868876     
   7.4400000000000008E-002     1.3461039383868432     
   7.4700000000000003E-002     1.5330922601440164     
   7.5000000000000011E-002     1.6956035608988387     
   7.5299999999999992E-002     1.8346797323541395     
   7.5600000000000001E-002     1.9480730388576148     
   7.5900000000000009E-002     2.0321346362534811     
   7.6200000000000004E-002     2.0817946282949791     
   7.6499999999999999E-002     2.0900526638413979     
   7.6800000000000007E-002     2.0515369673813098     
   7.7099999999999988E-002     1.9617913109117495     
   7.7399999999999997E-002     1.8180230011980072     
   7.7700000000000005E-002     1.6215159721469234     
   7.8000000000000014E-002     1.3772067183076828     
   7.8299999999999995E-002     1.0941219106787834     
   7.8600000000000003E-002    0.78536017179945006     
   7.8900000000000012E-002    0.46575690840903405     
   7.9199999999999993E-002    0.15244607791556231     
   7.9500000000000001E-002   -0.13737272136725442     
   7.9800000000000010E-002   -0.38878345136087056     
   8.0100000000000018E-002   -0.58929358515250918     
   8.0399999999999999E-002   -0.73104734577010788     
   8.0700000000000008E-002   -0.81130150894060904     
   8.1000000000000003E-002   -0.83032814151703604     
   8.1299999999999997E-002   -0.79458110895890499     
   8.1600000000000006E-002   -0.71412669777365423     
   8.1900000000000014E-002   -0.60034424737418135     
   8.2199999999999995E-002   -0.46711326079396898     
   8.2500000000000004E-002   -0.32739181638880410     
   8.2799999999999999E-002   -0.19357541435738135     
   8.3100000000000007E-002    -7.6249134045954570E-002
   8.3400000000000002E-002     1.7306884228643904E-002
   8.3700000000000011E-002     8.1337243132092896E-002
   8.4000000000000005E-002    0.11312919126583321     
   8.4300000000000000E-002    0.11235739592913963     
   8.4599999999999995E-002     7.9988422875456044E-002
   8.4900000000000003E-002     1.8995557852639289E-002
   8.5199999999999998E-002    -6.5755178820223747E-002
   8.5500000000000007E-002   -0.17022384937728763     
   8.5800000000000001E-002   -0.28977667400548057     
   8.6100000000000010E-002   -0.41840116492155666     
   8.6399999999999991E-002   -0.55103105769695304     
   8.6699999999999999E-002   -0.68198248313031584     
   8.7000000000000008E-002   -0.80605400914645386     
   8.7300000000000003E-002   -0.91919271940740188     
   8.7599999999999997E-002    -1.0158705844648104     
   8.7900000000000006E-002    -1.0931895893364150     
   8.8200000000000014E-002    -1.1487003290101541     
   8.8499999999999995E-002    -1.1792948967997283     
   8.8800000000000004E-002    -1.1847052832205627     
   8.9100000000000013E-002    -1.1637249184574365     
   8.9399999999999993E-002    -1.1164320433018453     
   8.9700000000000002E-002    -1.0438432957402597     
   9.0000000000000011E-002   -0.94590125663238922     
   9.0299999999999991E-002   -0.82359122653748074     
   9.0600000000000000E-002   -0.67816128773857365     
   9.0900000000000009E-002   -0.50953920294801769     
   9.1200000000000017E-002   -0.32020293469191241     
   9.1499999999999998E-002   -0.11222137331840476     
   9.1800000000000007E-002    0.11152451745928316     
   9.2100000000000001E-002    0.34599707566425764     
   9.2399999999999996E-002    0.58607429611748785     
   9.2700000000000005E-002    0.82396486749536280     
   9.3000000000000013E-002     1.0506991493012059     
   9.3300000000000008E-002     1.2579239446542587     
   9.3600000000000003E-002     1.4355277041247305     
   9.3899999999999997E-002     1.5746506586162070     
   9.4200000000000006E-002     1.6685108177268617     
   9.4500000000000001E-002     1.7111848754488079     
   9.4800000000000009E-002     1.7003758863156477     
   9.5100000000000004E-002     1.6369735183078902     
   9.5399999999999999E-002     1.5240702984609200     
   9.5699999999999993E-002     1.3681276612620934     
   9.6000000000000002E-002     1.1789158185254607     
   9.6300000000000011E-002    0.96690250457253413     
   9.6600000000000005E-002    0.74349870516289585     
   9.6900000000000000E-002    0.51945570026782661     
   9.7200000000000009E-002    0.30535286804572692     
   9.7499999999999989E-002    0.11070045074703216     
   9.7799999999999998E-002    -6.0105415915140625E-002
   9.8100000000000007E-002   -0.20296079651562682     
   9.8400000000000015E-002   -0.31562217351998179     
   9.8699999999999996E-002   -0.40068697574188938     
   9.9000000000000005E-002   -0.46038372736777511     
   9.9300000000000013E-002   -0.49902227263241272     
   9.9599999999999994E-002   -0.52161175526767600     
   9.9900000000000003E-002   -0.53226500152894651     
  0.10020000000000001        -0.53561179905784329     
  0.10049999999999999        -0.53473066329843455     
  0.10080000000000000        -0.53148168946679597     
  0.10110000000000001        -0.52721405131474519     
  0.10140000000000000        -0.52127088841180758     
  0.10170000000000000        -0.51254171358619871     
  0.10200000000000001        -0.49985940435680121     
  0.10230000000000002        -0.48095728006803107     
  0.10260000000000000        -0.45435522217969648     
  0.10290000000000001        -0.41972393098594196     
  0.10320000000000000        -0.37586288074058238     
  0.10350000000000001        -0.32402467385452383     
  0.10380000000000000        -0.26683315708064903     
  0.10410000000000001        -0.20634293426249339     
  0.10440000000000001        -0.14734614255487610     
  0.10470000000000000         -9.3767312171416872E-002
  0.10500000000000000         -5.0735403631344766E-002
  0.10530000000000000         -2.3482396395666350E-002
  0.10560000000000000         -1.4808522816314285E-002
  0.10590000000000001         -2.8062048887219387E-002
  0.10620000000000000         -6.5214049691135756E-002
  0.10650000000000001        -0.12471641500097919     
  0.10679999999999999        -0.20439267900793201     
  0.10710000000000000        -0.29930333004801568     
  0.10740000000000001        -0.40281536986230115     
  0.10770000000000000        -0.50735718782198802     
  0.10800000000000000        -0.60330537217438618     
  0.10830000000000001        -0.68133529784364910     
  0.10859999999999999        -0.73361639140980728     
  0.10890000000000000        -0.75227640917030314     
  0.10920000000000001        -0.73282407435338115     
  0.10950000000000001        -0.67291723854874164     
  0.10979999999999999        -0.57281233727970715     
  0.11009999999999999        -0.43730742625120733     
  0.11040000000000001        -0.27236291413954561     
  0.11070000000000001         -8.6577051116117132E-002
  0.11100000000000000         0.10925258243022862     
  0.11130000000000000         0.30470887744669639     
  0.11160000000000002         0.48937424987300027     
  0.11190000000000001         0.65345627913013260     
  0.11220000000000001         0.79034227647420607     
  0.11250000000000000         0.89476896550497997     
  0.11280000000000000         0.96421278623815354     
  0.11309999999999999         0.99904555683514928     
  0.11340000000000001          1.0007067386976942     
  0.11369999999999998         0.97333378311516583     
  0.11400000000000000         0.92243006118312465     
  0.11430000000000000         0.85243411692889381     
  0.11460000000000002         0.76981233103308355     
  0.11489999999999999         0.67888456678766218     
  0.11520000000000001         0.58427128238974468     
  0.11550000000000001         0.49047688503606857     
  0.11580000000000000         0.39896064694580424     
  0.11609999999999999         0.31286989313604607     
  0.11640000000000002         0.23396341644962604     
  0.11670000000000001         0.16247245752902373     
  0.11700000000000001          9.9741257661146943E-002
  0.11730000000000000          4.6005320424824969E-002
  0.11760000000000000          1.8461358373098591E-003
  0.11789999999999999         -3.2672862725600993E-002
  0.11820000000000001         -5.8160897300511660E-002
  0.11850000000000001         -7.4636244133178042E-002
  0.11880000000000000         -8.2181552694542415E-002
  0.11910000000000000         -8.1357410517474804E-002
  0.11940000000000002         -7.3066677857062778E-002
  0.11970000000000001         -5.7241063893891830E-002
  0.12000000000000001         -3.4992915966671312E-002
  0.12030000000000000         -6.6314469842152501E-003
  0.12060000000000000          2.6457753163435016E-002
  0.12089999999999999          6.2502515207083276E-002
  0.12119999999999999         0.10062094738215732     
  0.12150000000000001         0.13711661367202055     
  0.12180000000000001         0.16796858541846404     
  0.12210000000000000         0.18988317668722132     
  0.12239999999999999         0.19750054719131960     
  0.12270000000000002         0.18634316497713455     
  0.12300000000000001         0.15137930878978545     
  0.12330000000000001          8.9149010655021677E-002
  0.12360000000000000         -1.3947575123822720E-003
  0.12390000000000000        -0.12111356634355941     
  0.12419999999999999        -0.26782840898155502     
  0.12450000000000001        -0.43606342571436763     
  0.12480000000000001        -0.61944752798402547     
  0.12509999999999999        -0.80956543984325080     
  0.12540000000000001        -0.99606188396508344     
  0.12570000000000003         -1.1696262411777880     
  0.12600000000000000         -1.3202896740670482     
  0.12630000000000002         -1.4401262131931176     
  0.12659999999999999         -1.5230895871704391     
  0.12690000000000001         -1.5646492794284157     
  0.12719999999999998         -1.5643057242393112     
  0.12750000000000000         -1.5232817267457435     
  0.12780000000000002         -1.4437419951828190     
  0.12809999999999999         -1.3312913231235655     
  0.12840000000000001         -1.1914951771047200     
  0.12869999999999998         -1.0299499331730573     
  0.12900000000000000        -0.85241562860914755     
  0.12930000000000003        -0.66377326053595453     
  0.12959999999999999        -0.46844439384072523     
  0.12990000000000002        -0.26957260543801809     
  0.13019999999999998         -6.8291865163232934E-002
  0.13050000000000000         0.13305002103175489     
  0.13080000000000003         0.33369503934538791     
  0.13109999999999999         0.53356563405194635     
  0.13140000000000002         0.73046054545968886     
  0.13169999999999998         0.92393193495412618     
  0.13200000000000001          1.1124543293249829     
  0.13229999999999997          1.2928652072256099     
  0.13260000000000000          1.4628406362993900     
  0.13290000000000002          1.6181796001356616     
  0.13319999999999999          1.7560151692323913     
  0.13350000000000001          1.8723973933936477     
  0.13380000000000003          1.9622157562927569     
  0.13410000000000000          2.0229660342241544     
  0.13440000000000002          2.0518250889605980     
  0.13469999999999999          2.0457604225232870     
  0.13500000000000001          2.0035240435495112     
  0.13529999999999998          1.9259680733945643     
  0.13560000000000000          1.8144879622872310     
  0.13590000000000002          1.6720603031145984     
  0.13619999999999999          1.5035585155852331     
  0.13650000000000001          1.3147978781642209     
  0.13680000000000003          1.1133148544489302     
  0.13710000000000000         0.90618045871831754     
  0.13740000000000002         0.70105630079758541     
  0.13769999999999999         0.50498862776857401     
  0.13800000000000001         0.32172604420373752     
  0.13829999999999998         0.15654247101491592     
  0.13860000000000000          1.0312826438327427E-002
  0.13890000000000002        -0.11960786383918398     
  0.13919999999999999        -0.23539706847830466     
  0.13950000000000001        -0.34238910929103561     
  0.13979999999999998        -0.44699915069401008     
  0.14010000000000000        -0.55642665620849385     
  0.14040000000000002        -0.67747406424249235     
  0.14069999999999999        -0.81483188805445295     
  0.14100000000000001        -0.97273779041416475     
  0.14130000000000004         -1.1530341794113568     
  0.14160000000000000         -1.3540900957774582     
  0.14189999999999997         -1.5736627959859106     
  0.14219999999999999         -1.8068325604484272     
  0.14250000000000002         -2.0453804325508642     
  0.14279999999999998         -2.2819130520691715     
  0.14310000000000000         -2.5085258177344087     
  0.14339999999999997         -2.7152322547181171     
  0.14369999999999999         -2.8940186193418072     
  0.14400000000000002         -3.0373635268626913     
  0.14429999999999998         -3.1386350971472723     
  0.14460000000000001         -3.1923720185422439     
  0.14490000000000003         -3.1939365034092191     
  0.14520000000000000         -3.1405766685004153     
  0.14550000000000002         -3.0308682819091075     
  0.14579999999999999         -2.8636105364595466     
  0.14610000000000001         -2.6401379213980363     
  0.14640000000000003         -2.3619115686421281     
  0.14670000000000000         -2.0312741056238579     
  0.14699999999999996         -1.6530510662137843     
  0.14729999999999999         -1.2311110296671117     
  0.14760000000000001        -0.77052903696860753     
  0.14789999999999998        -0.27867691645827808     
  0.14820000000000000         0.23897768073169079     