  -1.4999999999999999E-002     0.0000000000000000     
  -1.4700000000000000E-002     0.0000000000000000     
  -1.4400000000000000E-002     0.0000000000000000     
  -1.4100000000000000E-002     0.0000000000000000     
  -1.3800000000000000E-002     0.0000000000000000     
  -1.3500000000000000E-002     0.0000000000000000     
  -1.3200000000000000E-002     0.0000000000000000     
  -1.2899999999999998E-002     0.0000000000000000     
  -1.2600000000000000E-002     0.0000000000000000     
  -1.2299999999999998E-002     0.0000000000000000     
  -1.2000000000000000E-002     0.0000000000000000     
  -1.1699999999999999E-002     0.0000000000000000     
  -1.1399999999999999E-002     0.0000000000000000     
  -1.1099999999999999E-002     0.0000000000000000     
  -1.0799999999999999E-002     0.0000000000000000     
  -1.0499999999999999E-002     0.0000000000000000     
  -1.0199999999999999E-002     0.0000000000000000     
  -9.8999999999999991E-003     0.0000000000000000     
  -9.5999999999999992E-003     0.0000000000000000     
  -9.2999999999999992E-003     0.0000000000000000     
  -8.9999999999999993E-003     0.0000000000000000     
  -8.6999999999999994E-003     0.0000000000000000     
  -8.3999999999999995E-003     0.0000000000000000     
  -8.0999999999999996E-003     0.0000000000000000     
  -7.7999999999999988E-003     0.0000000000000000     
  -7.4999999999999997E-003     0.0000000000000000     
  -7.1999999999999998E-003     0.0000000000000000     
  -6.8999999999999981E-003     0.0000000000000000     
  -6.5999999999999982E-003     0.0000000000000000     
  -6.3000000000000000E-003     0.0000000000000000     
  -6.0000000000000001E-003     0.0000000000000000     
  -5.6999999999999985E-003     0.0000000000000000     
  -5.3999999999999986E-003     0.0000000000000000     
  -5.1000000000000004E-003     0.0000000000000000     
  -4.7999999999999987E-003     0.0000000000000000     
  -4.5000000000000005E-003     0.0000000000000000     
  -4.1999999999999989E-003     0.0000000000000000     
  -3.8999999999999990E-003     0.0000000000000000     
  -3.5999999999999990E-003     0.0000000000000000     
  -3.2999999999999991E-003     0.0000000000000000     
  -2.9999999999999992E-003     0.0000000000000000     
  -2.6999999999999993E-003     0.0000000000000000     
  -2.3999999999999994E-003     0.0000000000000000     
  -2.0999999999999977E-003     0.0000000000000000     
  -1.7999999999999995E-003     0.0000000000000000     
  -1.4999999999999979E-003     0.0000000000000000     
  -1.1999999999999997E-003     0.0000000000000000     
  -8.9999999999999976E-004     0.0000000000000000     
  -5.9999999999999810E-004     0.0000000000000000     
  -2.9999999999999992E-004     0.0000000000000000     
   0.0000000000000000          0.0000000000000000     
   3.0000000000000165E-004     0.0000000000000000     
   5.9999999999999984E-004     0.0000000000000000     
   9.0000000000000149E-004     0.0000000000000000     
   1.2000000000000031E-003     0.0000000000000000     
   1.5000000000000013E-003     0.0000000000000000     
   1.8000000000000030E-003     0.0000000000000000     
   2.1000000000000012E-003    -2.5348532833434039E-038
   2.3999999999999994E-003    -7.4520589068800978E-038
   2.7000000000000010E-003     6.2892996869263380E-037
   2.9999999999999992E-003    -2.5041258133027064E-036
   3.3000000000000008E-003    -2.9153261015066161E-036
   3.6000000000000025E-003     2.0836284614327373E-035
   3.9000000000000007E-003    -3.1483991029707177E-035
   4.2000000000000023E-003     1.8415602500701286E-035
   4.5000000000000005E-003     6.1615964112287271E-034
   4.7999999999999987E-003    -2.6194614691468789E-033
   5.1000000000000004E-003     4.7668426902484529E-034
   5.4000000000000020E-003     2.0604669990229606E-032
   5.7000000000000037E-003    -4.5100766236728424E-032
   5.9999999999999984E-003    -2.9394178458796127E-032
   6.3000000000000000E-003     2.9572373093686384E-031
   6.6000000000000017E-003    -5.5772661578041311E-031
   6.9000000000000034E-003     8.5748387102395874E-032
   7.2000000000000015E-003     2.3688046231530182E-030
   7.5000000000000032E-003    -6.8638115237779375E-030
   7.8000000000000014E-003     7.3332569018863243E-030
   8.0999999999999996E-003     7.8031166304591794E-030
   8.4000000000000012E-003    -3.1795198048482753E-029
   8.7000000000000029E-003     1.9743766373858441E-029
   9.0000000000000011E-003    -1.3477016191120771E-029
   9.2999999999999992E-003     5.5577872507301040E-028
   9.6000000000000009E-003    -2.9599532546891661E-027
   9.8999999999999991E-003     7.2447262281553985E-027
   1.0200000000000001E-002    -4.4737098970836428E-027
   1.0500000000000002E-002    -2.6658917149757520E-026
   1.0800000000000004E-002     5.2254706976841273E-026
   1.1099999999999999E-002     3.1011059679946719E-025
   1.1400000000000000E-002    -2.3055928142794179E-024
   1.1700000000000002E-002     7.3138369573500562E-024
   1.2000000000000004E-002    -7.4166829018883084E-024
   1.2300000000000002E-002    -6.3685902722578773E-023
   1.2600000000000000E-002     5.5678602235213818E-022
   1.2900000000000002E-002    -3.1626232738269636E-021
   1.3200000000000000E-002     1.5844110066387769E-020
   1.3500000000000002E-002    -7.5112244693145759E-020
   1.3800000000000003E-002     3.4204135641170284E-019
   1.4100000000000001E-002    -1.4992113836625210E-018
   1.4400000000000000E-002     6.3388610341772986E-018
   1.4700000000000001E-002    -2.5928960637904679E-017
   1.4999999999999999E-002     1.0260592751360691E-016
   1.5300000000000001E-002    -3.8996659491363327E-016
   1.5600000000000003E-002     1.3973567619702323E-015
   1.5899999999999997E-002    -4.5552820854211395E-015
   1.6199999999999999E-002     1.2585200667799514E-014
   1.6500000000000001E-002    -2.4160236802207526E-014
   1.6800000000000002E-002    -3.2878833034434255E-015
   1.7100000000000004E-002     2.9844015036062427E-013
   1.7400000000000006E-002    -1.6055628100959582E-012
   1.7700000000000000E-002     5.2113920158763582E-012
   1.8000000000000002E-002    -9.8388888664027961E-012
   1.8300000000000004E-002    -4.2032228013665879E-013
   1.8600000000000005E-002     6.9989653961707899E-011
   1.8900000000000000E-002    -2.1493720740769151E-010
   1.9200000000000002E-002     1.7300736226303405E-010
   1.9500000000000003E-002     7.4547862211803013E-010
   1.9799999999999998E-002    -2.2122207785939929E-009
   2.0100000000000000E-002    -1.5002667067405666E-010
   2.0400000000000001E-002     9.3642307423123756E-009
   2.0700000000000003E-002    -6.2690410611164493E-009
   2.0999999999999998E-002    -3.3678747452647051E-008
   2.1299999999999999E-002     1.9442515716821257E-008
   2.1600000000000001E-002     1.0584815614072467E-007
   2.1900000000000003E-002    -1.6486911250419390E-008
   2.2200000000000004E-002    -2.8957170214176176E-007
   2.2500000000000006E-002    -8.8910247113231910E-008
   2.2800000000000001E-002     1.0002455217356198E-006
   2.3100000000000002E-002     2.4083410737091602E-006
   2.3400000000000004E-002     3.3967066182935876E-006
   2.3699999999999999E-002     4.5480395826108142E-006
   2.4000000000000000E-002     7.4174491432314098E-006
   2.4300000000000002E-002     1.2683243466989557E-005
   2.4599999999999997E-002     1.9954462191015473E-005
   2.4900000000000005E-002     2.9809203731039524E-005
   2.5200000000000000E-002     4.4826821175063909E-005
   2.5499999999999995E-002     6.8037628136135946E-005
   2.5800000000000003E-002     1.0174025634421486E-004
   2.6099999999999998E-002     1.4915935870802709E-004
   2.6400000000000007E-002     2.1631417596302063E-004
   2.6700000000000002E-002     3.1086593902570313E-004
   2.6999999999999996E-002     4.4021624962198302E-004
   2.7300000000000005E-002     6.1274255532545868E-004
   2.7600000000000000E-002     8.4040605606659075E-004
   2.7900000000000008E-002     1.1379894787416772E-003
   2.8200000000000003E-002     1.5195480698466865E-003
   2.8499999999999998E-002     1.9973406036414634E-003
   2.8800000000000006E-002     2.5840009336323133E-003
   2.9100000000000001E-002     3.2929951241261607E-003
   2.9400000000000003E-002     4.1344180375023354E-003
   2.9700000000000004E-002     5.1108621165741885E-003
   3.0000000000000006E-002     6.2174993403487366E-003
   3.0300000000000001E-002     7.4429948691099868E-003
   3.0600000000000002E-002     8.7670120451177058E-003
   3.0900000000000004E-002     1.0157703053146172E-002
   3.1199999999999999E-002     1.1573499370372720E-002
   3.1500000000000007E-002     1.2968297157193109E-002
   3.1800000000000002E-002     1.4296131146284752E-002
   3.2099999999999997E-002     1.5513611039134900E-002
   3.2400000000000005E-002     1.6588021489795324E-002
   3.2700000000000000E-002     1.7508636071835504E-002
   3.3000000000000002E-002     1.8296690168977947E-002
   3.3300000000000003E-002     1.9007928707739263E-002
   3.3599999999999998E-002     1.9737334446611410E-002
   3.3900000000000000E-002     2.0625711665561042E-002
   3.4200000000000001E-002     2.1853865516542670E-002
   3.4500000000000003E-002     2.3630888352522805E-002
   3.4799999999999998E-002     2.6177062709047627E-002
   3.5099999999999999E-002     2.9707434213625317E-002
   3.5400000000000001E-002     3.4407152081947334E-002
   3.5699999999999996E-002     4.0403637399913706E-002
   3.6000000000000004E-002     4.7740622053156434E-002
   3.6299999999999999E-002     5.6355316466813576E-002
   3.6600000000000008E-002     6.6074307872523885E-002
   3.6900000000000002E-002     7.6610136043209653E-002
   3.7199999999999997E-002     8.7567392417162271E-002
   3.7500000000000006E-002     9.8467778189856858E-002
   3.7800000000000000E-002    0.10878391047250036     
   3.8100000000000009E-002    0.11797746683491184     
   3.8400000000000004E-002    0.12554358203158378     
   3.8699999999999998E-002    0.13104385987596956     
   3.9000000000000007E-002    0.13413342834858444     
   3.9300000000000002E-002    0.13457180310407413     
   3.9600000000000003E-002    0.13222136642444271     
   3.9900000000000005E-002    0.12703054850222406     
   4.0200000000000000E-002    0.11899271212831941     
   4.0500000000000001E-002    0.10808246934959431     
   4.0800000000000003E-002     9.4225675090575223E-002
   4.1100000000000005E-002     7.7276064293506197E-002
   4.1399999999999999E-002     5.6971497514828662E-002
   4.1700000000000008E-002     3.2922805669217570E-002
   4.2000000000000003E-002     4.6448089712823881E-003
   4.2299999999999997E-002    -2.8401749825382461E-002
   4.2600000000000006E-002    -6.6750584941316804E-002
   4.2900000000000001E-002   -0.11085485249386107     
   4.3200000000000002E-002   -0.16099282939860959     
   4.3500000000000004E-002   -0.21720906474411894     
   4.3799999999999999E-002   -0.27925242038782194     
   4.4100000000000000E-002   -0.34651869285428383     
   4.4400000000000002E-002   -0.41803029866128938     
   4.4700000000000004E-002   -0.49244776916354027     
   4.4999999999999998E-002   -0.56807667931360228     
   4.5300000000000000E-002   -0.64285672776425784     
   4.5600000000000002E-002   -0.71443634054656613     
   4.5899999999999996E-002   -0.78020803100307745     
   4.6200000000000005E-002   -0.83727789461490687     
   4.6500000000000000E-002   -0.88254626407449877     
   4.6799999999999994E-002   -0.91275756099373950     
   4.7100000000000003E-002   -0.92455128886750160     
   4.7399999999999998E-002   -0.91459296102465260     
   4.7700000000000006E-002   -0.87966176804097884     
   4.8000000000000001E-002   -0.81690610893537396     
   4.8300000000000010E-002   -0.72404790397576235     
   4.8600000000000004E-002   -0.59961011694546329     
   4.8899999999999999E-002   -0.44322591846394133     
   4.9200000000000008E-002   -0.25593236059260654     
   4.9500000000000002E-002    -4.0360093876732783E-002
   4.9800000000000011E-002    0.19914159900851836     
   5.0100000000000006E-002    0.45638379308231869     
   5.0400000000000000E-002    0.72346351478703497     
   5.0700000000000009E-002    0.99098373200532563     
   5.1000000000000004E-002     1.2483658779018612     
   5.1299999999999998E-002     1.4844853013834864     
   5.1600000000000007E-002     1.6881664301497494     
   5.1900000000000002E-002     1.8488485198952844     
   5.2200000000000010E-002     1.9574333234113226     
   5.2500000000000005E-002     2.0068873463088011     
   5.2800000000000000E-002     1.9929159584272256     
   5.3099999999999994E-002     1.9143378152600050     
   5.3400000000000003E-002     1.7732545769724766     
   5.3699999999999998E-002     1.5753402827804521     
   5.4000000000000006E-002     1.3295326810658530     
   5.4300000000000001E-002     1.0474579644535424     
   5.4599999999999996E-002    0.74284711503838174     
   5.4900000000000004E-002    0.43062173117585334     
   5.5199999999999999E-002    0.12599799671259682     
   5.5499999999999994E-002   -0.15659922449560826     
   5.5800000000000002E-002   -0.40468074181256064     
   5.6099999999999997E-002   -0.60839756781919974     
   5.6400000000000006E-002   -0.76129253733819979     
   5.6700000000000000E-002   -0.86077612615776999     
   5.6999999999999995E-002   -0.90832479839972891     
   5.7300000000000004E-002   -0.90929747222233104     
   5.7599999999999998E-002   -0.87230863157980565     
   5.7900000000000007E-002   -0.80871856908006734     
   5.8200000000000002E-002   -0.73155456738111369     
   5.8499999999999996E-002   -0.65432906360629417     
   5.8800000000000005E-002   -0.58992614404754562     
   5.9100000000000000E-002   -0.54945344888362513     
   5.9400000000000008E-002   -0.54115002352003572     
   5.9700000000000003E-002   -0.56959335486408591     
   6.0000000000000012E-002   -0.63529466527227996     
   6.0300000000000006E-002   -0.73449811714521829     
   6.0600000000000001E-002   -0.85930553281680488     
   6.0900000000000010E-002   -0.99828029274927488     
   6.1200000000000004E-002    -1.1375469586002396     
   6.1500000000000013E-002    -1.2618666713907203     
   6.1800000000000008E-002    -1.3559796384558069     
   6.2100000000000002E-002    -1.4061321135805471     
   6.2399999999999997E-002    -1.4014068853540635     
   6.2700000000000006E-002    -1.3348789381208235     
   6.3000000000000000E-002    -1.2046581886149994     
   6.3300000000000009E-002    -1.0141570500208523     
   6.3600000000000004E-002   -0.77209733836856032     
   6.3899999999999998E-002   -0.49202334560161187     
   6.4199999999999993E-002   -0.19140920701380182     
   6.4500000000000002E-002    0.10970977789419756     
   6.4800000000000010E-002    0.39067005787713427     
   6.5100000000000005E-002    0.63185708065926605     
   6.5400000000000000E-002    0.81623444716366578     
   6.5700000000000008E-002    0.93106085100394154     
   6.5999999999999989E-002    0.96915262176949568     
   6.6299999999999998E-002    0.92942253981553691     
   6.6600000000000006E-002    0.81712891167758350     
   6.6900000000000001E-002    0.64335812758872457     
   6.7199999999999996E-002    0.42407719667379096     
   6.7500000000000004E-002    0.17877635564779126     
   6.7800000000000013E-002    -7.1148082207244334E-002
   6.8099999999999994E-002   -0.30439061399808587     
   6.8400000000000002E-002   -0.50115857985757728     
   6.8700000000000011E-002   -0.64482244766487185     
   6.8999999999999992E-002   -0.72311991272454890     
   6.9300000000000000E-002   -0.72873220865618471     
   6.9600000000000009E-002   -0.65973610299380425     
   6.9900000000000004E-002   -0.51915221183759530     
   7.0199999999999999E-002   -0.31457512551055000     
   7.0500000000000007E-002    -5.7278213922676180E-002
   7.0800000000000016E-002    0.23895065949340832     
   7.1099999999999997E-002    0.55866745935928819     
   7.1400000000000005E-002    0.88585023339333091     
   7.1700000000000000E-002     1.2050105416289156     
   7.1999999999999995E-002     1.5014817044519688     
   7.2300000000000003E-002     1.7622984330689988     
   7.2600000000000012E-002     1.9763254509674866     
   7.2900000000000006E-002     2.1345404062559368     
   7.3200000000000001E-002     2.2303242394247178     
   7.3499999999999996E-002     2.2590710927741782     
   7.3800000000000004E-002     2.2185772672025053     
   7.4099999999999999E-002     2.1092181738692020     
   7.4400000000000008E-002     1.9337894515301528     
   7.4700000000000003E-002     1.6974880359399478     
   7.5000000000000011E-002     1.4083212376203740     
   7.5299999999999992E-002     1.0768271176936572     
   7.5600000000000001E-002    0.71612908500105510     
   7.5900000000000009E-002    0.34125920721125880     
   7.6200000000000004E-002    -3.1243061914935311E-002
   7.6499999999999999E-002   -0.38389431403520469     
   7.6800000000000007E-002   -0.69935754251902083     
   7.7099999999999988E-002   -0.96176772094219487     
   7.7399999999999997E-002    -1.1574766685213831     
   7.7700000000000005E-002    -1.2764982533160847     
   7.8000000000000014E-002    -1.3130844227355993     
   7.8299999999999995E-002    -1.2667038349919721     
   7.8600000000000003E-002    -1.1426135634902117     
   7.8900000000000012E-002   -0.95105360188016164     
   7.9199999999999993E-002   -0.70711028708126200     
   7.9500000000000001E-002   -0.42993322952322544     
   7.9800000000000010E-002   -0.14115264354208445     
   8.0100000000000018E-002    0.13691783594116158     
   8.0399999999999999E-002    0.38286978505241542     
   8.0700000000000008E-002    0.57765166990941808     
   8.1000000000000003E-002    0.70585663259156561     
   8.1299999999999997E-002    0.75777055878020505     
   8.1600000000000006E-002    0.72957259825733978     
   8.1900000000000014E-002    0.62275126327401864     
   8.2199999999999995E-002    0.44450123669660080     
   8.2500000000000004E-002    0.20713872701143465     
   8.2799999999999999E-002    -7.3361456901128719E-002
   8.3100000000000007E-002   -0.37857789501952688     
   8.3400000000000002E-002   -0.68947515546610916     
   8.3700000000000011E-002   -0.98736086322778149     
   8.4000000000000005E-002    -1.2546623662430889     
   8.4300000000000000E-002    -1.4769730029978021     
   8.4599999999999995E-002    -1.6431732484411725     
   8.4900000000000003E-002    -1.7457644379631532     
   8.5199999999999998E-002    -1.7812518116240170     
   8.5500000000000007E-002    -1.7501483045066948     
   8.5800000000000001E-002    -1.6568973920871031     
   8.6100000000000010E-002    -1.5093738899695239     
   8.6399999999999991E-002    -1.3181593974717956     
   8.6699999999999999E-002    -1.0967600069594514     
   8.7000000000000008E-002   -0.86040198299782000     
   8.7300000000000003E-002   -0.62497232117424861     
   8.7599999999999997E-002   -0.40687226951350119     
   8.7900000000000006E-002   -0.22157520805254194     
   8.8200000000000014E-002    -8.2238719075006905E-002
   8.8499999999999995E-002     8.1839083350510045E-004
   8.8800000000000004E-002     2.1332595126187792E-002
   8.9100000000000013E-002    -2.2146797533899587E-002
   8.9399999999999993E-002   -0.12578271203825864     
   8.9700000000000002E-002   -0.27992936616657715     
   9.0000000000000011E-002   -0.47021771957268754     
   9.0299999999999991E-002   -0.67814802106426697     
   9.0600000000000000E-002   -0.88177998281631886     
   9.0900000000000009E-002    -1.0580918442469027     
   9.1200000000000017E-002    -1.1846066831110562     
   9.1499999999999998E-002    -1.2414249887801390     
   9.1800000000000007E-002    -1.2129667801285677     
   9.2100000000000001E-002    -1.0890003412982523     
   9.2399999999999996E-002   -0.86679391101372438     
   9.2700000000000005E-002   -0.55127728059641523     
   9.3000000000000013E-002   -0.15429989064324090     
   9.3300000000000008E-002    0.30524356921057372     
   9.3600000000000003E-002    0.80309004935090655     
   9.3899999999999997E-002     1.3114287010866903     
   9.4200000000000006E-002     1.8003786307884440     
   9.4500000000000001E-002     2.2412554961785247     
   9.4800000000000009E-002     2.6079263573134313     
   9.5100000000000004E-002     2.8782445870988482     
   9.5399999999999999E-002     3.0368745824665098     
   9.5699999999999993E-002     3.0760018172002077     
   9.6000000000000002E-002     2.9950553799807409     
   9.6300000000000011E-002     2.8011342014388561     
   9.6600000000000005E-002     2.5084969298862347     
   9.6900000000000000E-002     2.1372559093046277     
   9.7200000000000009E-002     1.7117809763402185     
   9.7499999999999989E-002     1.2585611936215670     
   9.7799999999999998E-002    0.80471431714548203     
   9.8100000000000007E-002    0.37585283380797030     
   9.8400000000000015E-002    -6.4184957108661678E-003
   9.8699999999999996E-002   -0.32498531325455460     
   9.9000000000000005E-002   -0.56895715735494079     
   9.9300000000000013E-002   -0.73443283433899609     
   9.9599999999999994E-002   -0.82386234826967097     
   9.9900000000000003E-002   -0.84637471810159326     
  0.10020000000000001        -0.81605846481534172     
  0.10049999999999999        -0.75039763675710702     
  0.10080000000000000        -0.66961510427134030     
  0.10110000000000001        -0.59320138344126860     
  0.10140000000000000        -0.53831300376742064     
  0.10170000000000000        -0.51858331590109685     
  0.10200000000000001        -0.54187975322681226     
  0.10230000000000002        -0.60994342283698444     
  0.10260000000000000        -0.71746919362957229     
  0.10290000000000001        -0.85227901969000897     
  0.10320000000000000        -0.99715423796687119     
  0.10350000000000001         -1.1310449199888239     
  0.10380000000000000         -1.2306986470850703     
  0.10410000000000001         -1.2736192370788650     
  0.10440000000000001         -1.2410091488514361     
  0.10470000000000000         -1.1194738093970820     
  0.10500000000000000        -0.90297230169042519     
  0.10530000000000000        -0.59440346552374734     
  0.10560000000000000        -0.20655290560289430     
  0.10590000000000001         0.23914030764338623     
  0.10620000000000000         0.71441291039676713     
  0.10650000000000001          1.1849809662991291     
  0.10679999999999999          1.6143973848849456     
  0.10710000000000000          1.9678689619006420     
  0.10740000000000001          2.2144944345586310     
  0.10770000000000000          2.3311611201924336     
  0.10800000000000000          2.3044875672888523     
  0.10830000000000001          2.1321073004742033     
  0.10859999999999999          1.8238338798203735     
  0.10890000000000000          1.3998737617716861     
  0.10920000000000001         0.88908071651229292     
  0.10950000000000001         0.32671623737301303     
  0.10979999999999999        -0.24931375606946249     
  0.11009999999999999        -0.80184387655499734     
  0.11040000000000001         -1.2984659434156001     
  0.11070000000000001         -1.7138296712607541     
  0.11100000000000000         -2.0311353002762615     
  0.11130000000000000         -2.2443953357650912     
  0.11160000000000002         -2.3582162279922159     
  0.11190000000000001         -2.3856517778684321     
  0.11220000000000001         -2.3473047703069057     
  0.11250000000000000         -2.2685724083109093     
  0.11280000000000000         -2.1763425151136531     
  0.11309999999999999         -2.0961355039260212     
  0.11340000000000001         -2.0491385837856058     
  0.11369999999999998         -2.0500345130515853     
  0.11400000000000000         -2.1051999642966166     
  0.11430000000000000         -2.2114075111819176     
  0.11460000000000002         -2.3568030996813718     
  0.11489999999999999         -2.5209875479434629     
  0.11520000000000001         -2.6762046344610866     
  0.11550000000000001         -2.7906770511899737     
  0.11580000000000000         -2.8308134169600905     
  0.11609999999999999         -2.7640577301416300     
  0.11640000000000002         -2.5622534442612164     
  0.11670000000000001         -2.2036745971072662     
  0.11700000000000001         -1.6765790780612555     
  0.11730000000000000        -0.98047863881954100     
  0.11760000000000000        -0.12596377837911987     
  0.11789999999999999         0.86374384875476373     
  0.11820000000000001          1.9541663350722231     
  0.11850000000000001          3.1014711118605476     
  0.11880000000000000          4.2547188678189798     
  0.11910000000000000          5.3594672422202621     
  0.11940000000000002          6.3604462611047836     
  0.11970000000000001          7.2049821834447414     
  0.12000000000000001          7.8476558283898612     
  0.12030000000000000          8.2520978395222073     
  0.12060000000000000          8.3930950535470004     
  0.12089999999999999          8.2593170533082230     
  0.12119999999999999          7.8534273966582191     
  0.12150000000000001          7.1915681174602355     
  0.12180000000000001          6.3019565735372538     
  0.12210000000000000          5.2233402855181552     
  0.12239999999999999          4.0028833263948478     
  0.12270000000000002          2.6916830106193785     
  0.12300000000000001          1.3414184466666441     
  0.12330000000000001          2.7393870013856514E-003
  0.12360000000000000         -1.2791558252370478     
  0.12390000000000000         -2.4667579631037881     
  0.12419999999999999         -3.5319527855861139     
  0.12450000000000001         -4.4571255727612424     
  0.12480000000000001         -5.2335342257441084     
  0.12509999999999999         -5.8615605207074282     
  0.12540000000000001         -6.3501035334365099     
  0.12570000000000003         -6.7115164156683704     
  0.12600000000000000         -6.9600618590645240     
  0.12630000000000002         -7.1099330884042899     
  0.12659999999999999         -7.1720022126363006     
  0.12690000000000001         -7.1518941326901881     
  0.12719999999999998         -7.0484636066284736     
  0.12750000000000000         -6.8541603382162180     
  0.12780000000000002         -6.5567666452066078     
  0.12809999999999999         -6.1388874019054640     
  0.12840000000000001         -5.5811480133951576     
  0.12869999999999998         -4.8665800911351980     
  0.12900000000000000         -3.9822837036039189     
  0.12930000000000003         -2.9229079214436666     
  0.12959999999999999         -1.6939450210943079     
  0.12990000000000002        -0.31325640509278685     
  0.13019999999999998          1.1872767020832793     
  0.13050000000000000          2.7629411853032835     
  0.13080000000000003          4.3571884857754952     
  0.13109999999999999          5.9029552086984722     
  0.13140000000000002          7.3284577301639331     
  0.13169999999999998          8.5605012149381423     
  0.13200000000000001          9.5290671859472695     
  0.13229999999999997          10.173671599930003     
  0.13260000000000000          10.446611093774550     
  0.13290000000000002          10.318159468407572     
  0.13319999999999999          9.7791912934934544     
  0.13350000000000001          8.8406274157731133     
  0.13380000000000003          7.5352589777831831     
  0.13410000000000000          5.9161283979664177     
  0.13440000000000002          4.0514098670207943     
  0.13469999999999999          2.0209842333528059     
  0.13500000000000001         -8.7795437480252758E-002
  0.13529999999999998         -2.1858939691234127     
  0.13560000000000000         -4.1872905021721323     
  0.13590000000000002         -6.0142394946229274     
  0.13619999999999999         -7.5988182554858099     
  0.13650000000000001         -8.8858105439502992     
  0.13680000000000003         -9.8351751098141449     
  0.13710000000000000         -10.420393691578397     
  0.13740000000000002         -10.628148669270132     
  0.13769999999999999         -10.459257242041161     
  0.13800000000000001         -9.9255776818863524     
  0.13829999999999998         -9.0497453303386948     
  0.13860000000000000         -7.8647560403547878     
  0.13890000000000002         -6.4127137169629620     
  0.13919999999999999         -4.7447144691505230     
  0.13950000000000001         -2.9198236953188825     
  0.13979999999999998         -1.0048632411894829     
  0.14010000000000000         0.92783911509476802     
  0.14040000000000002          2.8028640558292821     
  0.14069999999999999          4.5437643097764209     
  0.14100000000000001          6.0768247552798300     
  0.14130000000000004          7.3364160006299244     
  0.14160000000000000          8.2681546140435955     
  0.14189999999999997          8.8320376407330627     
  0.14219999999999999          9.0069444732843067     
  0.14250000000000002          8.7926856974914358     
  0.14279999999999998          8.2092816898337162     
  0.14310000000000000          7.2974640955892340     
  0.14339999999999997          6.1157760787430888     
  0.14369999999999999          4.7362421066942915     
  0.14400000000000002          3.2409196359623422     
  0.14429999999999998          1.7155248313345624     
  0.14460000000000001         0.24455415753421761     
  0.14490000000000003         -1.0940969508804770     
  0.14520000000000000         -2.2338115206500859     
  0.14550000000000002         -3.1217281406564581     
  0.14579999999999999         -3.7224580476543849     
  0.14610000000000001         -4.0193204512899570     
  0.14640000000000003         -4.0125336672845435     
  0.14670000000000000         -3.7204985244484483     
  0.14699999999999996         -3.1773941261635059     
  0.14729999999999999         -2.4301269542409898     
  0.14760000000000001         -1.5365445134784323     
  0.14789999999999998        -0.56101810223285753     
  0.14820000000000000         0.42876287160138293     