  -1.4999999999999999E-002     0.0000000000000000     
  -1.4700000000000000E-002     0.0000000000000000     
  -1.4400000000000000E-002     0.0000000000000000     
  -1.4100000000000000E-002     0.0000000000000000     
  -1.3800000000000000E-002     0.0000000000000000     
  -1.3500000000000000E-002     0.0000000000000000     
  -1.3200000000000000E-002     0.0000000000000000     
  -1.2899999999999998E-002     0.0000000000000000     
  -1.2600000000000000E-002     0.0000000000000000     
  -1.2299999999999998E-002     0.0000000000000000     
  -1.2000000000000000E-002     0.0000000000000000     
  -1.1699999999999999E-002     0.0000000000000000     
  -1.1399999999999999E-002     0.0000000000000000     
  -1.1099999999999999E-002     0.0000000000000000     
  -1.0799999999999999E-002     0.0000000000000000     
  -1.0499999999999999E-002     0.0000000000000000     
  -1.0199999999999999E-002     0.0000000000000000     
  -9.8999999999999991E-003     0.0000000000000000     
  -9.5999999999999992E-003     0.0000000000000000     
  -9.2999999999999992E-003     0.0000000000000000     
  -8.9999999999999993E-003     0.0000000000000000     
  -8.6999999999999994E-003     0.0000000000000000     
  -8.3999999999999995E-003     0.0000000000000000     
  -8.0999999999999996E-003     0.0000000000000000     
  -7.7999999999999988E-003     0.0000000000000000     
  -7.4999999999999997E-003     0.0000000000000000     
  -7.1999999999999998E-003     0.0000000000000000     
  -6.8999999999999981E-003     0.0000000000000000     
  -6.5999999999999982E-003     0.0000000000000000     
  -6.3000000000000000E-003     0.0000000000000000     
  -6.0000000000000001E-003     0.0000000000000000     
  -5.6999999999999985E-003     0.0000000000000000     
  -5.3999999999999986E-003     0.0000000000000000     
  -5.1000000000000004E-003     0.0000000000000000     
  -4.7999999999999987E-003     0.0000000000000000     
  -4.5000000000000005E-003     0.0000000000000000     
  -4.1999999999999989E-003     0.0000000000000000     
  -3.8999999999999990E-003     0.0000000000000000     
  -3.5999999999999990E-003     0.0000000000000000     
  -3.2999999999999991E-003     0.0000000000000000     
  -2.9999999999999992E-003     0.0000000000000000     
  -2.6999999999999993E-003     0.0000000000000000     
  -2.3999999999999994E-003     0.0000000000000000     
  -2.0999999999999977E-003     0.0000000000000000     
  -1.7999999999999995E-003     0.0000000000000000     
  -1.4999999999999979E-003     0.0000000000000000     
  -1.1999999999999997E-003     0.0000000000000000     
  -8.9999999999999976E-004     0.0000000000000000     
  -5.9999999999999810E-004     0.0000000000000000     
  -2.9999999999999992E-004     0.0000000000000000     
   0.0000000000000000          0.0000000000000000     
   3.0000000000000165E-004     0.0000000000000000     
   5.9999999999999984E-004     0.0000000000000000     
   9.0000000000000149E-004     0.0000000000000000     
   1.2000000000000031E-003     0.0000000000000000     
   1.5000000000000013E-003     0.0000000000000000     
   1.8000000000000030E-003     0.0000000000000000     
   2.1000000000000012E-003     0.0000000000000000     
   2.3999999999999994E-003     0.0000000000000000     
   2.7000000000000010E-003     0.0000000000000000     
   2.9999999999999992E-003     0.0000000000000000     
   3.3000000000000008E-003     0.0000000000000000     
   3.6000000000000025E-003     0.0000000000000000     
   3.9000000000000007E-003     0.0000000000000000     
   4.2000000000000023E-003     0.0000000000000000     
   4.5000000000000005E-003     0.0000000000000000     
   4.7999999999999987E-003     0.0000000000000000     
   5.1000000000000004E-003     0.0000000000000000     
   5.4000000000000020E-003     0.0000000000000000     
   5.7000000000000037E-003     0.0000000000000000     
   5.9999999999999984E-003     0.0000000000000000     
   6.3000000000000000E-003     0.0000000000000000     
   6.6000000000000017E-003     0.0000000000000000     
   6.9000000000000034E-003     0.0000000000000000     
   7.2000000000000015E-003     0.0000000000000000     
   7.5000000000000032E-003     0.0000000000000000     
   7.8000000000000014E-003     0.0000000000000000     
   8.0999999999999996E-003     0.0000000000000000     
   8.4000000000000012E-003     0.0000000000000000     
   8.7000000000000029E-003     0.0000000000000000     
   9.0000000000000011E-003     0.0000000000000000     
   9.2999999999999992E-003     0.0000000000000000     
   9.6000000000000009E-003     0.0000000000000000     
   9.8999999999999991E-003     0.0000000000000000     
   1.0200000000000001E-002     0.0000000000000000     
   1.0500000000000002E-002     0.0000000000000000     
   1.0800000000000004E-002     0.0000000000000000     
   1.1099999999999999E-002     0.0000000000000000     
   1.1400000000000000E-002     0.0000000000000000     
   1.1700000000000002E-002     0.0000000000000000     
   1.2000000000000004E-002     0.0000000000000000     
   1.2300000000000002E-002     0.0000000000000000     
   1.2600000000000000E-002     0.0000000000000000     
   1.2900000000000002E-002     0.0000000000000000     
   1.3200000000000000E-002     0.0000000000000000     
   1.3500000000000002E-002     0.0000000000000000     
   1.3800000000000003E-002     0.0000000000000000     
   1.4100000000000001E-002     0.0000000000000000     
   1.4400000000000000E-002     0.0000000000000000     
   1.4700000000000001E-002     0.0000000000000000     
   1.4999999999999999E-002     0.0000000000000000     
   1.5300000000000001E-002     0.0000000000000000     
   1.5600000000000003E-002     0.0000000000000000     
   1.5899999999999997E-002     0.0000000000000000     
   1.6199999999999999E-002     0.0000000000000000     
   1.6500000000000001E-002     0.0000000000000000     
   1.6800000000000002E-002     0.0000000000000000     
   1.7100000000000004E-002     0.0000000000000000     
   1.7400000000000006E-002     0.0000000000000000     
   1.7700000000000000E-002     0.0000000000000000     
   1.8000000000000002E-002     0.0000000000000000     
   1.8300000000000004E-002     0.0000000000000000     
   1.8600000000000005E-002     0.0000000000000000     
   1.8900000000000000E-002     0.0000000000000000     
   1.9200000000000002E-002     0.0000000000000000     
   1.9500000000000003E-002     0.0000000000000000     
   1.9799999999999998E-002     0.0000000000000000     
   2.0100000000000000E-002     0.0000000000000000     
   2.0400000000000001E-002     0.0000000000000000     
   2.0700000000000003E-002     0.0000000000000000     
   2.0999999999999998E-002     0.0000000000000000     
   2.1299999999999999E-002     0.0000000000000000     
   2.1600000000000001E-002     0.0000000000000000     
   2.1900000000000003E-002     0.0000000000000000     
   2.2200000000000004E-002     0.0000000000000000     
   2.2500000000000006E-002     0.0000000000000000     
   2.2800000000000001E-002     0.0000000000000000     
   2.3100000000000002E-002     0.0000000000000000     
   2.3400000000000004E-002     0.0000000000000000     
   2.3699999999999999E-002     0.0000000000000000     
   2.4000000000000000E-002     0.0000000000000000     
   2.4300000000000002E-002     0.0000000000000000     
   2.4599999999999997E-002     0.0000000000000000     
   2.4900000000000005E-002     0.0000000000000000     
   2.5200000000000000E-002     0.0000000000000000     
   2.5499999999999995E-002     0.0000000000000000     
   2.5800000000000003E-002     0.0000000000000000     
   2.6099999999999998E-002     0.0000000000000000     
   2.6400000000000007E-002     0.0000000000000000     
   2.6700000000000002E-002     0.0000000000000000     
   2.6999999999999996E-002     0.0000000000000000     
   2.7300000000000005E-002     0.0000000000000000     
   2.7600000000000000E-002     0.0000000000000000     
   2.7900000000000008E-002     0.0000000000000000     
   2.8200000000000003E-002     0.0000000000000000     
   2.8499999999999998E-002     0.0000000000000000     
   2.8800000000000006E-002     0.0000000000000000     
   2.9100000000000001E-002     0.0000000000000000     
   2.9400000000000003E-002     0.0000000000000000     
   2.9700000000000004E-002     0.0000000000000000     
   3.0000000000000006E-002     0.0000000000000000     
   3.0300000000000001E-002     0.0000000000000000     
   3.0600000000000002E-002     0.0000000000000000     
   3.0900000000000004E-002     0.0000000000000000     
   3.1199999999999999E-002     0.0000000000000000     
   3.1500000000000007E-002     0.0000000000000000     
   3.1800000000000002E-002     0.0000000000000000     
   3.2099999999999997E-002     0.0000000000000000     
   3.2400000000000005E-002     0.0000000000000000     
   3.2700000000000000E-002     0.0000000000000000     
   3.3000000000000002E-002     0.0000000000000000     
   3.3300000000000003E-002     0.0000000000000000     
   3.3599999999999998E-002     0.0000000000000000     
   3.3900000000000000E-002     0.0000000000000000     
   3.4200000000000001E-002    -2.3610568909809024E-037
   3.4500000000000003E-002     5.0311803036695249E-036
   3.4799999999999998E-002    -3.6792798663989491E-035
   3.5099999999999999E-002     1.7766966649685471E-034
   3.5400000000000001E-002    -6.0643617257363599E-034
   3.5699999999999996E-002     1.3564670089878559E-033
   3.6000000000000004E-002    -3.7726128552771285E-033
   3.6299999999999999E-002     1.5556021772437431E-032
   3.6600000000000008E-002    -6.9393373315871904E-032
   3.6900000000000002E-002     3.0171618964601939E-031
   3.7199999999999997E-002    -1.2693745134020371E-030
   3.7500000000000006E-002     5.1192981001978099E-030
   3.7800000000000000E-002    -1.9494400139194031E-029
   3.8100000000000009E-002     6.8670879969245844E-029
   3.8400000000000004E-002    -2.1713975201891299E-028
   3.8699999999999998E-002     5.8329735600582727E-028
   3.9000000000000007E-002    -1.1410399133857339E-027
   3.9300000000000002E-002     3.2905874558659140E-028
   3.9600000000000003E-002     1.1181757925663533E-026
   3.9900000000000005E-002    -7.2739833563368045E-026
   4.0200000000000000E-002     3.2027037629309955E-025
   4.0500000000000001E-002    -1.1535783209420856E-024
   4.0800000000000003E-002     3.5763852288325067E-024
   4.1100000000000005E-002    -9.6714838801677560E-024
   4.1399999999999999E-002     2.2570477511660405E-023
   4.1700000000000008E-002    -4.3055213925483419E-023
   4.2000000000000003E-002     5.2338812653876535E-023
   4.2299999999999997E-002     5.5724502825648773E-023
   4.2600000000000006E-002    -7.1975654121683893E-022
   4.2900000000000001E-002     3.5414845390238419E-021
   4.3200000000000002E-002    -1.3843841551441478E-020
   4.3500000000000004E-002     4.7433909693579636E-020
   4.3799999999999999E-002    -1.4424506122583212E-019
   4.4100000000000000E-002     3.8009247821240213E-019
   4.4400000000000002E-002    -8.0673387084984335E-019
   4.4700000000000004E-002     1.0416008473954397E-018
   4.4999999999999998E-002     1.2863310436941621E-018
   4.5300000000000000E-002    -1.4791493171771173E-017
   4.5600000000000002E-002     6.2279573490431015E-017
   4.5899999999999996E-002    -1.8461535653083318E-016
   4.6200000000000005E-002     3.9712666467586930E-016
   4.6500000000000000E-002    -4.6454847671229941E-016
   4.6799999999999994E-002    -7.5839078020991425E-016
   4.7100000000000003E-002     6.4778601954288807E-015
   4.7399999999999998E-002    -2.1917015706889583E-014
   4.7700000000000006E-002     4.5774989286910423E-014
   4.8000000000000001E-002    -3.6895526947525380E-014
   4.8300000000000010E-002    -1.5237965787908699E-013
   4.8600000000000004E-002     7.8918040417792681E-013
   4.8899999999999999E-002    -1.8492667274442811E-012
   4.9200000000000008E-002     1.5348288684328354E-012
   4.9500000000000002E-002     5.8187547436190956E-012
   4.9800000000000011E-002    -2.6589667568976421E-011
   5.0100000000000006E-002     4.5270969155630852E-011
   5.0400000000000000E-002     1.8482365058373631E-011
   5.0700000000000009E-002    -2.8321751282710652E-010
   5.1000000000000004E-002     5.8279445535173943E-010
   5.1299999999999998E-002     1.0246460532881403E-010
   5.1600000000000007E-002    -2.9466846569310119E-009
   5.1900000000000002E-002     4.7538611882478343E-009
   5.2200000000000010E-002     5.6093728294168327E-009
   5.2500000000000005E-002    -2.7180742683126196E-008
   5.2800000000000000E-002     2.6734069487283885E-009
   5.3099999999999994E-002     1.0320499959377671E-007
   5.3400000000000003E-002    -5.3070874308533848E-008
   5.3699999999999998E-002    -4.7685920839987312E-007
   5.4000000000000006E-002     2.4342601868261391E-007
   5.4300000000000001E-002     5.1708156984082831E-006
   5.4599999999999996E-002     1.5963585261496733E-005
   5.4900000000000004E-002     2.8291045343510905E-005
   5.5199999999999999E-002     3.6745770607144639E-005
   5.5499999999999994E-002     4.5365624394611221E-005
   5.5800000000000002E-002     6.3284904627244247E-005
   5.6099999999999997E-002     9.5997518292053382E-005
   5.6400000000000006E-002     1.4982076718981314E-004
   5.6700000000000000E-002     2.3156483545580444E-004
   5.6999999999999995E-002     3.4620637330237940E-004
   5.7300000000000004E-002     5.0507055544604662E-004
   5.7599999999999998E-002     7.2311423374711928E-004
   5.7900000000000007E-002     1.0164016468925223E-003
   5.8200000000000002E-002     1.4078550203963924E-003
   5.8499999999999996E-002     1.9146651860742422E-003
   5.8800000000000005E-002     2.5498599184900286E-003
   5.9100000000000000E-002     3.3369592873348647E-003
   5.9400000000000008E-002     4.2873914797406931E-003
   5.9700000000000003E-002     5.3908776431187966E-003
   6.0000000000000012E-002     6.6271453857124074E-003
   6.0300000000000006E-002     7.9436867621909268E-003
   6.0600000000000001E-002     9.2478429074446256E-003
   6.0900000000000010E-002     1.0405981486279581E-002
   6.1200000000000004E-002     1.1224773929665921E-002
   6.1500000000000013E-002     1.1467345999245648E-002
   6.1800000000000008E-002     1.0854054758842213E-002
   6.2100000000000002E-002     9.0383287028668047E-003
   6.2399999999999997E-002     5.6430250325319453E-003
   6.2700000000000006E-002     2.9418342820886415E-004
   6.3000000000000000E-002    -7.3667129268937467E-003
   6.3300000000000009E-002    -1.7617469086455700E-002
   6.3600000000000004E-002    -3.0626300289935404E-002
   6.3899999999999998E-002    -4.6405925249043967E-002
   6.4199999999999993E-002    -6.4748405233753248E-002
   6.4500000000000002E-002    -8.5208025481109617E-002
   6.4800000000000010E-002   -0.10710016576516734     
   6.5100000000000005E-002   -0.12948358936286652     
   6.5400000000000000E-002   -0.15121772152599799     
   6.5700000000000008E-002   -0.17101488019274314     
   6.5999999999999989E-002   -0.18752060251948510     
   6.6299999999999998E-002   -0.19942270854988564     
   6.6600000000000006E-002   -0.20558137922365294     
   6.6900000000000001E-002   -0.20513873247455905     
   6.7199999999999996E-002   -0.19760127825245988     
   6.7500000000000004E-002   -0.18290935570805544     
   6.7800000000000013E-002   -0.16144132905443254     
   6.8099999999999994E-002   -0.13398155036073067     
   6.8400000000000002E-002   -0.10164016155244315     
   6.8700000000000011E-002    -6.5792982984503201E-002
   6.8999999999999992E-002    -2.7920398849785255E-002
   6.9300000000000000E-002     1.0571073970560674E-002
   6.9600000000000009E-002     4.8400604706549499E-002
   6.9900000000000004E-002     8.4550846073751629E-002
   7.0199999999999999E-002    0.11824435893138974     
   7.0500000000000007E-002    0.14892624101803875     
   7.0800000000000016E-002    0.17627917334203502     
   7.1099999999999997E-002    0.20001162346773338     
   7.1400000000000005E-002    0.21982835337162054     
   7.1700000000000000E-002    0.23525583169687980     
   7.1999999999999995E-002    0.24566366595905009     
   7.2300000000000003E-002    0.25022668279344096     
   7.2600000000000012E-002    0.24796011721526767     
   7.2900000000000006E-002    0.23785894733804458     
   7.3200000000000001E-002    0.21911330047730893     
   7.3499999999999996E-002    0.19122925073247021     
   7.3800000000000004E-002    0.15427964977381681     
   7.4099999999999999E-002    0.10906357401168254     
   7.4400000000000008E-002     5.7212404715665688E-002
   7.4700000000000003E-002     1.2168832834534848E-003
   7.5000000000000011E-002    -5.5667614361047169E-002
   7.5299999999999992E-002   -0.10964908342194524     
   7.5600000000000001E-002   -0.15645212112709395     
   7.5900000000000009E-002   -0.19192805207396724     
   7.6200000000000004E-002   -0.21206437414681734     
   7.6499999999999999E-002   -0.21357072122562215     
   7.6800000000000007E-002   -0.19399396685025216     
   7.7099999999999988E-002   -0.15205370809830931     
   7.7399999999999997E-002    -8.7693862159457847E-002
   7.7700000000000005E-002    -2.3051320359743221E-003
   7.8000000000000014E-002    0.10148521130457899     
   7.8299999999999995E-002    0.21978050071150590     
   7.8600000000000003E-002    0.34760902430749407     
   7.8900000000000012E-002    0.47921629631532170     
   7.9199999999999993E-002    0.60823900411039844     
   7.9500000000000001E-002    0.72805340093287896     
   7.9800000000000010E-002    0.83208755804623280     
   8.0100000000000018E-002    0.91415693347645899     
   8.0399999999999999E-002    0.96871901837178598     
   8.0700000000000008E-002    0.99136480418010464     
   8.1000000000000003E-002    0.97881651380086865     
   8.1299999999999997E-002    0.92945825153111272     
   8.1600000000000006E-002    0.84332624539793244     
   8.1900000000000014E-002    0.72231002243364983     
   8.2199999999999995E-002    0.57011980823577701     
   8.2500000000000004E-002    0.39217699333918432     
   8.2799999999999999E-002    0.19539757580914152     
   8.3100000000000007E-002    -1.2075751007155855E-002
   8.3400000000000002E-002   -0.22151742318883239     
   8.3700000000000011E-002   -0.42395703267386686     
   8.4000000000000005E-002   -0.61092864895143606     
   8.4300000000000000E-002   -0.77484177717097324     
   8.4599999999999995E-002   -0.90984551763024157     
   8.4900000000000003E-002    -1.0118860062668311     
   8.5199999999999998E-002    -1.0792433474620324     
   8.5500000000000007E-002    -1.1124865650921194     
   8.5800000000000001E-002    -1.1143456922433614     
   8.6100000000000010E-002    -1.0895850291983820     
   8.6399999999999991E-002    -1.0440759055093025     
   8.6699999999999999E-002   -0.98473905763765046     
   8.7000000000000008E-002   -0.91821504113493901     
   8.7300000000000003E-002   -0.85089219855211340     
   8.7599999999999997E-002   -0.78758555433959998     
   8.7900000000000006E-002   -0.73173616020975984     
   8.8200000000000014E-002   -0.68473169221428876     
   8.8499999999999995E-002   -0.64610032574244158     
   8.8800000000000004E-002   -0.61366745833085545     
   8.9100000000000013E-002   -0.58383738802271168     
   8.9399999999999993E-002   -0.55232861864373461     
   8.9700000000000002E-002   -0.51455462481948544     
   9.0000000000000011E-002   -0.46632224549134094     
   9.0299999999999991E-002   -0.40433982677389047     
   9.0600000000000000E-002   -0.32655127382373372     
   9.0900000000000009E-002   -0.23234633772346758     
   9.1200000000000017E-002   -0.12286283338615656     
   9.1499999999999998E-002    -2.8587666399304545E-004
   9.1800000000000007E-002    0.13178019964527365     
   9.2100000000000001E-002    0.26908241130915811     
   9.2399999999999996E-002    0.40688740152894898     
   9.2700000000000005E-002    0.54050669268685070     
   9.3000000000000013E-002    0.66549483887338923     
   9.3300000000000008E-002    0.77799032153861347     
   9.3600000000000003E-002    0.87465157439130437     
   9.3899999999999997E-002    0.95288381546010115     
   9.4200000000000006E-002     1.0106919609045697     
   9.4500000000000001E-002     1.0466153810277241     
   9.4800000000000009E-002     1.0596566438086654     
   9.5100000000000004E-002     1.0491981445783338     
   9.5399999999999999E-002     1.0148048051932435     
   9.5699999999999993E-002    0.95658851962700453     
   9.6000000000000002E-002    0.87484213557548784     
   9.6300000000000011E-002    0.77050238591823117     
   9.6600000000000005E-002    0.64502347479377775     
   9.6900000000000000E-002    0.50060284855186943     
   9.7200000000000009E-002    0.34025039080640340     
   9.7499999999999989E-002    0.16762014135637493     
   9.7799999999999998E-002    -1.2583905136666296E-002
   9.8100000000000007E-002   -0.19538805851595997     
   9.8400000000000015E-002   -0.37513551580411542     
   9.8699999999999996E-002   -0.54608821483037406     
   9.9000000000000005E-002   -0.70260218188135504     
   9.9300000000000013E-002   -0.83930595165237065     
   9.9599999999999994E-002   -0.95156114993410412     
   9.9900000000000003E-002    -1.0354241988927058     
  0.10020000000000001         -1.0882535439640186     
  0.10049999999999999         -1.1082079426798401     
  0.10080000000000000         -1.0949668402255384     
  0.10110000000000001         -1.0490884241275609     
  0.10140000000000000        -0.97247310987282987     
  0.10170000000000000        -0.86816196107518095     
  0.10200000000000001        -0.73971979145572320     
  0.10230000000000002        -0.59191354240693528     
  0.10260000000000000        -0.42985376283233734     
  0.10290000000000001        -0.25922664186695776     
  0.10320000000000000         -8.5937432089558508E-002
  0.10350000000000001          8.3992456541552407E-002
  0.10380000000000000         0.24475708956555597     
  0.10410000000000001         0.39086263828665579     
  0.10440000000000001         0.51745317617108455     
  0.10470000000000000         0.62059958745680888     
  0.10500000000000000         0.69737611609905059     
  0.10530000000000000         0.74627884527685495     
  0.10560000000000000         0.76718223835519339     
  0.10590000000000001         0.76155118830325463     
  0.10620000000000000         0.73224506072870454     
  0.10650000000000001         0.68328963997071668     
  0.10679999999999999         0.62005044489318806     
  0.10710000000000000         0.54827119006726832     
  0.10740000000000001         0.47409424298759362     
  0.10770000000000000         0.40341695290463164     
  0.10800000000000000         0.34156216525004979     
  0.10830000000000001         0.29285034238330354     
  0.10859999999999999         0.26044716466969575     
  0.10890000000000000         0.24599394002135710     
  0.10920000000000001         0.24994839828014648     
  0.10950000000000001         0.27122829850396801     
  0.10979999999999999         0.30780596403084992     
  0.11009999999999999         0.35687351068252227     
  0.11040000000000001         0.41479329858063529     
  0.11070000000000001         0.47788401781364698     
  0.11100000000000000         0.54235678041449908     
  0.11130000000000000         0.60442704549520698     
  0.11160000000000002         0.66071377682829535     
  0.11190000000000001         0.70794223507347809     
  0.11220000000000001         0.74317674185117255     
  0.11250000000000000         0.76369151583665840     
  0.11280000000000000         0.76692800805873773     
  0.11309999999999999         0.75056807037269024     
  0.11340000000000001         0.71257662877841810     
  0.11369999999999998         0.65108452917410631     
  0.11400000000000000         0.56479952992897253     
  0.11430000000000000         0.45302572997393575     
  0.11460000000000002         0.31584977531156788     
  0.11489999999999999         0.15455949953688197     
  0.11520000000000001         -2.8558750025955870E-002
  0.11550000000000001        -0.22970862762367972     
  0.11580000000000000        -0.44369657429954223     
  0.11609999999999999        -0.66403795507753571     
  0.11640000000000002        -0.88287933173587518     
  0.11670000000000001         -1.0914555173686153     
  0.11700000000000001         -1.2804862490486109     
  0.11730000000000000         -1.4404771440162207     
  0.11760000000000000         -1.5624408014879236     
  0.11789999999999999         -1.6385073692479253     
  0.11820000000000001         -1.6623852375617219     
  0.11850000000000001         -1.6302089263491482     
  0.11880000000000000         -1.5408493480071073     
  0.11910000000000000         -1.3962003314442839     
  0.11940000000000002         -1.2014278682619519     
  0.11970000000000001        -0.96486035117423441     
  0.12000000000000001        -0.69764435008521275     
  0.12030000000000000        -0.41311365955528956     
  0.12060000000000000        -0.12614850674699185     
  0.12089999999999999         0.14787383478027394     
  0.12119999999999999         0.39384127081943232     
  0.12150000000000001         0.59842142676711774     
  0.12180000000000001         0.75036794099262316     
  0.12210000000000000         0.84184203838751515     
  0.12239999999999999         0.86870264227840366     
  0.12270000000000002         0.83082294783451616     
  0.12300000000000001         0.73237954912787728     
  0.12330000000000001         0.58114233908264268     
  0.12360000000000000         0.38835545907668489     
  0.12390000000000000         0.16772649717378219     
  0.12419999999999999         -6.5405682116719710E-002
  0.12450000000000001        -0.29500469091177450     
  0.12480000000000001        -0.50571438725202933     
  0.12509999999999999        -0.68345035360239770     
  0.12540000000000001        -0.81653159757894578     
  0.12570000000000003        -0.89635760834758571     
  0.12600000000000000        -0.91786769114683509     
  0.12630000000000002        -0.88008538666799652     
  0.12659999999999999        -0.78551160444656531     
  0.12690000000000001        -0.64079090175227194     
  0.12719999999999998        -0.45538872443721523     
  0.12750000000000000        -0.24151209449641442     
  0.12780000000000002         -1.2964370575254902E-002
  0.12809999999999999         0.21579765916276905     
  0.12840000000000001         0.43014456808299251     
  0.12869999999999998         0.61740355680033421     
  0.12900000000000000         0.76608988569842396     
  0.12930000000000003         0.86857292161408850     
  0.12959999999999999         0.91960997620964946     
  0.12990000000000002         0.91841951559924695     
  0.13019999999999998         0.86751047449274310     
  0.13050000000000000         0.77311421284957760     
  0.13080000000000003         0.64444823839477650     
  0.13109999999999999         0.49280998499057382     
  0.13140000000000002         0.33149228901958594     
  0.13169999999999998         0.17356466023242767     
  0.13200000000000001          3.2222909430272534E-002
  0.13229999999999997         -8.1340171676897555E-002
  0.13260000000000000        -0.15821946877791540     
  0.13290000000000002        -0.19237032359908079     
  0.13319999999999999        -0.18182501253589844     
  0.13350000000000001        -0.12796898370447796     
  0.13380000000000003         -3.6230165332812286E-002
  0.13410000000000000          8.4815516960643933E-002
  0.13440000000000002         0.22382372493984581     
  0.13469999999999999         0.36754769403716503     
  0.13500000000000001         0.50231441468824034     
  0.13529999999999998         0.61440867156072621     
  0.13560000000000000         0.69225466098404809     
  0.13590000000000002         0.72606941578251138     
  0.13619999999999999         0.71032298958023432     
  0.13650000000000001         0.64297994556054050     
  0.13680000000000003         0.52641946829227315     
  0.13710000000000000         0.36697154014179034     
  0.13740000000000002         0.17448161274218243     
  0.13769999999999999         -3.8318058920376430E-002
  0.13800000000000001        -0.25733456487775719     
  0.13829999999999998        -0.46793586207489835     
  0.13860000000000000        -0.65643053701392073     
  0.13890000000000002        -0.81117842308232291     
  0.13919999999999999        -0.92325203871191874     
  0.13950000000000001        -0.98759073884338378     
  0.13979999999999998         -1.0027398980941378     
  0.14010000000000000        -0.97116994847613825     
  0.14040000000000002        -0.89858490179173955     
  0.14069999999999999        -0.79347006123875730     
  0.14100000000000001        -0.66586587625889493     
  0.14130000000000004        -0.52681322216831994     
  0.14160000000000000        -0.38703747303161862     
  0.14189999999999997        -0.25616112759088683     
  0.14219999999999999        -0.14239248656872538     
  0.14250000000000002         -5.1317236946188505E-002
  0.14279999999999998          1.3619360352521870E-002
  0.14310000000000000          5.1651372948160912E-002
  0.14339999999999997          6.4129920395830486E-002
  0.14369999999999999          5.4765328891209331E-002
  0.14400000000000002          2.8517259272779594E-002
  0.14429999999999998         -8.0879316889982400E-003
  0.14460000000000001         -4.8049036110681786E-002
  0.14490000000000003         -8.3920829841347189E-002
  0.14520000000000000        -0.10856649625392012     
  0.14550000000000002        -0.11530486124830822     
  0.14579999999999999         -9.8688976160329900E-002
  0.14610000000000001         -5.4232874133165021E-002
  0.14640000000000003          2.0381970752528122E-002
  0.14670000000000000         0.12588286035712914     
  0.14699999999999996         0.26066125955686004     
  0.14729999999999999         0.42085945803003577     
  0.14760000000000001         0.60071113193143333     
  0.14789999999999998         0.79234452221097484     
  0.14820000000000000         0.98688971615125709     