  -1.4999999999999999E-002     0.0000000000000000     
  -1.4700000000000000E-002     0.0000000000000000     
  -1.4400000000000000E-002     0.0000000000000000     
  -1.4100000000000000E-002     0.0000000000000000     
  -1.3800000000000000E-002     0.0000000000000000     
  -1.3500000000000000E-002     0.0000000000000000     
  -1.3200000000000000E-002     0.0000000000000000     
  -1.2899999999999998E-002     0.0000000000000000     
  -1.2600000000000000E-002     0.0000000000000000     
  -1.2299999999999998E-002     0.0000000000000000     
  -1.2000000000000000E-002     0.0000000000000000     
  -1.1699999999999999E-002     0.0000000000000000     
  -1.1399999999999999E-002     0.0000000000000000     
  -1.1099999999999999E-002     0.0000000000000000     
  -1.0799999999999999E-002     0.0000000000000000     
  -1.0499999999999999E-002     0.0000000000000000     
  -1.0199999999999999E-002     0.0000000000000000     
  -9.8999999999999991E-003     0.0000000000000000     
  -9.5999999999999992E-003     0.0000000000000000     
  -9.2999999999999992E-003     0.0000000000000000     
  -8.9999999999999993E-003     0.0000000000000000     
  -8.6999999999999994E-003     0.0000000000000000     
  -8.3999999999999995E-003     0.0000000000000000     
  -8.0999999999999996E-003     0.0000000000000000     
  -7.7999999999999988E-003     0.0000000000000000     
  -7.4999999999999997E-003     0.0000000000000000     
  -7.1999999999999998E-003     0.0000000000000000     
  -6.8999999999999981E-003     0.0000000000000000     
  -6.5999999999999982E-003     0.0000000000000000     
  -6.3000000000000000E-003     0.0000000000000000     
  -6.0000000000000001E-003     0.0000000000000000     
  -5.6999999999999985E-003     0.0000000000000000     
  -5.3999999999999986E-003     0.0000000000000000     
  -5.1000000000000004E-003     0.0000000000000000     
  -4.7999999999999987E-003     0.0000000000000000     
  -4.5000000000000005E-003     0.0000000000000000     
  -4.1999999999999989E-003     0.0000000000000000     
  -3.8999999999999990E-003     0.0000000000000000     
  -3.5999999999999990E-003     0.0000000000000000     
  -3.2999999999999991E-003     0.0000000000000000     
  -2.9999999999999992E-003     0.0000000000000000     
  -2.6999999999999993E-003     0.0000000000000000     
  -2.3999999999999994E-003     0.0000000000000000     
  -2.0999999999999977E-003     0.0000000000000000     
  -1.7999999999999995E-003     0.0000000000000000     
  -1.4999999999999979E-003     0.0000000000000000     
  -1.1999999999999997E-003     0.0000000000000000     
  -8.9999999999999976E-004     0.0000000000000000     
  -5.9999999999999810E-004     0.0000000000000000     
  -2.9999999999999992E-004     0.0000000000000000     
   0.0000000000000000          0.0000000000000000     
   3.0000000000000165E-004     0.0000000000000000     
   5.9999999999999984E-004     0.0000000000000000     
   9.0000000000000149E-004     0.0000000000000000     
   1.2000000000000031E-003     0.0000000000000000     
   1.5000000000000013E-003     0.0000000000000000     
   1.8000000000000030E-003     0.0000000000000000     
   2.1000000000000012E-003     0.0000000000000000     
   2.3999999999999994E-003     0.0000000000000000     
   2.7000000000000010E-003     0.0000000000000000     
   2.9999999999999992E-003     0.0000000000000000     
   3.3000000000000008E-003     0.0000000000000000     
   3.6000000000000025E-003     0.0000000000000000     
   3.9000000000000007E-003     1.9346938265248102E-037
   4.2000000000000023E-003     1.9562379496347257E-037
   4.5000000000000005E-003    -1.4615421462305016E-035
   4.7999999999999987E-003     3.3703919456894371E-035
   5.1000000000000004E-003    -2.2664880689590377E-034
   5.4000000000000020E-003     5.3201818143976094E-034
   5.7000000000000037E-003    -8.1230481260323280E-034
   5.9999999999999984E-003     7.1434796032728780E-034
   6.3000000000000000E-003     1.2720934128555017E-033
   6.6000000000000017E-003    -6.6854445945005472E-033
   6.9000000000000034E-003     1.1807394541481077E-032
   7.2000000000000015E-003    -1.5863127312543164E-034
   7.5000000000000032E-003    -4.9253331325817008E-032
   7.8000000000000014E-003     1.2349649925822331E-031
   8.0999999999999996E-003    -1.0259793107367728E-031
   8.4000000000000012E-003    -2.5440008609631745E-031
   8.7000000000000029E-003     1.0552288239521797E-030
   9.0000000000000011E-003    -1.5926256382611633E-030
   9.2999999999999992E-003    -3.3370484684668929E-031
   9.6000000000000009E-003     7.3986346521408792E-030
   9.8999999999999991E-003    -1.7588396930779200E-029
   1.0200000000000001E-002     1.5271610366738115E-029
   1.0500000000000002E-002     3.1030534536932943E-029
   1.0800000000000004E-002    -1.3962131057322534E-028
   1.1099999999999999E-002     2.3668339379555770E-028
   1.1400000000000000E-002    -7.3810725590680251E-029
   1.1700000000000002E-002    -6.8662727587639906E-028
   1.2000000000000004E-002     1.9835914474527226E-027
   1.2300000000000002E-002    -2.5067678861579981E-027
   1.2600000000000000E-002    -6.4484103770505438E-028
   1.2900000000000002E-002     9.9782774951426277E-027
   1.3200000000000000E-002    -2.2022254157668864E-026
   1.3500000000000002E-002     2.0863196793748604E-026
   1.3800000000000003E-002     1.9398655997925534E-026
   1.4100000000000001E-002    -1.0974864403195118E-025
   1.4400000000000000E-002     1.9820951295039113E-025
   1.4700000000000001E-002    -1.3628801888916644E-025
   1.4999999999999999E-002    -2.5799455527436886E-025
   1.5300000000000001E-002     9.7159254033353453E-025
   1.5600000000000003E-002    -1.4809670009423807E-024
   1.5899999999999997E-002     6.9163435389696427E-025
   1.6199999999999999E-002     2.3858819835562667E-024
   1.6500000000000001E-002    -7.1140296287789314E-024
   1.6800000000000002E-002     9.7255723096444979E-024
   1.7100000000000004E-002    -3.6473907327015399E-024
   1.7400000000000006E-002    -1.6641935544439542E-023
   1.7700000000000000E-002     4.7874247143410483E-023
   1.8000000000000002E-002    -6.8036931046996180E-023
   1.8300000000000004E-002     3.0276073397986705E-023
   1.8600000000000005E-002     1.2082769585877980E-022
   1.8900000000000000E-002    -3.7675449458824550E-022
   1.9200000000000002E-002     5.2892946707886849E-022
   1.9500000000000003E-002    -9.8745194086393982E-023
   1.9799999999999998E-002    -1.3366908122123279E-021
   2.0100000000000000E-002     3.1857356457991795E-021
   2.0400000000000001E-002    -2.8939486302006495E-021
   2.0700000000000003E-002    -2.9682922901882128E-021
   2.0999999999999998E-002     1.3768671992293836E-020
   2.1299999999999999E-002    -1.8728170519686734E-020
   2.1600000000000001E-002    -3.8172887677082587E-022
   2.1900000000000003E-002     4.8106694714918438E-020
   2.2200000000000004E-002    -8.5876275332818133E-020
   2.2500000000000006E-002     3.5766391859135521E-020
   2.2800000000000001E-002     1.4059390862773942E-019
   2.3100000000000002E-002    -3.2167239570435106E-019
   2.3400000000000004E-002     2.1852567493082932E-019
   2.3699999999999999E-002     3.5178320127087438E-019
   2.4000000000000000E-002    -1.0140701450342043E-018
   2.4300000000000002E-002     8.0899594456233739E-019
   2.4599999999999997E-002     6.9535189438232089E-019
   2.4900000000000005E-002    -1.9503518848226474E-018
   2.5200000000000000E-002     1.3696739815217854E-018
   2.5499999999999995E-002    -4.2252422071518777E-018
   2.5800000000000003E-002     1.8347776924700466E-017
   2.6099999999999998E-002    -8.9747902463521222E-018
   2.6400000000000007E-002    -1.3936653914272924E-016
   2.6700000000000002E-002     4.1852407305793479E-016
   2.6999999999999996E-002    -1.3982035126549925E-016
   2.7300000000000005E-002    -1.9872319261081494E-015
   2.7600000000000000E-002     5.1656718128920988E-015
   2.7900000000000008E-002    -2.3781809059186981E-015
   2.8200000000000003E-002    -1.6688337565529377E-014
   2.8499999999999998E-002     4.8726672700413092E-014
   2.8800000000000006E-002    -5.5863063108044572E-014
   2.9100000000000001E-002    -4.9845669432709317E-014
   2.9400000000000003E-002     4.0721922184762227E-013
   2.9700000000000004E-002    -9.9113236297499735E-013
   3.0000000000000006E-002     7.7474150093224996E-013
   3.0300000000000001E-002     2.9492217930989453E-012
   3.0600000000000002E-002    -1.1518816084490494E-011
   3.0900000000000004E-002     1.6182287514902946E-011
   3.1199999999999999E-002     8.2031598010527713E-012
   3.1500000000000007E-002    -9.3975798819567177E-011
   3.1800000000000002E-002     2.2961352280933693E-010
   3.2099999999999997E-002    -1.6837954406244261E-010
   3.2400000000000005E-002    -8.0042781049852879E-010
   3.2700000000000000E-002     2.8098773059544156E-009
   3.3000000000000002E-002    -1.8014114909508703E-009
   3.3300000000000003E-002    -9.5222570235715274E-009
   3.3599999999999998E-002     2.0635104291394930E-008
   3.3900000000000000E-002     7.5658026277205789E-009
   3.4200000000000001E-002    -7.3430475635336669E-008
   3.4500000000000003E-002     2.4727100217417263E-008
   3.4799999999999998E-002     2.2739962046042676E-007
   3.5099999999999999E-002     9.4954345757137366E-007
   3.5400000000000001E-002     4.8950640637462984E-006
   3.5699999999999996E-002     1.4623891389406819E-005
   3.6000000000000004E-002     2.7797881198153866E-005
   3.6299999999999999E-002     3.8351439260030096E-005
   3.6600000000000008E-002     4.5793637673481212E-005
   3.6900000000000002E-002     5.9540420284890077E-005
   3.7199999999999997E-002     8.9294544484785562E-005
   3.7500000000000006E-002     1.3998819715138177E-004
   3.7800000000000000E-002     2.1630533917170805E-004
   3.8100000000000009E-002     3.2227005185344292E-004
   3.8400000000000004E-002     4.6364405739786514E-004
   3.8699999999999998E-002     6.5510150032947398E-004
   3.9000000000000007E-002     9.1273885459848547E-004
   3.9300000000000002E-002     1.2474204187367527E-003
   3.9600000000000003E-002     1.6755380386963697E-003
   3.9900000000000005E-002     2.2023663341796257E-003
   4.0200000000000000E-002     2.8168841845899809E-003
   4.0500000000000001E-002     3.5229668337317527E-003
   4.0800000000000003E-002     4.3052831159254706E-003
   4.1100000000000005E-002     5.0981678928399277E-003
   4.1399999999999999E-002     5.8153208747702412E-003
   4.1700000000000008E-002     6.3363926431058426E-003
   4.2000000000000003E-002     6.4735339356051524E-003
   4.2299999999999997E-002     5.9884704650860487E-003
   4.2600000000000006E-002     4.6071389561553877E-003
   4.2900000000000001E-002     1.9741329952217418E-003
   4.3200000000000002E-002    -2.3350182182641371E-003
   4.3500000000000004E-002    -8.7353276974504387E-003
   4.3799999999999999E-002    -1.7626220590461261E-002
   4.4100000000000000E-002    -2.9414976785865687E-002
   4.4400000000000002E-002    -4.4456211373704702E-002
   4.4700000000000004E-002    -6.2946803573338261E-002
   4.4999999999999998E-002    -8.4900300793843586E-002
   4.5300000000000000E-002   -0.11013162619651773     
   4.5600000000000002E-002   -0.13823496847857131     
   4.5899999999999996E-002   -0.16856205755615195     
   4.6200000000000005E-002   -0.20022828439299367     
   4.6500000000000000E-002   -0.23215583160456887     
   4.6799999999999994E-002   -0.26314862810697459     
   4.7100000000000003E-002   -0.29200442947364813     
   4.7399999999999998E-002   -0.31755029901624710     
   4.7700000000000006E-002   -0.33877840183011187     
   4.8000000000000001E-002   -0.35489500655137718     
   4.8300000000000010E-002   -0.36542255723296435     
   4.8600000000000004E-002   -0.37016426915833556     
   4.8899999999999999E-002   -0.36917498809491534     
   4.9200000000000008E-002   -0.36258582312616916     
   4.9500000000000002E-002   -0.35058893620361431     
   4.9800000000000011E-002   -0.33321760298982639     
   5.0100000000000006E-002   -0.31026166587795245     
   5.0400000000000000E-002   -0.28101446166271060     
   5.0700000000000009E-002   -0.24444203885575977     
   5.1000000000000004E-002   -0.19894139792963283     
   5.1299999999999998E-002   -0.14278890306428504     
   5.1600000000000007E-002    -7.4117269862497448E-002
   5.1900000000000002E-002     8.6196471106452233E-003
   5.2200000000000010E-002    0.10638747761655165     
   5.2500000000000005E-002    0.21910351744403678     
   5.2800000000000000E-002    0.34549059593041509     
   5.3099999999999994E-002    0.48274779088571407     
   5.3400000000000003E-002    0.62652501905525249     
   5.3699999999999998E-002    0.77111404806594663     
   5.4000000000000006E-002    0.90955370844746497     
   5.4300000000000001E-002     1.0342924242011939     
   5.4599999999999996E-002     1.1374885721021073     
   5.4900000000000004E-002     1.2119443044397684     
   5.5199999999999999E-002     1.2513591585841439     
   5.5499999999999994E-002     1.2513200627943917     
   5.5800000000000002E-002     1.2091661745502549     
   5.6099999999999997E-002     1.1251132005442344     
   5.6400000000000006E-002     1.0014789801492689     
   5.6700000000000000E-002    0.84339625313695166     
   5.6999999999999995E-002    0.65791248582403128     
   5.7300000000000004E-002    0.45410889812590938     
   5.7599999999999998E-002    0.24228894847251237     
   5.7900000000000007E-002     3.3490993330833385E-002
   5.8200000000000002E-002   -0.16110292294690254     
   5.8499999999999996E-002   -0.33088283792378181     
   5.8800000000000005E-002   -0.46639842908564599     
   5.9100000000000000E-002   -0.55986928889898735     
   5.9400000000000008E-002   -0.60584662128917621     
   5.9700000000000003E-002   -0.60142916594359619     
   6.0000000000000012E-002   -0.54670698521358219     
   6.0300000000000006E-002   -0.44484183619770690     
   6.0600000000000001E-002   -0.30191909687468588     
   6.0900000000000010E-002   -0.12724036658295734     
   6.1200000000000004E-002     6.7861979488795132E-002
   6.1500000000000013E-002    0.26981888849319313     
   6.1800000000000008E-002    0.46433137537906610     
   6.2100000000000002E-002    0.63665341146305821     
   6.2399999999999997E-002    0.77294288170372205     
   6.2700000000000006E-002    0.86129294799913936     
   6.3000000000000000E-002    0.89241148828022077     
   6.3300000000000009E-002    0.86046444803931266     
   6.3600000000000004E-002    0.76370576949221203     
   6.3899999999999998E-002    0.60446198325091061     
   6.4199999999999993E-002    0.38920467575621487     
   6.4500000000000002E-002    0.12786205043360654     
   6.4800000000000010E-002   -0.16653269325156561     
   6.5100000000000005E-002   -0.47919038133610092     
   6.5400000000000000E-002   -0.79428194342922165     
   6.5700000000000008E-002    -1.0961374872869136     
   6.5999999999999989E-002    -1.3705614624730309     
   6.6299999999999998E-002    -1.6047995443380927     
   6.6600000000000006E-002    -1.7894610301459295     
   6.6900000000000001E-002    -1.9174560419316649     
   6.7199999999999996E-002    -1.9851941507117488     
   6.7500000000000004E-002    -1.9919184420184877     
   6.7800000000000013E-002    -1.9394648305564530     
   6.8099999999999994E-002    -1.8321191518105451     
   6.8400000000000002E-002    -1.6757006482367416     
   6.8700000000000011E-002    -1.4778364957346284     
   6.8999999999999992E-002    -1.2470359390939407     
   6.9300000000000000E-002   -0.99265456860021573     
   6.9600000000000009E-002   -0.72506184452897671     
   6.9900000000000004E-002   -0.45472692563298267     
   7.0199999999999999E-002   -0.19280882034829983     
   7.0500000000000007E-002     4.9707734610359378E-002
   7.0800000000000016E-002    0.26216800888963343     
   7.1099999999999997E-002    0.43453883716953889     
   7.1400000000000005E-002    0.55889346239859350     
   7.1700000000000000E-002    0.62883376009733638     
   7.1999999999999995E-002    0.64156745035201723     
   7.2300000000000003E-002    0.59739313497173541     
   7.2600000000000012E-002    0.50066929337775790     
   7.2900000000000006E-002    0.35947785307026159     
   7.3200000000000001E-002    0.18547185903489360     
   7.3499999999999996E-002    -6.7793793693857740E-003
   7.3800000000000004E-002   -0.20106470886610417     
   7.4099999999999999E-002   -0.38071383460423269     
   7.4400000000000008E-002   -0.52994406290623797     
   7.4700000000000003E-002   -0.63560312131994579     
   7.5000000000000011E-002   -0.68788457096767175     
   7.5299999999999992E-002   -0.68157209752018488     
   7.5600000000000001E-002   -0.61629630426980597     
   7.5900000000000009E-002   -0.49654983075797077     
   7.6200000000000004E-002   -0.33108944386264483     
   7.6499999999999999E-002   -0.13185632051940699     
   7.6800000000000007E-002     8.7095608505243227E-002
   7.7099999999999988E-002    0.31123403895525570     
   7.7399999999999997E-002    0.52691649027403420     
   7.7700000000000005E-002    0.72254543074434530     
   7.8000000000000014E-002    0.88979666299917071     
   7.8299999999999995E-002     1.0237232003982797     
   7.8600000000000003E-002     1.1234058414466972     
   7.8900000000000012E-002     1.1911642930482387     
   7.9199999999999993E-002     1.2320118146253805     
   7.9500000000000001E-002     1.2532448560145326     
   7.9800000000000010E-002     1.2625344856938696     
   8.0100000000000018E-002     1.2677546143026674     
   8.0399999999999999E-002     1.2754462935160262     
   8.0700000000000008E-002     1.2904421320616279     
   8.1000000000000003E-002     1.3154356825204943     
   8.1299999999999997E-002     1.3505178678894154     
   8.1600000000000006E-002     1.3938026645446087     
   8.1900000000000014E-002     1.4409339711680076     
   8.2199999999999995E-002     1.4863217425433035     
   8.2500000000000004E-002     1.5230189488565031     
   8.2799999999999999E-002     1.5437862192625147     
   8.3100000000000007E-002     1.5412564046232404     
   8.3400000000000002E-002     1.5084292064760518     
   8.3700000000000011E-002     1.4394903785621196     
   8.4000000000000005E-002     1.3298587150896068     
   8.4300000000000000E-002     1.1766801755695511     
   8.4599999999999995E-002    0.97920574646198943     
   8.4900000000000003E-002    0.73907930074730288     
   8.5199999999999998E-002    0.46047339827391376     
   8.5500000000000007E-002    0.15037303208770680     
   8.5800000000000001E-002   -0.18139911448264456     
   8.6100000000000010E-002   -0.52268192754023168     
   8.6399999999999991E-002   -0.85894010095135531     
   8.6699999999999999E-002    -1.1745885109963821     
   8.7000000000000008E-002    -1.4531729600983869     
   8.7300000000000003E-002    -1.6793842450110432     
   8.7599999999999997E-002    -1.8396436871676514     
   8.7900000000000006E-002    -1.9240346377529178     
   8.8200000000000014E-002    -1.9269067663013431     
   8.8499999999999995E-002    -1.8482005917850302     
   8.8800000000000004E-002    -1.6938252342346445     
   8.9100000000000013E-002    -1.4756052564634814     
   8.9399999999999993E-002    -1.2107577949517605     
   8.9700000000000002E-002   -0.92057972958828316     
   9.0000000000000011E-002   -0.62911248726008218     
   9.0299999999999991E-002   -0.36070312115534797     
   9.0600000000000000E-002   -0.13819963240581190     
   9.0900000000000009E-002     1.9487452723327525E-002
   9.1200000000000017E-002     9.8895692122958234E-002
   9.1499999999999998E-002     9.3958177086047590E-002
   9.1800000000000007E-002     6.1181983859461830E-003
   9.2100000000000001E-002   -0.15516623970164201     
   9.2399999999999996E-002   -0.37320701064808492     
   9.2700000000000005E-002   -0.62588594789051655     
   9.3000000000000013E-002   -0.88697842688017925     
   9.3300000000000008E-002    -1.1290590854534353     
   9.3600000000000003E-002    -1.3251687128351692     
   9.3899999999999997E-002    -1.4520944812321517     
   9.4200000000000006E-002    -1.4912540517894470     
   9.4500000000000001E-002    -1.4309229101739547     
   9.4800000000000009E-002    -1.2664075310590555     
   9.5100000000000004E-002    -1.0005931432809305     
   9.5399999999999999E-002   -0.64307058543496609     
   9.5699999999999993E-002   -0.20946475321412850     
   9.6000000000000002E-002    0.28002700701494376     
   9.6300000000000011E-002    0.80240404410222865     
   9.6600000000000005E-002     1.3331532764528760     
   9.6900000000000000E-002     1.8477169107389049     
   9.7200000000000009E-002     2.3227416017278166     
   9.7499999999999989E-002     2.7366614442521016     
   9.7799999999999998E-002     3.0709794206936962     
   9.8100000000000007E-002     3.3095569370886864     
   9.8400000000000015E-002     3.4402545129739721     
   9.8699999999999996E-002     3.4536453867669366     
   9.9000000000000005E-002     3.3447463560433448     
   9.9300000000000013E-002     3.1112855723495016     
   9.9599999999999994E-002     2.7563386372869161     
   9.9900000000000003E-002     2.2858620163842005     
  0.10020000000000001          1.7116740439285820     
  0.10049999999999999          1.0488440767246061     
  0.10080000000000000         0.31779138420124919     
  0.10110000000000001        -0.45817079325072285     
  0.10140000000000000         -1.2524454096525233     
  0.10170000000000000         -2.0365073900620061     
  0.10200000000000001         -2.7816416655645639     
  0.10230000000000002         -3.4596999641024357     
  0.10260000000000000         -4.0454616019198255     
  0.10290000000000001         -4.5168374992638292     
  0.10320000000000000         -4.8572876067990052     
  0.10350000000000001         -5.0552058872955143     
  0.10380000000000000         -5.1053366530111930     
  0.10410000000000001         -5.0086193466015629     
  0.10440000000000001         -4.7711569841856658     
  0.10470000000000000         -4.4048897902283386     
  0.10500000000000000         -3.9253365400196714     
  0.10530000000000000         -3.3517180752866267     
  0.10560000000000000         -2.7052328139778155     
  0.10590000000000001         -2.0082849640017386     
  0.10620000000000000         -1.2834284714709092     
  0.10650000000000001        -0.55223408714995958     
  0.10679999999999999         0.16479428891281245     
  0.10710000000000000         0.84980334588988882     
  0.10740000000000001          1.4874465691246854     
  0.10770000000000000          2.0647493930419696     
  0.10800000000000000          2.5720087111528329     
  0.10830000000000001          3.0021238292158969     
  0.10859999999999999          3.3502798627622568     
  0.10890000000000000          3.6138664405762597     
  0.10920000000000001          3.7922365367053317     
  0.10950000000000001          3.8859289204413727     
  0.10979999999999999          3.8970586568242993     
  0.11009999999999999          3.8287224637241621     
  0.11040000000000001          3.6853407099229258     
  0.11070000000000001          3.4722154802074527     
  0.11100000000000000          3.1968947745248641     
  0.11130000000000000          2.8677380568267665     
  0.11160000000000002          2.4957156830601832     
  0.11190000000000001          2.0922792129542600     
  0.11220000000000001          1.6715518776854168     
  0.11250000000000000          1.2470405492907020     
  0.11280000000000000         0.83328945562581325     
  0.11309999999999999         0.44336540863068308     
  0.11340000000000001          8.8297180987296109E-002
  0.11369999999999998        -0.22351335815687001     
  0.11400000000000000        -0.48765020024683636     
  0.11430000000000000        -0.70351546570966761     
  0.11460000000000002        -0.87506029687446185     
  0.11489999999999999         -1.0095698160512381     
  0.11520000000000001         -1.1177182281974503     
  0.11550000000000001         -1.2116931978042977     
  0.11580000000000000         -1.3048299262201830     
  0.11609999999999999         -1.4082330642185426     
  0.11640000000000002         -1.5326657869310338     
  0.11670000000000001         -1.6827938992681908     
  0.11700000000000001         -1.8616222134339679     
  0.11730000000000000         -2.0648568624672876     
  0.11760000000000000         -2.2861706652467078     
  0.11789999999999999         -2.5129198243128883     
  0.11820000000000001         -2.7312167412343626     
  0.11850000000000001         -2.9243422644448458     
  0.11880000000000000         -3.0758918866496145     
  0.11910000000000000         -3.1702217410552578     
  0.11940000000000002         -3.1949917415501687     
  0.11970000000000001         -3.1403352780049829     
  0.12000000000000001         -3.0019188595248778     
  0.12030000000000000         -2.7796196479345952     
  0.12060000000000000         -2.4783448056813029     
  0.12089999999999999         -2.1073175828415884     
  0.12119999999999999         -1.6793654315689466     
  0.12150000000000001         -1.2102167792668403     
  0.12180000000000001        -0.71652159365443602     
  0.12210000000000000        -0.21573798247605547     
  0.12239999999999999         0.27594473117385654     
  0.12270000000000002         0.74389511122590335     
  0.12300000000000001          1.1766049552441977     
  0.12330000000000001          1.5653409863937249     
  0.12360000000000000          1.9048774345842254     
  0.12390000000000000          2.1936263065253812     
  0.12419999999999999          2.4326492467028942     
  0.12450000000000001          2.6248817543422689     
  0.12480000000000001          2.7764260765420943     
  0.12509999999999999          2.8923463363790347     
  0.12540000000000001          2.9800694462945501     
  0.12570000000000003          3.0443780166899330     
  0.12600000000000000          3.0911690357844179     
  0.12630000000000002          3.1240644911082285     
  0.12659999999999999          3.1458673433980806     
  0.12690000000000001          3.1583162392659432     
  0.12719999999999998          3.1619829041499514     
  0.12750000000000000          3.1572004573124559     
  0.12780000000000002          3.1440904568569721     
  0.12809999999999999          3.1220282447324621     
  0.12840000000000001          3.0909732966887020     
  0.12869999999999998          3.0498343472898881     
  0.12900000000000000          2.9975935751223375     
  0.12930000000000003          2.9314307051796931     
  0.12959999999999999          2.8474197396984664     
  0.12990000000000002          2.7386809046245588     
  0.13019999999999998          2.5963673424334672     
  0.13050000000000000          2.4091018746260602     
  0.13080000000000003          2.1640587605201205     
  0.13109999999999999          1.8475921037932963     
  0.13140000000000002          1.4482416356318240     
  0.13169999999999998         0.95761218720499208     
  0.13200000000000001         0.37499062881997691     
  0.13229999999999997        -0.29195809745950640     
  0.13260000000000000         -1.0232834983669576     
  0.13290000000000002         -1.7864803777980498     
  0.13319999999999999         -2.5360168021017202     
  0.13350000000000001         -3.2150707583616907     
  0.13380000000000003         -3.7603286757704355     
  0.13410000000000000         -4.1061552743160448     
  0.13440000000000002         -4.1927093516998752     
  0.13469999999999999         -3.9744432090467825     
  0.13500000000000001         -3.4273126812013857     
  0.13529999999999998         -2.5574526761847949     
  0.13560000000000000         -1.4043165435834477     
  0.13590000000000002         -4.5340784354493735E-002
  0.13619999999999999          1.4089749164475336     
  0.13650000000000001          2.8190547673406030     
  0.13680000000000003          4.0285285639980088     
  0.13710000000000000          4.8770848550394987     
  0.13740000000000002          5.2175351982962752     
  0.13769999999999999          4.9324581976826920     
  0.13800000000000001          3.9507787293577792     
  0.13829999999999998          2.2585379988889489     
  0.13860000000000000         -9.0553296786183068E-002
  0.13890000000000002         -2.9776161283309364     
  0.13919999999999999         -6.2197517280160639     
  0.13950000000000001         -9.5862422971433148     
  0.13979999999999998         -12.812877344624553     
  0.14010000000000000         -15.627652495464105     
  0.14040000000000002         -17.771812585396574     
  0.14069999999999999         -19.026583601380764     
  0.14100000000000001         -19.231560755164260     
  0.14130000000000004         -18.302750599761566     
  0.14160000000000000         -16.239963071021009     
  0.14189999999999997         -13.129585524439108     
  0.14219999999999999         -9.1373151886076016     
  0.14250000000000002         -4.4959394213684085     
  0.14279999999999998         0.51507705458112696     
  0.14310000000000000          5.5906005894053123     
  0.14339999999999997          10.423824304376637     
  0.14369999999999999          14.729361830010816     
  0.14400000000000002          18.262615372190396     
  0.14429999999999998          20.834865974611546     
  0.14460000000000001          22.323499992215488     
  0.14490000000000003          22.675053754211582     
  0.14520000000000000          21.904879364565716     
  0.14550000000000002          20.089896478468233     
  0.14579999999999999          17.359974973456247     
  0.14610000000000001          13.885046788357499     
  0.14640000000000003          9.8639898644761956     
  0.14670000000000000          5.5089801181404212     
  0.14699999999999996          1.0369120324485124     
  0.14729999999999999         -3.3430947079631608     
  0.14760000000000001         -7.4377189584618577     
  0.14789999999999998         -11.076246261291033     
  0.14820000000000000         -14.116810461028706     