  -1.4999999999999999E-002     0.0000000000000000     
  -1.4700000000000000E-002     0.0000000000000000     
  -1.4400000000000000E-002     0.0000000000000000     
  -1.4100000000000000E-002     0.0000000000000000     
  -1.3800000000000000E-002     0.0000000000000000     
  -1.3500000000000000E-002     0.0000000000000000     
  -1.3200000000000000E-002     0.0000000000000000     
  -1.2899999999999998E-002     0.0000000000000000     
  -1.2600000000000000E-002     0.0000000000000000     
  -1.2299999999999998E-002     0.0000000000000000     
  -1.2000000000000000E-002     0.0000000000000000     
  -1.1699999999999999E-002     0.0000000000000000     
  -1.1399999999999999E-002     0.0000000000000000     
  -1.1099999999999999E-002     0.0000000000000000     
  -1.0799999999999999E-002     0.0000000000000000     
  -1.0499999999999999E-002     0.0000000000000000     
  -1.0199999999999999E-002     0.0000000000000000     
  -9.8999999999999991E-003     0.0000000000000000     
  -9.5999999999999992E-003     0.0000000000000000     
  -9.2999999999999992E-003     0.0000000000000000     
  -8.9999999999999993E-003     0.0000000000000000     
  -8.6999999999999994E-003     0.0000000000000000     
  -8.3999999999999995E-003     0.0000000000000000     
  -8.0999999999999996E-003     0.0000000000000000     
  -7.7999999999999988E-003     0.0000000000000000     
  -7.4999999999999997E-003     0.0000000000000000     
  -7.1999999999999998E-003     0.0000000000000000     
  -6.8999999999999981E-003     0.0000000000000000     
  -6.5999999999999982E-003     0.0000000000000000     
  -6.3000000000000000E-003     0.0000000000000000     
  -6.0000000000000001E-003     0.0000000000000000     
  -5.6999999999999985E-003     0.0000000000000000     
  -5.3999999999999986E-003     0.0000000000000000     
  -5.1000000000000004E-003     0.0000000000000000     
  -4.7999999999999987E-003     0.0000000000000000     
  -4.5000000000000005E-003     0.0000000000000000     
  -4.1999999999999989E-003     0.0000000000000000     
  -3.8999999999999990E-003     0.0000000000000000     
  -3.5999999999999990E-003     0.0000000000000000     
  -3.2999999999999991E-003     0.0000000000000000     
  -2.9999999999999992E-003     0.0000000000000000     
  -2.6999999999999993E-003     0.0000000000000000     
  -2.3999999999999994E-003     0.0000000000000000     
  -2.0999999999999977E-003     0.0000000000000000     
  -1.7999999999999995E-003     0.0000000000000000     
  -1.4999999999999979E-003     0.0000000000000000     
  -1.1999999999999997E-003     0.0000000000000000     
  -8.9999999999999976E-004     0.0000000000000000     
  -5.9999999999999810E-004     0.0000000000000000     
  -2.9999999999999992E-004     0.0000000000000000     
   0.0000000000000000          0.0000000000000000     
   3.0000000000000165E-004     0.0000000000000000     
   5.9999999999999984E-004     0.0000000000000000     
   9.0000000000000149E-004     0.0000000000000000     
   1.2000000000000031E-003     0.0000000000000000     
   1.5000000000000013E-003     0.0000000000000000     
   1.8000000000000030E-003     0.0000000000000000     
   2.1000000000000012E-003     0.0000000000000000     
   2.3999999999999994E-003     0.0000000000000000     
   2.7000000000000010E-003     0.0000000000000000     
   2.9999999999999992E-003     0.0000000000000000     
   3.3000000000000008E-003     0.0000000000000000     
   3.6000000000000025E-003     0.0000000000000000     
   3.9000000000000007E-003     0.0000000000000000     
   4.2000000000000023E-003     0.0000000000000000     
   4.5000000000000005E-003     0.0000000000000000     
   4.7999999999999987E-003     0.0000000000000000     
   5.1000000000000004E-003     0.0000000000000000     
   5.4000000000000020E-003     0.0000000000000000     
   5.7000000000000037E-003     0.0000000000000000     
   5.9999999999999984E-003     0.0000000000000000     
   6.3000000000000000E-003     0.0000000000000000     
   6.6000000000000017E-003     0.0000000000000000     
   6.9000000000000034E-003     0.0000000000000000     
   7.2000000000000015E-003     0.0000000000000000     
   7.5000000000000032E-003     0.0000000000000000     
   7.8000000000000014E-003     0.0000000000000000     
   8.0999999999999996E-003     0.0000000000000000     
   8.4000000000000012E-003     0.0000000000000000     
   8.7000000000000029E-003     0.0000000000000000     
   9.0000000000000011E-003     0.0000000000000000     
   9.2999999999999992E-003     0.0000000000000000     
   9.6000000000000009E-003     0.0000000000000000     
   9.8999999999999991E-003     0.0000000000000000     
   1.0200000000000001E-002     0.0000000000000000     
   1.0500000000000002E-002     0.0000000000000000     
   1.0800000000000004E-002     0.0000000000000000     
   1.1099999999999999E-002     0.0000000000000000     
   1.1400000000000000E-002     0.0000000000000000     
   1.1700000000000002E-002     0.0000000000000000     
   1.2000000000000004E-002     0.0000000000000000     
   1.2300000000000002E-002     0.0000000000000000     
   1.2600000000000000E-002     0.0000000000000000     
   1.2900000000000002E-002     0.0000000000000000     
   1.3200000000000000E-002     0.0000000000000000     
   1.3500000000000002E-002     0.0000000000000000     
   1.3800000000000003E-002     0.0000000000000000     
   1.4100000000000001E-002     0.0000000000000000     
   1.4400000000000000E-002     0.0000000000000000     
   1.4700000000000001E-002     0.0000000000000000     
   1.4999999999999999E-002     0.0000000000000000     
   1.5300000000000001E-002     0.0000000000000000     
   1.5600000000000003E-002     0.0000000000000000     
   1.5899999999999997E-002     0.0000000000000000     
   1.6199999999999999E-002     0.0000000000000000     
   1.6500000000000001E-002     0.0000000000000000     
   1.6800000000000002E-002     0.0000000000000000     
   1.7100000000000004E-002     0.0000000000000000     
   1.7400000000000006E-002     0.0000000000000000     
   1.7700000000000000E-002     0.0000000000000000     
   1.8000000000000002E-002     0.0000000000000000     
   1.8300000000000004E-002    -1.7720921273341068E-037
   1.8600000000000005E-002     3.0383561467024201E-037
   1.8900000000000000E-002    -7.3019841287962595E-038
   1.9200000000000002E-002    -2.2082434717582775E-036
   1.9500000000000003E-002     6.7222565284445081E-036
   1.9799999999999998E-002    -7.8285751640040767E-036
   2.0100000000000000E-002     6.3423572794769188E-036
   2.0400000000000001E-002    -3.7364828975010013E-035
   2.0700000000000003E-002     4.4414031500310264E-035
   2.0999999999999998E-002     9.4029129505909330E-035
   2.1299999999999999E-002    -3.8438921968731773E-034
   2.1600000000000001E-002     5.6252015527308365E-034
   2.1900000000000003E-002     9.8425742184873266E-034
   2.2200000000000004E-002    -2.3760353912529015E-033
   2.2500000000000006E-002     7.0481177929418612E-034
   2.2800000000000001E-002     4.9749711885430666E-033
   2.3100000000000002E-002    -7.7550594854438827E-033
   2.3400000000000004E-002    -5.0745781534325132E-033
   2.3699999999999999E-002     3.2015765093918018E-032
   2.4000000000000000E-002    -3.4680832971275685E-032
   2.4300000000000002E-002    -3.0764664950330416E-032
   2.4599999999999997E-002     1.0735158027494648E-031
   2.4900000000000005E-002     9.0755325937097666E-033
   2.5200000000000000E-002    -4.8653012351992316E-031
   2.5499999999999995E-002     1.2645658837755481E-030
   2.5800000000000003E-002    -2.4489768594802328E-030
   2.6099999999999998E-002     4.8694294500415630E-030
   2.6400000000000007E-002    -6.2072996028165401E-030
   2.6700000000000002E-002    -2.2558877864035122E-029
   2.6999999999999996E-002     2.1771147047886150E-028
   2.7300000000000005E-002    -9.8345068845938815E-028
   2.7600000000000000E-002     2.9107279687754949E-027
   2.7900000000000008E-002    -4.9192276776742822E-027
   2.8200000000000003E-002    -1.9310400923444220E-027
   2.8499999999999998E-002     4.0882905418213906E-026
   2.8800000000000006E-002    -1.2717757623580993E-025
   2.9100000000000001E-002     1.7968474744374913E-025
   2.9400000000000003E-002    -3.6318390175397739E-026
   2.9700000000000004E-002     5.3225485780937008E-025
   3.0000000000000006E-002    -7.6026309826267421E-024
   3.0300000000000001E-002     3.7761652856091689E-023
   3.0600000000000002E-002    -9.7507749119908222E-023
   3.0900000000000004E-002     3.2167115390716339E-023
   3.1199999999999999E-002     9.3223526373126812E-022
   3.1500000000000007E-002    -4.6844573540818143E-021
   3.1800000000000002E-002     1.2162331848145700E-020
   3.2099999999999997E-002    -1.1653773316565877E-020
   3.2400000000000005E-002    -4.6586510340078912E-020
   3.2700000000000000E-002     2.5450832426028788E-019
   3.3000000000000002E-002    -6.1059470151649582E-019
   3.3300000000000003E-002     6.4745668441116590E-019
   3.3599999999999998E-002     8.0393613045250749E-019
   3.3900000000000000E-002    -4.7010098962910433E-018
   3.4200000000000001E-002     1.0493165080336531E-017
   3.4500000000000003E-002    -2.1984501160486097E-017
   3.4799999999999998E-002     6.6284185239173949E-017
   3.5099999999999999E-002    -1.7397906782727659E-016
   3.5400000000000001E-002     1.3409310161004362E-016
   3.5699999999999996E-002     1.1114141020245663E-015
   3.6000000000000004E-002    -5.5346856499890475E-015
   3.6299999999999999E-002     1.2117209259870460E-014
   3.6600000000000008E-002    -4.7248551278164639E-015
   3.6900000000000002E-002    -5.9833649295360808E-014
   3.7199999999999997E-002     2.1468292050038881E-013
   3.7500000000000006E-002    -3.0742614597488263E-013
   3.7800000000000000E-002    -2.7909409009251340E-013
   3.8100000000000009E-002     2.4010431705243727E-012
   3.8400000000000004E-002    -5.0065352506405664E-012
   3.8699999999999998E-002     8.6201226344157910E-013
   3.9000000000000007E-002     2.2502206942716154E-011
   3.9300000000000002E-002    -5.7813601031829480E-011
   3.9600000000000003E-002     2.4668426715960531E-011
   3.9900000000000005E-002     2.2068514354416230E-010
   4.0200000000000000E-002    -5.8149801707044885E-010
   4.0500000000000001E-002     1.1618400430180937E-010
   4.0800000000000003E-002     2.5688279351028894E-009
   4.1100000000000005E-002    -5.1580360743030905E-009
   4.1399999999999999E-002    -3.9994618887246100E-009
   4.1700000000000008E-002     3.1599766209449056E-008
   4.2000000000000003E-002    -2.3061281074136146E-008
   4.2299999999999997E-002    -1.3313191221605034E-007
   4.2600000000000006E-002     2.3829721019147873E-007
   4.2900000000000001E-002     4.5981244590881761E-007
   4.3200000000000002E-002    -1.5231414149726398E-006
   4.3500000000000004E-002    -1.5155566590869775E-006
   4.3799999999999999E-002     1.4001343885839757E-005
   4.4100000000000000E-002     4.7974586617912556E-005
   4.4400000000000002E-002     7.8359985523690501E-005
   4.4700000000000004E-002     8.8362162088567644E-005
   4.4999999999999998E-002     9.7622312176877564E-005
   4.5300000000000000E-002     1.3702782009135991E-004
   4.5600000000000002E-002     2.1633237610584142E-004
   4.5899999999999996E-002     3.3829305809830908E-004
   4.6200000000000005E-002     5.1406682419460198E-004
   4.6500000000000000E-002     7.5291418898919965E-004
   4.6799999999999994E-002     1.0652748308668733E-003
   4.7100000000000003E-002     1.4790135857347120E-003
   4.7399999999999998E-002     2.0304866880165792E-003
   4.7700000000000006E-002     2.7372927959455756E-003
   4.8000000000000001E-002     3.5977198449026887E-003
   4.8300000000000010E-002     4.6131250006943569E-003
   4.8600000000000004E-002     5.7683242157135772E-003
   4.8899999999999999E-002     6.9824397262824578E-003
   4.9200000000000008E-002     8.1131628329659811E-003
   4.9500000000000002E-002     8.9743118587281567E-003
   4.9800000000000011E-002     9.2842117301633609E-003
   5.0100000000000006E-002     8.6183178595370669E-003
   5.0400000000000000E-002     6.4348146731154979E-003
   5.0700000000000009E-002     2.0906924994886222E-003
   5.1000000000000004E-002    -5.1915599097918513E-003
   5.1299999999999998E-002    -1.6297106078867918E-002
   5.1600000000000007E-002    -3.2098503257572797E-002
   5.1900000000000002E-002    -5.3381302847550272E-002
   5.2200000000000010E-002    -8.0816778776764853E-002
   5.2500000000000005E-002   -0.11477426345956232     
   5.2800000000000000E-002   -0.15503930719876280     
   5.3099999999999994E-002   -0.20069523975086057     
   5.3400000000000003E-002   -0.25005895736233708     
   5.3699999999999998E-002   -0.30048080445268610     
   5.4000000000000006E-002   -0.34822065071607966     
   5.4300000000000001E-002   -0.38853637390334406     
   5.4599999999999996E-002   -0.41584745451251770     
   5.4900000000000004E-002   -0.42398653998268898     
   5.5199999999999999E-002   -0.40654216659752507     
   5.5499999999999994E-002   -0.35751004438217926     
   5.5800000000000002E-002   -0.27195384262360278     
   5.6099999999999997E-002   -0.14659060161039905     
   5.6400000000000006E-002     1.9447659359512093E-002
   5.6700000000000000E-002    0.22404514863593050     
   5.6999999999999995E-002    0.46171440389204754     
   5.7300000000000004E-002    0.72333625383694766     
   5.7599999999999998E-002    0.99646697492987713     
   5.7900000000000007E-002     1.2656941275915656     
   5.8200000000000002E-002     1.5135126069275557     
   5.8499999999999996E-002     1.7215457843819308     
   5.8800000000000005E-002     1.8717666437483302     
   5.9100000000000000E-002     1.9480853526044797     
   5.9400000000000008E-002     1.9378110636984189     
   5.9700000000000003E-002     1.8329130280089245     
   6.0000000000000012E-002     1.6311014286364411     
   6.0300000000000006E-002     1.3363863085353138     
   6.0600000000000001E-002    0.95928525158465305     
   6.0900000000000010E-002    0.51629915575533136     
   6.1200000000000004E-002     2.8843573376322151E-002
   6.1500000000000013E-002   -0.47763026458119562     
   6.1800000000000008E-002   -0.97596322277199477     
   6.2100000000000002E-002    -1.4390406345172124     
   6.2399999999999997E-002    -1.8414702953388158     
   6.2700000000000006E-002    -2.1619247218699940     
   6.3000000000000000E-002    -2.3843281711131397     
   6.3300000000000009E-002    -2.4989649180259619     
   6.3600000000000004E-002    -2.5035854470468308     
   6.3899999999999998E-002    -2.4027416007279498     
   6.4199999999999993E-002    -2.2076106748579747     
   6.4500000000000002E-002    -1.9352673511134384     
   6.4800000000000010E-002    -1.6067230822412171     
   6.5100000000000005E-002    -1.2455657642423539     
   6.5400000000000000E-002   -0.87621556128746292     
   6.5700000000000008E-002   -0.52161381464722689     
   6.5999999999999989E-002   -0.20233238142458365     
   6.6299999999999998E-002     6.5092817544964210E-002
   6.6600000000000006E-002    0.26915565349785986     
   6.6900000000000001E-002    0.40358773698056716     
   6.7199999999999996E-002    0.46751809807648215     
   6.7500000000000004E-002    0.46506953468099077     
   6.7800000000000013E-002    0.40460093444676914     
   6.8099999999999994E-002    0.29784114192922084     
   6.8400000000000002E-002    0.15863069974224375     
   6.8700000000000011E-002     2.0969355545068513E-003
   6.8999999999999992E-002   -0.15652683363393383     
   6.9300000000000000E-002   -0.30296829884938425     
   6.9600000000000009E-002   -0.42436063272027802     
   6.9900000000000004E-002   -0.50992368038637537     
   7.0199999999999999E-002   -0.55157137287104874     
   7.0500000000000007E-002   -0.54369140198711463     
   7.0800000000000016E-002   -0.48352595271205523     
   7.1099999999999997E-002   -0.37122343286604309     
   7.1400000000000005E-002   -0.20940830398177157     
   7.1700000000000000E-002    -3.2555404484810868E-003
   7.1999999999999995E-002    0.23978206826396331     
   7.2300000000000003E-002    0.51046370250876372     
   7.2600000000000012E-002    0.79797452579619943     
   7.2900000000000006E-002     1.0903662972264598     
   7.3200000000000001E-002     1.3753421768849279     
   7.3499999999999996E-002     1.6405174366937345     
   7.3800000000000004E-002     1.8739584293368949     
   7.4099999999999999E-002     2.0649484648432690     
   7.4400000000000008E-002     2.2043387323082868     
   7.4700000000000003E-002     2.2846489878424734     
   7.5000000000000011E-002     2.3009213026839603     
   7.5299999999999992E-002     2.2506485316877729     
   7.5600000000000001E-002     2.1336361943101352     
   7.5900000000000009E-002     1.9523767291832002     
   7.6200000000000004E-002     1.7119299958346446     
   7.6499999999999999E-002     1.4194778070249789     
   7.6800000000000007E-002     1.0844616595956609     
   7.7099999999999988E-002    0.71797828570018662     
   7.7399999999999997E-002    0.33226202051758236     
   7.7700000000000005E-002    -5.9206748478448423E-002
   7.8000000000000014E-002   -0.44283074274770406     
   7.8299999999999995E-002   -0.80572747799317668     
   7.8600000000000003E-002    -1.1355304392263363     
   7.8900000000000012E-002    -1.4217024594035834     
   7.9199999999999993E-002    -1.6564105827819731     
   7.9500000000000001E-002    -1.8340979586889574     
   7.9800000000000010E-002    -1.9523853347896392     
   8.0100000000000018E-002    -2.0121791442723946     
   8.0399999999999999E-002    -2.0170056709185360     
   8.0700000000000008E-002    -1.9730251247290980     
   8.1000000000000003E-002    -1.8882561109775295     
   8.1299999999999997E-002    -1.7715145309855203     
   8.1600000000000006E-002    -1.6318874159957275     
   8.1900000000000014E-002    -1.4777836701573932     
   8.2199999999999995E-002    -1.3160818703432362     
   8.2500000000000004E-002    -1.1517815080517231     
   8.2799999999999999E-002   -0.98770755324272841     
   8.3100000000000007E-002   -0.82455053472980211     
   8.3400000000000002E-002   -0.66116657797217648     
   8.3700000000000011E-002   -0.49503692383209952     
   8.4000000000000005E-002   -0.32292947779364090     
   8.4300000000000000E-002   -0.14179985417418006     
   8.4599999999999995E-002     5.0677428738209629E-002
   8.4900000000000003E-002    0.25547587912824898     
   8.5199999999999998E-002    0.47158825868940646     
   8.5500000000000007E-002    0.69608798525459648     
   8.5800000000000001E-002    0.92399533457900063     
   8.6100000000000010E-002     1.1482027112571842     
   8.6399999999999991E-002     1.3602898682723321     
   8.6699999999999999E-002     1.5507308082339577     
   8.7000000000000008E-002     1.7093247946298931     
   8.7300000000000003E-002     1.8264520101417929     
   8.7599999999999997E-002     1.8930014246057780     
   8.7900000000000006E-002     1.9011724376319705     
   8.8200000000000014E-002     1.8456268907475177     
   8.8499999999999995E-002     1.7230649738358110     
   8.8800000000000004E-002     1.5331677403523862     
   8.9100000000000013E-002     1.2792883542383144     
   8.9399999999999993E-002    0.96770653131599449     
   8.9700000000000002E-002    0.60842051244527440     
   9.0000000000000011E-002    0.21502872743978507     
   9.0299999999999991E-002   -0.19646134734370646     
   9.0600000000000000E-002   -0.60743804114761701     
   9.0900000000000009E-002   -0.99779388434222938     
   9.1200000000000017E-002    -1.3473906488421008     
   9.1499999999999998E-002    -1.6367753377611223     
   9.1800000000000007E-002    -1.8487033287680745     
   9.2100000000000001E-002    -1.9696587349931747     
   9.2399999999999996E-002    -1.9904792215794487     
   9.2700000000000005E-002    -1.9075784258513622     
   9.3000000000000013E-002    -1.7235299145399523     
   9.3300000000000008E-002    -1.4468788716832854     
   9.3600000000000003E-002    -1.0919862316555462     
   9.3899999999999997E-002   -0.67815321531587003     
   9.4200000000000006E-002   -0.22867985790975887     
   9.4500000000000001E-002    0.23083933785350830     
   9.4800000000000009E-002    0.67443135125522247     
   9.5100000000000004E-002     1.0768387506679602     
   9.5399999999999999E-002     1.4157742996172615     
   9.5699999999999993E-002     1.6733136628766232     
   9.6000000000000002E-002     1.8366093257517093     
   9.6300000000000011E-002     1.8991666027165195     
   9.6600000000000005E-002     1.8609155355293652     
   9.6900000000000000E-002     1.7277640412974975     
   9.7200000000000009E-002     1.5114702120758707     
   9.7499999999999989E-002     1.2282349798286436     
   9.7799999999999998E-002    0.89743396454441893     
   9.8100000000000007E-002    0.54060347539773623     
   9.8400000000000015E-002    0.17918052821422314     
   9.8699999999999996E-002   -0.16637016540195804     
   9.9000000000000005E-002   -0.47774750649129594     
   9.9300000000000013E-002   -0.74019568774088640     
   9.9599999999999994E-002   -0.94291839514747622     
   9.9900000000000003E-002    -1.0791798135586745     
  0.10020000000000001         -1.1467846503354266     
  0.10049999999999999         -1.1473591548138984     
  0.10080000000000000         -1.0860785797081114     
  0.10110000000000001        -0.97133656048880113     
  0.10140000000000000        -0.81353134567358332     
  0.10170000000000000        -0.62481531473592966     
  0.10200000000000001        -0.41844969413608313     
  0.10230000000000002        -0.20787517500625441     
  0.10260000000000000         -6.7377541149271636E-003
  0.10290000000000001         0.17205185199001072     
  0.10320000000000000         0.31698508176999241     
  0.10350000000000001         0.41776416023259877     
  0.10380000000000000         0.46655551638660597     
  0.10410000000000001         0.45824110982466770     
  0.10440000000000001         0.39042940463473974     
  0.10470000000000000         0.26435337325096420     
  0.10500000000000000          8.4770844065761075E-002
  0.10530000000000000        -0.14045296621680503     
  0.10560000000000000        -0.39987628161106592     
  0.10590000000000001        -0.67976618372616926     
  0.10620000000000000        -0.96480342615880232     
  0.10650000000000001         -1.2384774727512209     
  0.10679999999999999         -1.4847793747926445     
  0.10710000000000000         -1.6889897231671114     
  0.10740000000000001         -1.8384572190087169     
  0.10770000000000000         -1.9234804709512971     
  0.10800000000000000         -1.9378611017332759     
  0.10830000000000001         -1.8789372291395381     
  0.10859999999999999         -1.7477565769743180     
  0.10890000000000000         -1.5486569079755057     
  0.10920000000000001         -1.2891907448106839     
  0.10950000000000001        -0.97891632991845690     
  0.10979999999999999        -0.62958799528443166     
  0.11009999999999999        -0.25451025223641111     
  0.11040000000000001         0.13249663105763954     
  0.11070000000000001         0.51674324846712238     
  0.11100000000000000         0.88330947574817387     
  0.11130000000000000          1.2180406864599647     
  0.11160000000000002          1.5069604354250430     
  0.11190000000000001          1.7376828344081048     
  0.11220000000000001          1.9000182868825135     
  0.11250000000000000          1.9859155304092653     
  0.11280000000000000          1.9911651214159392     
  0.11309999999999999          1.9158049702635935     
  0.11340000000000001          1.7637707642119267     
  0.11369999999999998          1.5443324148756474     
  0.11400000000000000          1.2710610366884705     
  0.11430000000000000         0.96124043756718169     
  0.11460000000000002         0.63560845588321913     
  0.11489999999999999         0.31579250325725283     
  0.11520000000000001          2.3618573221763306E-002
  0.11550000000000001        -0.22043040515389212     
  0.11580000000000000        -0.39984475177510159     
  0.11609999999999999        -0.50221208351123836     
  0.11640000000000002        -0.52053411117800685     
  0.11670000000000001        -0.45428642125579977     
  0.11700000000000001        -0.30804367496882179     
  0.11730000000000000         -9.2026282420494709E-002
  0.11760000000000000         0.17922042791576676     
  0.11789999999999999         0.48882644883217097     
  0.11820000000000001         0.81768240201391151     
  0.11850000000000001          1.1464009502138808     
  0.11880000000000000          1.4568713792011110     
  0.11910000000000000          1.7321205617857345     
  0.11940000000000002          1.9575586753784933     
  0.11970000000000001          2.1212833403034850     
  0.12000000000000001          2.2134099895696693     
  0.12030000000000000          2.2268425576933808     
  0.12060000000000000          2.1569607480000386     
  0.12089999999999999          2.0011391591918013     
  0.12119999999999999          1.7592085097143002     
  0.12150000000000001          1.4339189055506525     
  0.12180000000000001          1.0306071727971471     
  0.12210000000000000         0.55804507127353986     
  0.12239999999999999          2.9165707396115792E-002
  0.12270000000000002        -0.53986667626439200     
  0.12300000000000001         -1.1290807594685077     
  0.12330000000000001         -1.7144988277485069     
  0.12360000000000000         -2.2708735334441457     
  0.12390000000000000         -2.7714257112917977     
  0.12419999999999999         -3.1890943481477194     
  0.12450000000000001         -3.5004857653110690     
  0.12480000000000001         -3.6853947481457539     
  0.12509999999999999         -3.7291490069318769     
  0.12540000000000001         -3.6252993877597675     
  0.12570000000000003         -3.3742258704937953     
  0.12600000000000000         -2.9847903169963743     
  0.12630000000000002         -2.4745740092067887     
  0.12659999999999999         -1.8667097339288254     
  0.12690000000000001         -1.1904643074446355     
  0.12719999999999998        -0.47889751638714273     
  0.12750000000000000         0.23485491280484538     
  0.12780000000000002         0.91750081111507242     
  0.12809999999999999          1.5387673916417555     
  0.12840000000000001          2.0738781269868340     
  0.12869999999999998          2.5027707529690559     
  0.12900000000000000          2.8124920132954969     
  0.12930000000000003          2.9974289572480188     
  0.12959999999999999          3.0573516587032685     
  0.12990000000000002          2.9986757827888511     
  0.13019999999999998          2.8327102675165392     
  0.13050000000000000          2.5736942140113968     
  0.13080000000000003          2.2390341069674271     
  0.13109999999999999          1.8469018619561499     
  0.13140000000000002          1.4153070181481233     
  0.13169999999999998         0.96193299849852565     
  0.13200000000000001         0.50244746636769122     
  0.13229999999999997          5.0331169206430104E-002
  0.13260000000000000        -0.38282215817546916     
  0.13290000000000002        -0.78838781352041920     
  0.13319999999999999         -1.1596891334529715     
  0.13350000000000001         -1.4920141296145530     
  0.13380000000000003         -1.7825287249881896     
  0.13410000000000000         -2.0291413309250999     
  0.13440000000000002         -2.2308493953724593     
  0.13469999999999999         -2.3868354483420120     
  0.13500000000000001         -2.4961355842414434     
  0.13529999999999998         -2.5581154882793982     
  0.13560000000000000         -2.5718907627164498     
  0.13590000000000002         -2.5370216322891750     
  0.13619999999999999         -2.4539518675997982     
  0.13650000000000001         -2.3237608458640509     
  0.13680000000000003         -2.1496315221374989     
  0.13710000000000000         -1.9368458837802685     
  0.13740000000000002         -1.6925919158124505     
  0.13769999999999999         -1.4265847103113085     
  0.13800000000000001         -1.1500163150533265     
  0.13829999999999998        -0.87478803984415876     
  0.13860000000000000        -0.61285932381584729     
  0.13890000000000002        -0.37445101152080262     
  0.13919999999999999        -0.16684043657652303     
  0.13950000000000001          6.7593958662222065E-003
  0.13979999999999998         0.14854212781189480     
  0.14010000000000000         0.26585968670545057     
  0.14040000000000002         0.37107529978001175     
  0.14069999999999999         0.48086438983521163     
  0.14100000000000001         0.61409468321834026     
  0.14130000000000004         0.78967266388653101     
  0.14160000000000000          1.0241516051696919     
  0.14189999999999997          1.3286535728496744     
  0.14219999999999999          1.7068354791573839     
  0.14250000000000002          2.1531847082001576     
  0.14279999999999998          2.6519382895064467     
  0.14310000000000000          3.1775186231079005     
  0.14339999999999997          3.6961563891768634     
  0.14369999999999999          4.1683141543207682     
  0.14400000000000002          4.5518532717979667     
  0.14429999999999998          4.8065679446976901     
  0.14460000000000001          4.8981337547366195     
  0.14490000000000003          4.8016315924479613     
  0.14520000000000000          4.5052543341826805     
  0.14550000000000002          4.0117237861899468     
  0.14579999999999999          3.3388357093961716     
  0.14610000000000001          2.5187482799469443     
  0.14640000000000003          1.5956606560301765     
  0.14670000000000000         0.62154660261990102     
  0.14699999999999996        -0.34764935124430618     
  0.14729999999999999         -1.2570095137329140     
  0.14760000000000001         -2.0578936808461563     
  0.14789999999999998         -2.7113565921478227     
  0.14820000000000000         -3.1918796532916218     