  -1.4999999999999999E-002     0.0000000000000000     
  -1.4700000000000000E-002    -8.7572389570581563E-033
  -1.4400000000000000E-002    -8.2280780864396788E-026
  -1.4100000000000000E-002     2.4323812882231579E-022
  -1.3800000000000000E-002     3.1166333405188249E-020
  -1.3500000000000000E-002    -3.6631512481151835E-019
  -1.3200000000000000E-002    -4.1167029599768638E-018
  -1.2899999999999998E-002     2.8408942420427399E-017
  -1.2600000000000000E-002     5.1160538551253524E-017
  -1.2299999999999998E-002    -2.9261954890893722E-016
  -1.2000000000000000E-002    -8.3104938260005249E-016
  -1.1699999999999999E-002     1.9635058044807727E-015
  -1.1399999999999999E-002     5.4716342100366491E-015
  -1.1099999999999999E-002     6.3641799316128175E-016
  -1.0799999999999999E-002    -3.5609986774641847E-014
  -1.0499999999999999E-002    -4.5957070207757258E-014
  -1.0199999999999999E-002     1.2922886231166858E-013
  -9.8999999999999991E-003     2.6552721067892027E-013
  -9.5999999999999992E-003    -1.6908584179065739E-013
  -9.2999999999999992E-003    -6.2822842631163334E-013
  -8.9999999999999993E-003    -1.4365965014806470E-012
  -8.6999999999999994E-003     1.2609884924436043E-012
  -8.3999999999999995E-003     7.4034034111547520E-012
  -8.0999999999999996E-003    -3.0622457694584604E-012
  -7.7999999999999988E-003    -6.5669795989986568E-012
  -7.4999999999999997E-003    -1.1039677852431318E-011
  -7.1999999999999998E-003    -2.6012478629433566E-011
  -6.8999999999999981E-003     8.1713177890740951E-011
  -6.5999999999999982E-003     5.6546895638165395E-011
  -6.3000000000000000E-003    -1.3249611130472516E-010
  -6.0000000000000001E-003     6.7959131377914872E-011
  -5.6999999999999985E-003    -3.3932040510720185E-010
  -5.3999999999999986E-003    -3.5572454704091427E-011
  -5.1000000000000004E-003     1.2052466802359163E-009
  -4.7999999999999987E-003    -6.9545669223458617E-010
  -4.5000000000000005E-003    -4.5065257081589039E-011
  -4.1999999999999989E-003     4.3639086788616055E-010
  -3.8999999999999990E-003    -4.6126382713396197E-009
  -3.5999999999999990E-003     4.5138506266084732E-009
  -3.2999999999999991E-003     3.8418592751554570E-009
  -2.9999999999999992E-003    -6.3448166720547761E-009
  -2.6999999999999993E-003     1.0663541161193280E-008
  -2.3999999999999994E-003    -1.3422600808610241E-008
  -2.0999999999999977E-003    -1.4580860074886459E-008
  -1.7999999999999995E-003     3.4201395493482778E-008
  -1.4999999999999979E-003    -2.3746757449316647E-008
  -1.1999999999999997E-003     2.0039466974708375E-008
  -8.9999999999999976E-004     3.7510801575990627E-008
  -5.9999999999999810E-004    -1.1748405626121894E-007
  -2.9999999999999992E-004     8.2294889125478221E-008
   0.0000000000000000          3.6598901687057150E-009
   3.0000000000000165E-004    -1.7013931596920884E-007
   5.9999999999999984E-004     4.0299593706549786E-007
   9.0000000000000149E-004    -2.1441850606152002E-007
   1.2000000000000031E-003    -4.7074468056962360E-007
   1.5000000000000013E-003     9.6433848284505075E-007
   1.8000000000000030E-003    -5.0173383669971372E-007
   2.1000000000000012E-003    -9.9575993317557732E-007
   2.3999999999999994E-003     1.7838654002844123E-006
   2.7000000000000010E-003    -2.7512720635058940E-007
   2.9999999999999992E-003    -1.6257243942163768E-006
   3.3000000000000008E-003     1.3387920034801937E-006
   3.6000000000000025E-003     2.1862561538910086E-008
   3.9000000000000007E-003    -3.9199372281473188E-007
   4.2000000000000023E-003     8.8317813151661539E-007
   4.5000000000000005E-003    -1.4934290675228112E-006
   4.7999999999999987E-003    -2.9306738724699244E-007
   5.1000000000000004E-003     1.5631549104000442E-006
   5.4000000000000020E-003    -1.2412414207574329E-007
   5.7000000000000037E-003     2.2559697754331864E-007
   5.9999999999999984E-003     7.6140435112392879E-007
   6.3000000000000000E-003     2.7855851385538699E-006
   6.6000000000000017E-003     8.7419175542891026E-006
   6.9000000000000034E-003     1.4858418580843136E-005
   7.2000000000000015E-003     2.1271320292726159E-005
   7.5000000000000032E-003     2.7990843591396697E-005
   7.8000000000000014E-003     3.3030952181434259E-005
   8.0999999999999996E-003     3.1784587918082252E-005
   8.4000000000000012E-003     2.0018318537040614E-005
   8.7000000000000029E-003    -2.4315777409356087E-006
   9.0000000000000011E-003    -3.6923782317899168E-005
   9.2999999999999992E-003    -8.4632476500701159E-005
   9.6000000000000009E-003    -1.5619945770595223E-004
   9.8999999999999991E-003    -2.9292030376382172E-004
   1.0200000000000001E-002    -5.5766676086932421E-004
   1.0500000000000002E-002    -1.0088606504723430E-003
   1.0800000000000004E-002    -1.7205973854288459E-003
   1.1099999999999999E-002    -2.8340141288936138E-003
   1.1400000000000000E-002    -4.5501743443310261E-003
   1.1700000000000002E-002    -7.1143857203423977E-003
   1.2000000000000004E-002    -1.0854469612240791E-002
   1.2300000000000002E-002    -1.6205640509724617E-002
   1.2600000000000000E-002    -2.3677136749029160E-002
   1.2900000000000002E-002    -3.3867873251438141E-002
   1.3200000000000000E-002    -4.7541171312332153E-002
   1.3500000000000002E-002    -6.5527275204658508E-002
   1.3800000000000003E-002    -8.8593423366546631E-002
   1.4100000000000001E-002   -0.11751177161931992     
   1.4400000000000000E-002   -0.15296609699726105     
   1.4700000000000001E-002   -0.19530752301216125     
   1.4999999999999999E-002   -0.24442107975482941     
   1.5300000000000001E-002   -0.29965153336524963     
   1.5600000000000003E-002   -0.35963413119316101     
   1.5899999999999997E-002   -0.42191645503044128     
   1.6199999999999999E-002   -0.48285913467407227     
   1.6500000000000001E-002   -0.53773093223571777     
   1.6800000000000002E-002   -0.58064025640487671     
   1.7100000000000004E-002   -0.60458344221115112     
   1.7400000000000006E-002   -0.60174816846847534     
   1.7700000000000000E-002   -0.56394565105438232     
   1.8000000000000002E-002   -0.48318877816200256     
   1.8300000000000004E-002   -0.35247030854225159     
   1.8600000000000005E-002   -0.16660280525684357     
   1.8900000000000000E-002     7.6956637203693390E-002
   1.9200000000000002E-002    0.37734642624855042     
   1.9500000000000003E-002    0.72941732406616211     
   1.9799999999999998E-002     1.1233035326004028     
   2.0100000000000000E-002     1.5444427728652954     
   2.0400000000000001E-002     1.9738847017288208     
   2.0700000000000003E-002     2.3887929916381836     
   2.0999999999999998E-002     2.7635977268218994     
   2.1299999999999999E-002     3.0716257095336914     
   2.1600000000000001E-002     3.2868876457214355     
   2.1900000000000003E-002     3.3857851028442383     
   2.2200000000000004E-002     3.3491082191467285     
   2.2500000000000006E-002     3.1635773181915283     
   2.2800000000000001E-002     2.8232595920562744     
   2.3100000000000002E-002     2.3305680751800537     
   2.3400000000000004E-002     1.6961064338684082     
   2.3699999999999999E-002    0.93883478641510010     
   2.4000000000000000E-002     8.5086524486541748E-002
   2.4300000000000002E-002   -0.83307051658630371     
   2.4599999999999997E-002    -1.7795590162277222     
   2.4900000000000005E-002    -2.7160933017730713     
   2.5200000000000000E-002    -3.6040241718292236     
   2.5499999999999995E-002    -4.4070029258728027     
   2.5800000000000003E-002    -5.0925822257995605     
   2.6099999999999998E-002    -5.6337594985961914     
   2.6400000000000007E-002    -6.0103507041931152     
   2.6700000000000002E-002    -6.2106852531433105     
   2.6999999999999996E-002    -6.2325382232666016     
   2.7300000000000005E-002    -6.0834951400756836     
   2.7600000000000000E-002    -5.7819828987121582     
   2.7900000000000008E-002    -5.3568749427795410     
   2.8200000000000003E-002    -4.8471431732177734     
   2.8499999999999998E-002    -4.3007211685180664     
   2.8800000000000006E-002    -3.7712106704711914     
   2.9100000000000001E-002    -3.3143825531005859     
   2.9400000000000003E-002    -2.9833159446716309     
   2.9700000000000004E-002    -2.8223218917846680     
   3.0000000000000006E-002    -2.8594694137573242     
   3.0300000000000001E-002    -3.0997898578643799     
   3.0600000000000002E-002    -3.5188879966735840     
   3.0900000000000004E-002    -4.0597128868103027     
   3.1199999999999999E-002    -4.6301975250244141     
   3.1500000000000007E-002    -5.1052722930908203     
   3.1800000000000002E-002    -5.3346934318542480     
   3.2099999999999997E-002    -5.1535840034484863     
   3.2400000000000005E-002    -4.3984932899475098     
   3.2700000000000000E-002    -2.9261441230773926     
   3.3000000000000002E-002   -0.63242089748382568     
   3.3300000000000003E-002     2.5277357101440430     
   3.3599999999999998E-002     6.5257449150085449     
   3.3900000000000000E-002     11.248028755187988     
   3.4200000000000001E-002     16.493234634399414     
   3.4500000000000003E-002     21.979242324829102     
   3.4799999999999998E-002     27.358728408813477     
   3.5099999999999999E-002     32.242511749267578     
   3.5400000000000001E-002     36.228355407714844     
   3.5699999999999996E-002     38.935558319091797     
   3.6000000000000004E-002     40.040725708007812     
   3.6299999999999999E-002     39.309032440185547     
   3.6600000000000008E-002     36.618595123291016     
   3.6900000000000002E-002     31.974521636962891     
   3.7199999999999997E-002     25.517505645751953     
   3.7500000000000006E-002     17.516464233398438     
   3.7800000000000000E-002     8.3495540618896484     
   3.8100000000000009E-002    -1.5221624374389648     
   3.8400000000000004E-002    -11.588203430175781     
   3.8699999999999998E-002    -21.324958801269531     
   3.9000000000000007E-002    -30.233047485351562     
   3.9300000000000002E-002    -37.871601104736328     
   3.9600000000000003E-002    -43.887500762939453     
   3.9900000000000005E-002    -48.033294677734375     
   4.0200000000000000E-002    -50.174446105957031     
   4.0500000000000001E-002    -50.298049926757812     
   4.0800000000000003E-002    -48.503791809082031     
   4.1100000000000005E-002    -44.986011505126953     
   4.1399999999999999E-002    -40.015495300292969     
   4.1700000000000008E-002    -33.918426513671875     
   4.2000000000000003E-002    -27.054185867309570     
   4.2299999999999997E-002    -19.787424087524414     
   4.2600000000000006E-002    -12.467368125915527     
   4.2900000000000001E-002    -5.4116697311401367     
   4.3200000000000002E-002     1.1069802045822144     
   4.3500000000000004E-002     6.8723874092102051     
   4.3799999999999999E-002     11.731352806091309     
   4.4100000000000000E-002     15.595709800720215     
   4.4400000000000002E-002     18.434133529663086     
   4.4700000000000004E-002     20.271051406860352     
   4.4999999999999998E-002     21.184127807617188     
   4.5300000000000000E-002     21.286252975463867     
   4.5600000000000002E-002     20.715118408203125     
   4.5899999999999996E-002     19.624328613281250     
   4.6200000000000005E-002     18.174230575561523     
   4.6500000000000000E-002     16.518934249877930     
   4.6799999999999994E-002     14.793638229370117     
   4.7100000000000003E-002     13.110073089599609     
   4.7399999999999998E-002     11.555607795715332     
   4.7700000000000006E-002     10.188500404357910     
   4.8000000000000001E-002     9.0342998504638672     
   4.8300000000000010E-002     8.0906333923339844     
   4.8600000000000004E-002     7.3338398933410645     
   4.8899999999999999E-002     6.7249474525451660     
   4.9200000000000008E-002     6.2118520736694336     
   4.9500000000000002E-002     5.7361869812011719     
   4.9800000000000011E-002     5.2427721023559570     
   5.0100000000000006E-002     4.6845889091491699     
   5.0400000000000000E-002     4.0243768692016602     
   5.0700000000000009E-002     3.2368006706237793     
   5.1000000000000004E-002     2.3124811649322510     
   5.1299999999999998E-002     1.2584398984909058     
   5.1600000000000007E-002     9.5700651407241821E-002
   5.1900000000000002E-002    -1.1440783739089966     
   5.2200000000000010E-002    -2.4186363220214844     
   5.2500000000000005E-002    -3.6777343750000000     
   5.2800000000000000E-002    -4.8680639266967773     
   5.3099999999999994E-002    -5.9384517669677734     
   5.3400000000000003E-002    -6.8414697647094727     
   5.3699999999999998E-002    -7.5357656478881836     
   5.4000000000000006E-002    -7.9902787208557129     
   5.4300000000000001E-002    -8.1882038116455078     
   5.4599999999999996E-002    -8.1272039413452148     
   5.4900000000000004E-002    -7.8167924880981445     
   5.5199999999999999E-002    -7.2807579040527344     
   5.5499999999999994E-002    -6.5564198493957520     
   5.5800000000000002E-002    -5.6910548210144043     
   5.6099999999999997E-002    -4.7359409332275391     
   5.6400000000000006E-002    -3.7446589469909668     
   5.6700000000000000E-002    -2.7709753513336182     
   5.6999999999999995E-002    -1.8648877143859863     
   5.7300000000000004E-002    -1.0660766363143921     
   5.7599999999999998E-002   -0.40339776873588562     
   5.7900000000000007E-002    0.10399165749549866     
   5.8200000000000002E-002    0.44893860816955566     
   5.8499999999999996E-002    0.63698720932006836     
   5.8800000000000005E-002    0.68583697080612183     
   5.9100000000000000E-002    0.62090337276458740     
   5.9400000000000008E-002    0.47209736704826355     
   5.9700000000000003E-002    0.27499663829803467     
   6.0000000000000012E-002     6.7106872797012329E-002
   6.0300000000000006E-002   -0.11612938344478607     
   6.0600000000000001E-002   -0.24531541764736176     
   6.0900000000000010E-002   -0.29660469293594360     
   6.1200000000000004E-002   -0.25299078226089478     
   6.1500000000000013E-002   -0.10708484053611755     
   6.1800000000000008E-002    0.13812097907066345     
   6.2100000000000002E-002    0.46972173452377319     
   6.2399999999999997E-002    0.86847490072250366     
   6.2700000000000006E-002     1.3078570365905762     
   6.3000000000000000E-002     1.7566388845443726     
   6.3300000000000009E-002     2.1817948818206787     
   6.3600000000000004E-002     2.5512955188751221     
   6.3899999999999998E-002     2.8371920585632324     
   6.4199999999999993E-002     3.0167772769927979     
   6.4500000000000002E-002     3.0750839710235596     
   6.4800000000000010E-002     3.0055065155029297     
   6.5100000000000005E-002     2.8109090328216553     
   6.5400000000000000E-002     2.5023281574249268     
   6.5700000000000008E-002     2.0985455513000488     
   6.5999999999999989E-002     1.6249399185180664     
   6.6299999999999998E-002     1.1100734472274780     
   6.6600000000000006E-002    0.58451884984970093     
   6.6900000000000001E-002     7.9561538994312286E-002
   6.7199999999999996E-002   -0.37574270367622375     
   6.7500000000000004E-002   -0.75638037919998169     
   6.7800000000000013E-002    -1.0434426069259644     
   6.8099999999999994E-002    -1.2235382795333862     
   6.8400000000000002E-002    -1.2893744707107544     
   6.8700000000000011E-002    -1.2423827648162842     
   6.8999999999999992E-002    -1.0915207862854004     
   6.9300000000000000E-002   -0.85288137197494507     
   6.9600000000000009E-002   -0.54713320732116699     
   6.9900000000000004E-002   -0.20139920711517334     
   7.0199999999999999E-002    0.15366224944591522     
   7.0500000000000007E-002    0.48509323596954346     
   7.0800000000000016E-002    0.76203370094299316     
   7.1099999999999997E-002    0.95667743682861328     
   7.1400000000000005E-002     1.0450400114059448     
   7.1700000000000000E-002     1.0112044811248779     
   7.1999999999999995E-002    0.84947049617767334     
   7.2300000000000003E-002    0.56523340940475464     
   7.2600000000000012E-002    0.17436012625694275     
   7.2900000000000006E-002   -0.29689118266105652     
   7.3200000000000001E-002   -0.81269490718841553     
   7.3499999999999996E-002    -1.3303142786026001     
   7.3800000000000004E-002    -1.8047869205474854     
   7.4099999999999999E-002    -2.1927080154418945     
   7.4400000000000008E-002    -2.4547975063323975     
   7.4700000000000003E-002    -2.5612330436706543     
   7.5000000000000011E-002    -2.4947330951690674     
   7.5299999999999992E-002    -2.2535386085510254     
   7.5600000000000001E-002    -1.8497778177261353     
   7.5900000000000009E-002    -1.3106472492218018     
   7.6200000000000004E-002   -0.67607724666595459     
   7.6499999999999999E-002     5.0272047519683838E-003
   7.6800000000000007E-002    0.67899250984191895     
   7.7099999999999988E-002     1.2937742471694946     
   7.7399999999999997E-002     1.8020932674407959     
   7.7700000000000005E-002     2.1653404235839844     
   7.8000000000000014E-002     2.3580489158630371     
   7.8299999999999995E-002     2.3708202838897705     
   7.8600000000000003E-002     2.2090270519256592     
   7.8900000000000012E-002     1.8914498090744019     
   7.9199999999999993E-002     1.4488362073898315     
   7.9500000000000001E-002    0.92073541879653931     
   7.9800000000000010E-002    0.35179591178894043     
   8.0100000000000018E-002   -0.21357214450836182     
   8.0399999999999999E-002   -0.73473310470581055     
   8.0700000000000008E-002    -1.1772820949554443     
   8.1000000000000003E-002    -1.5150740146636963     
   8.1299999999999997E-002    -1.7318152189254761     
   8.1600000000000006E-002    -1.8214274644851685     
   8.1900000000000014E-002    -1.7878857851028442     
   8.2199999999999995E-002    -1.6428031921386719     
   8.2500000000000004E-002    -1.4039357900619507     
   8.2799999999999999E-002    -1.0927693843841553     
   8.3100000000000007E-002   -0.73416101932525635     
   8.3400000000000002E-002   -0.35350000858306885     
   8.3700000000000011E-002     2.4617681279778481E-002
   8.4000000000000005E-002    0.37929260730743408     
   8.4300000000000000E-002    0.69247037172317505     
   8.4599999999999995E-002    0.94886362552642822     
   8.4900000000000003E-002     1.1378055810928345     
   8.5199999999999998E-002     1.2545428276062012     
   8.5500000000000007E-002     1.2992569208145142     
   8.5800000000000001E-002     1.2757174968719482     
   8.6100000000000010E-002     1.1907020807266235     
   8.6399999999999991E-002     1.0551068782806396     
   8.6699999999999999E-002    0.88360893726348877     
   8.7000000000000008E-002    0.69178432226181030     
   8.7300000000000003E-002    0.49318394064903259     
   8.7599999999999997E-002    0.30163389444351196     
   8.7900000000000006E-002    0.12952342629432678     
   8.8200000000000014E-002    -1.3244792819023132E-002
   8.8499999999999995E-002   -0.12092290073633194     
   8.8800000000000004E-002   -0.19193089008331299     
   8.9100000000000013E-002   -0.22758840024471283     
   8.9399999999999993E-002   -0.23118430376052856     
   8.9700000000000002E-002   -0.20859332382678986     
   9.0000000000000011E-002   -0.16814540326595306     
   9.0299999999999991E-002   -0.11874264478683472     
   9.0600000000000000E-002    -6.9179996848106384E-002
   9.0900000000000009E-002    -2.6422921568155289E-002
   9.1200000000000017E-002     3.0030710622668266E-003
   9.1499999999999998E-002     1.3941052369773388E-002
   9.1800000000000007E-002     3.2990803010761738E-003
   9.2100000000000001E-002    -3.0411204323172569E-002
   9.2399999999999996E-002    -8.5049614310264587E-002
   9.2700000000000005E-002   -0.15745066106319427     
   9.3000000000000013E-002   -0.24327060580253601     
   9.3300000000000008E-002   -0.33803313970565796     
   9.3600000000000003E-002   -0.43400168418884277     
   9.3899999999999997E-002   -0.52295863628387451     
   9.4200000000000006E-002   -0.59797364473342896     
   9.4500000000000001E-002   -0.65385693311691284     
   9.4800000000000009E-002   -0.68565654754638672     
   9.5100000000000004E-002   -0.68798530101776123     
   9.5399999999999999E-002   -0.65818953514099121     
   9.5699999999999993E-002   -0.59799772500991821     
   9.6000000000000002E-002   -0.51112788915634155     
   9.6300000000000011E-002   -0.40033340454101562     
   9.6600000000000005E-002   -0.27034118771553040     
   9.6900000000000000E-002   -0.12906627357006073     
   9.7200000000000009E-002     1.4045314863324165E-002
   9.7499999999999989E-002    0.15141274034976959     
   9.7799999999999998E-002    0.27804544568061829     
   9.8100000000000007E-002    0.38764423131942749     
   9.8400000000000015E-002    0.47360396385192871     
   9.8699999999999996E-002    0.53223431110382080     
   9.9000000000000005E-002    0.56363373994827271     
   9.9300000000000013E-002    0.56898772716522217     
   9.9599999999999994E-002    0.54870861768722534     
   9.9900000000000003E-002    0.50468319654464722     
  0.10020000000000001         0.44194579124450684     
  0.10049999999999999         0.36670246720314026     
  0.10080000000000000         0.28350639343261719     
  0.10110000000000001         0.19698204100131989     
  0.10140000000000000         0.11299697309732437     
  0.10170000000000000          3.7221543490886688E-002
  0.10200000000000001         -2.6182161644101143E-002
  0.10230000000000002         -7.4429221451282501E-002
  0.10260000000000000        -0.10509992390871048     
  0.10290000000000001        -0.11671512573957443     
  0.10320000000000000        -0.11026412248611450     
  0.10350000000000001         -8.8070586323738098E-002
  0.10380000000000000         -5.2514851093292236E-002
  0.10410000000000001         -7.6982849277555943E-003
  0.10440000000000001          4.0660455822944641E-002
  0.10470000000000000          8.6906865239143372E-002
  0.10500000000000000         0.12711183726787567     
  0.10530000000000000         0.15739625692367554     
  0.10560000000000000         0.17351064085960388     
  0.10590000000000001         0.17227360606193542     
  0.10620000000000000         0.15415850281715393     
  0.10650000000000001         0.12137874215841293     
  0.10679999999999999          7.5215101242065430E-002
  0.10710000000000000          1.7392573878169060E-002
  0.10740000000000001         -4.8004075884819031E-002
  0.10770000000000000        -0.11465544998645782     
  0.10800000000000000        -0.17824573814868927     
  0.10830000000000001        -0.23686197400093079     
  0.10859999999999999        -0.28732132911682129     
  0.10890000000000000        -0.32482886314392090     
  0.10920000000000001        -0.34641852974891663     
  0.10950000000000001        -0.35261705517768860     
  0.10979999999999999        -0.34388187527656555     
  0.11009999999999999        -0.31929638981819153     
  0.11040000000000001        -0.27883175015449524     
  0.11070000000000001        -0.22547121345996857     
  0.11100000000000000        -0.16350047290325165     
  0.11130000000000000         -9.5613949000835419E-002
  0.11160000000000002         -2.4715607985854149E-002
  0.11190000000000001          4.4705409556627274E-002
  0.11220000000000001         0.10699928551912308     
  0.11250000000000000         0.15850998461246490     
  0.11280000000000000         0.19740551710128784     
  0.11309999999999999         0.22117881476879120     
  0.11340000000000001         0.22803933918476105     
  0.11369999999999998         0.21887274086475372     
  0.11400000000000000         0.19570158421993256     
  0.11430000000000000         0.16149660944938660     
  0.11460000000000002         0.11903169006109238     
  0.11489999999999999          7.2379603981971741E-002
  0.11520000000000001          2.5847669690847397E-002
  0.11550000000000001         -1.6601279377937317E-002
  0.11580000000000000         -5.2992649376392365E-002
  0.11609999999999999         -8.0646231770515442E-002
  0.11640000000000002         -9.7587212920188904E-002
  0.11670000000000001        -0.10321447253227234     
  0.11700000000000001         -9.8551601171493530E-002
  0.11730000000000000         -8.4015116095542908E-002
  0.11760000000000000         -6.0312576591968536E-002
  0.11789999999999999         -2.8947448357939720E-002
  0.11820000000000001          6.8578692153096199E-003
  0.11850000000000001          4.4463247060775757E-002
  0.11880000000000000          8.2231901586055756E-002
  0.11910000000000000         0.11810779571533203     
  0.11940000000000002         0.14824090898036957     
  0.11970000000000001         0.16942471265792847     
  0.12000000000000001         0.18069852888584137     
  0.12030000000000000         0.18198046088218689     
  0.12060000000000000         0.17148849368095398     
  0.12089999999999999         0.14884518086910248     
  0.12119999999999999         0.11609486490488052     
  0.12150000000000001          7.6515063643455505E-002
  0.12180000000000001          3.2839715480804443E-002
  0.12210000000000000         -1.3270996510982513E-002
  0.12239999999999999         -5.8209791779518127E-002
  0.12270000000000002         -9.7802549600601196E-002
  0.12300000000000001        -0.12943165004253387     
  0.12330000000000001        -0.15255472064018250     
  0.12360000000000000        -0.16648198664188385     
  0.12390000000000000        -0.16988956928253174     
  0.12419999999999999        -0.16297614574432373     
  0.12450000000000001        -0.14717777073383331     
  0.12480000000000001        -0.12512943148612976     
  0.12509999999999999         -9.7536578774452209E-002
  0.12540000000000001         -6.5621487796306610E-002
  0.12570000000000003         -3.1909875571727753E-002
  0.12600000000000000          1.0872405255213380E-003
  0.12630000000000002          3.1352728605270386E-002
  0.12659999999999999          5.8073639869689941E-002
  0.12690000000000001          7.9259157180786133E-002
  0.12719999999999998          9.3140698969364166E-002
  0.12750000000000000          9.8526358604431152E-002
  0.12780000000000002          9.5856852829456329E-002
  0.12809999999999999          8.5215225815773010E-002
  0.12840000000000001          6.7123159766197205E-002
  0.12869999999999998          4.3136697262525558E-002
  0.12900000000000000          1.5450763516128063E-002
  0.12930000000000003         -1.3449468649923801E-002
  0.12959999999999999         -4.1625514626502991E-002
  0.12990000000000002         -6.6625989973545074E-002
  0.13019999999999998         -8.6011424660682678E-002
  0.13050000000000000         -9.8442435264587402E-002
  0.13080000000000003        -0.10406564176082611     
  0.13109999999999999        -0.10230113565921783     
  0.13140000000000002         -9.2979513108730316E-002
  0.13169999999999998         -7.7016174793243408E-002
  0.13200000000000001         -5.6610409170389175E-002
  0.13229999999999997         -3.3677257597446442E-002
  0.13260000000000000         -8.5744969546794891E-003
  0.13290000000000002          1.7393540591001511E-002
  0.13319999999999999          4.2053923010826111E-002
  0.13350000000000001          6.3454955816268921E-002
  0.13380000000000003          8.0819487571716309E-002
  0.13410000000000000          9.4289101660251617E-002
  0.13440000000000002         0.10275903344154358     
  0.13469999999999999         0.10459328442811966     
  0.13500000000000001          9.9492080509662628E-002
  0.13529999999999998          8.8796354830265045E-002
  0.13560000000000000          7.3462404310703278E-002
  0.13590000000000002          5.3329147398471832E-002
  0.13619999999999999          2.9435224831104279E-002
  0.13650000000000001          4.1212202049791813E-003
  0.13680000000000003         -1.9926475360989571E-002
  0.13710000000000000         -4.1515935212373734E-002
  0.13740000000000002         -5.9848912060260773E-002
  0.13769999999999999         -7.3049724102020264E-002
  0.13800000000000001         -7.9773105680942535E-002
  0.13829999999999998         -7.9910449683666229E-002
  0.13860000000000000         -7.4629090726375580E-002
  0.13890000000000002         -6.4574107527732849E-002
  0.13919999999999999         -5.0031904131174088E-002
  0.13950000000000001         -3.2545205205678940E-002
  0.13979999999999998         -1.4349752105772495E-002
  0.14010000000000000          3.5053521860390902E-003
  0.14040000000000002          2.0737694576382637E-002
  0.14069999999999999          3.6235161125659943E-002
  0.14100000000000001          4.8427674919366837E-002
  0.14130000000000004          5.7010967284440994E-002
  0.14160000000000000          6.2482692301273346E-002
  0.14189999999999997          6.4983732998371124E-002
  0.14219999999999999          6.3154660165309906E-002
  0.14250000000000002          5.6640435010194778E-002
  0.14279999999999998          4.7272361814975739E-002
  0.14310000000000000          3.5585891455411911E-002
  0.14339999999999997          2.1402223035693169E-002
  0.14369999999999999          4.3079750612378120E-003
  0.14400000000000002         -1.3500957749783993E-002
  0.14429999999999998         -2.9277093708515167E-002
  0.14460000000000001         -4.2821593582630157E-002
  0.14490000000000003         -5.4682075977325439E-002
  0.14520000000000000         -6.3641034066677094E-002
  0.14550000000000002         -6.6923893988132477E-002
  0.14579999999999999         -6.4503863453865051E-002
  0.14610000000000001         -5.8472439646720886E-002
  0.14640000000000003         -5.0070531666278839E-002
  0.14670000000000000         -3.8441717624664307E-002
  0.14699999999999996         -2.3318475112318993E-002
  0.14729999999999999         -7.5493329204618931E-003
  0.14760000000000001          6.3515799120068550E-003
  0.14789999999999998          1.8575958907604218E-002
  0.14820000000000000          3.0047710984945297E-002