  -1.4999999999999999E-002     0.0000000000000000     
  -1.4700000000000000E-002     0.0000000000000000     
  -1.4400000000000000E-002     0.0000000000000000     
  -1.4100000000000000E-002     0.0000000000000000     
  -1.3800000000000000E-002     0.0000000000000000     
  -1.3500000000000000E-002     0.0000000000000000     
  -1.3200000000000000E-002     0.0000000000000000     
  -1.2899999999999998E-002     0.0000000000000000     
  -1.2600000000000000E-002     0.0000000000000000     
  -1.2299999999999998E-002     0.0000000000000000     
  -1.2000000000000000E-002     0.0000000000000000     
  -1.1699999999999999E-002     0.0000000000000000     
  -1.1399999999999999E-002     0.0000000000000000     
  -1.1099999999999999E-002     0.0000000000000000     
  -1.0799999999999999E-002     0.0000000000000000     
  -1.0499999999999999E-002     0.0000000000000000     
  -1.0199999999999999E-002     0.0000000000000000     
  -9.8999999999999991E-003     0.0000000000000000     
  -9.5999999999999992E-003     0.0000000000000000     
  -9.2999999999999992E-003     0.0000000000000000     
  -8.9999999999999993E-003     0.0000000000000000     
  -8.6999999999999994E-003     0.0000000000000000     
  -8.3999999999999995E-003     0.0000000000000000     
  -8.0999999999999996E-003     0.0000000000000000     
  -7.7999999999999988E-003     0.0000000000000000     
  -7.4999999999999997E-003     0.0000000000000000     
  -7.1999999999999998E-003     0.0000000000000000     
  -6.8999999999999981E-003     0.0000000000000000     
  -6.5999999999999982E-003     0.0000000000000000     
  -6.3000000000000000E-003     0.0000000000000000     
  -6.0000000000000001E-003     0.0000000000000000     
  -5.6999999999999985E-003     0.0000000000000000     
  -5.3999999999999986E-003     0.0000000000000000     
  -5.1000000000000004E-003     0.0000000000000000     
  -4.7999999999999987E-003     0.0000000000000000     
  -4.5000000000000005E-003     0.0000000000000000     
  -4.1999999999999989E-003     0.0000000000000000     
  -3.8999999999999990E-003     0.0000000000000000     
  -3.5999999999999990E-003     0.0000000000000000     
  -3.2999999999999991E-003     0.0000000000000000     
  -2.9999999999999992E-003     0.0000000000000000     
  -2.6999999999999993E-003     0.0000000000000000     
  -2.3999999999999994E-003     0.0000000000000000     
  -2.0999999999999977E-003     0.0000000000000000     
  -1.7999999999999995E-003     0.0000000000000000     
  -1.4999999999999979E-003     0.0000000000000000     
  -1.1999999999999997E-003     0.0000000000000000     
  -8.9999999999999976E-004     0.0000000000000000     
  -5.9999999999999810E-004     0.0000000000000000     
  -2.9999999999999992E-004     0.0000000000000000     
   0.0000000000000000          0.0000000000000000     
   3.0000000000000165E-004     0.0000000000000000     
   5.9999999999999984E-004     0.0000000000000000     
   9.0000000000000149E-004     0.0000000000000000     
   1.2000000000000031E-003     0.0000000000000000     
   1.5000000000000013E-003     0.0000000000000000     
   1.8000000000000030E-003     0.0000000000000000     
   2.1000000000000012E-003     0.0000000000000000     
   2.3999999999999994E-003     0.0000000000000000     
   2.7000000000000010E-003     0.0000000000000000     
   2.9999999999999992E-003     0.0000000000000000     
   3.3000000000000008E-003     0.0000000000000000     
   3.6000000000000025E-003     0.0000000000000000     
   3.9000000000000007E-003     0.0000000000000000     
   4.2000000000000023E-003     0.0000000000000000     
   4.5000000000000005E-003     0.0000000000000000     
   4.7999999999999987E-003     0.0000000000000000     
   5.1000000000000004E-003     0.0000000000000000     
   5.4000000000000020E-003     0.0000000000000000     
   5.7000000000000037E-003     0.0000000000000000     
   5.9999999999999984E-003     0.0000000000000000     
   6.3000000000000000E-003     0.0000000000000000     
   6.6000000000000017E-003     0.0000000000000000     
   6.9000000000000034E-003     0.0000000000000000     
   7.2000000000000015E-003     0.0000000000000000     
   7.5000000000000032E-003     0.0000000000000000     
   7.8000000000000014E-003     0.0000000000000000     
   8.0999999999999996E-003     0.0000000000000000     
   8.4000000000000012E-003     0.0000000000000000     
   8.7000000000000029E-003     0.0000000000000000     
   9.0000000000000011E-003     0.0000000000000000     
   9.2999999999999992E-003     0.0000000000000000     
   9.6000000000000009E-003     0.0000000000000000     
   9.8999999999999991E-003     0.0000000000000000     
   1.0200000000000001E-002     0.0000000000000000     
   1.0500000000000002E-002     0.0000000000000000     
   1.0800000000000004E-002     0.0000000000000000     
   1.1099999999999999E-002     0.0000000000000000     
   1.1400000000000000E-002    -2.9260822395040197E-038
   1.1700000000000002E-002    -3.7866024430234711E-037
   1.2000000000000004E-002     3.0586429687782047E-036
   1.2300000000000002E-002    -1.0864338740391680E-035
   1.2600000000000000E-002     4.8465593652194986E-035
   1.2900000000000002E-002    -1.4172377564091150E-034
   1.3200000000000000E-002     1.5305320724672878E-034
   1.3500000000000002E-002    -4.0801335568094129E-034
   1.3800000000000003E-002    -7.9962358502549814E-034
   1.4100000000000001E-002     6.3538805091684604E-033
   1.4400000000000000E-002    -8.3597456098732524E-033
   1.4700000000000001E-002     1.3968747187567509E-033
   1.4999999999999999E-002     1.9911745859418190E-032
   1.5300000000000001E-002    -6.1281944418105577E-032
   1.5600000000000003E-002     9.8752924189181591E-032
   1.5899999999999997E-002    -4.2960332049769820E-032
   1.6199999999999999E-002    -2.1795914908259225E-031
   1.6500000000000001E-002     6.6775556642260407E-031
   1.6800000000000002E-002    -9.4662508189281463E-031
   1.7100000000000004E-002     2.7110168236446242E-031
   1.7400000000000006E-002     2.1434866582951338E-030
   1.7700000000000000E-002    -5.9742196141731401E-030
   1.8000000000000002E-002     8.3941283344088043E-030
   1.8300000000000004E-002    -3.3013160906387840E-030
   1.8600000000000005E-002    -1.7357816713377393E-029
   1.8900000000000000E-002     5.6487889649447006E-029
   1.9200000000000002E-002    -9.2040479891230278E-029
   1.9500000000000003E-002     4.6381230465202908E-029
   1.9799999999999998E-002     2.0860093121811819E-028
   2.0100000000000000E-002    -6.9788283898250131E-028
   2.0400000000000001E-002     9.7896358978676221E-028
   2.0700000000000003E-002     1.0516693669331417E-028
   2.0999999999999998E-002    -3.5988709597823959E-027
   2.1299999999999999E-002     7.7421914538379034E-027
   2.1600000000000001E-002    -5.1976013550229991E-027
   2.1900000000000003E-002    -1.3580614614087602E-026
   2.2200000000000004E-002     4.4634675024000899E-026
   2.2500000000000006E-002    -5.0445228699471140E-026
   2.2800000000000001E-002    -3.0580072793226487E-026
   2.3100000000000002E-002     2.0705608305704699E-025
   2.3400000000000004E-002    -3.1965174952930057E-025
   2.3699999999999999E-002     4.6822468928878135E-026
   2.4000000000000000E-002     7.7388201337605102E-025
   2.4300000000000002E-002    -1.5930126967844797E-024
   2.4599999999999997E-002     1.0033398585957103E-024
   2.4900000000000005E-002     2.1450806634175710E-024
   2.5200000000000000E-002    -6.4853327859673974E-024
   2.5499999999999995E-002     6.8654830703600685E-024
   2.5800000000000003E-002     2.7400431205769002E-024
   2.6099999999999998E-002    -2.1322402208072139E-023
   2.6400000000000007E-002     3.2805719535271502E-023
   2.6700000000000002E-002    -1.0313797413673359E-023
   2.6999999999999996E-002    -4.5419513378596877E-023
   2.7300000000000005E-002     3.1988343245923711E-023
   2.7600000000000000E-002     1.7775866280972017E-022
   2.7900000000000008E-002     5.4243478109536380E-023
   2.8200000000000003E-002    -3.4691343573764058E-021
   2.8499999999999998E-002     1.1606384443679946E-020
   2.8800000000000006E-002    -5.2507238231401284E-021
   2.9100000000000001E-002    -8.1662773481848366E-020
   2.9400000000000003E-002     2.9476236999015686E-019
   2.9700000000000004E-002    -3.2997035700284199E-019
   3.0000000000000006E-002    -8.9132799541274324E-019
   3.0300000000000001E-002     4.5778330072629049E-018
   3.0600000000000002E-002    -8.4029885028405996E-018
   3.0900000000000004E-002    -1.1673612942675919E-018
   3.1199999999999999E-002     5.6221214938132309E-017
   3.1500000000000007E-002    -1.7886994662452877E-016
   3.1800000000000002E-002     1.7990013367199645E-016
   3.2099999999999997E-002     8.4008137374944877E-016
   3.2400000000000005E-002    -4.2768654098000234E-015
   3.2700000000000000E-002     7.0298302043781229E-015
   3.3000000000000002E-002     1.0903707254405071E-014
   3.3300000000000003E-002    -8.3156827998143248E-014
   3.3599999999999998E-002     1.6732670278360066E-013
   3.3900000000000000E-002     4.4403842738415555E-014
   3.4200000000000001E-002    -1.0461614803613393E-012
   3.4500000000000003E-002     2.3925577241784044E-012
   3.4799999999999998E-002    -8.7595030656843717E-013
   3.5099999999999999E-002    -7.9549792834849393E-012
   3.5400000000000001E-002     2.0005096051584628E-011
   3.5699999999999996E-002    -1.2984155674464994E-011
   3.6000000000000004E-002    -3.3212554901285464E-011
   3.6299999999999999E-002     7.6910846159296458E-011
   3.6600000000000008E-002    -1.4025212044021264E-011
   3.6900000000000002E-002    -8.1553598460141926E-011
   3.7199999999999997E-002    -4.0852051587913218E-010
   3.7500000000000006E-002     1.9664778896196519E-009
   3.7800000000000000E-002    -1.1631875047426405E-009
   3.8100000000000009E-002    -1.3082683836629914E-008
   3.8400000000000004E-002     4.1138639446837669E-008
   3.8699999999999998E-002    -7.9083070232350888E-009
   3.9000000000000007E-002    -2.3617411005251102E-007
   3.9300000000000002E-002     4.5393323257013900E-007
   3.9600000000000003E-002     5.5011634971861475E-007
   3.9900000000000005E-002    -3.0831874706844950E-006
   4.0200000000000000E-002     6.0200709476183585E-007
   4.0500000000000001E-002     2.5141880222707475E-005
   4.0800000000000003E-002     5.5085352713234506E-005
   4.1100000000000005E-002     7.4308843331044464E-005
   4.1399999999999999E-002     9.0450029029177665E-005
   4.1700000000000008E-002     1.0717656758681485E-004
   4.2000000000000003E-002     1.4483899095043542E-004
   4.2299999999999997E-002     2.3831140275076476E-004
   4.2600000000000006E-002     3.7841271408536707E-004
   4.2900000000000001E-002     5.4781848435110810E-004
   4.3200000000000002E-002     7.7684609350729163E-004
   4.3500000000000004E-002     1.1085343512519732E-003
   4.3799999999999999E-002     1.5557299765284957E-003
   4.4100000000000000E-002     2.1133080777044899E-003
   4.4400000000000002E-002     2.8006920546938124E-003
   4.4700000000000004E-002     3.6495260013452574E-003
   4.4999999999999998E-002     4.6365073991190969E-003
   4.5300000000000000E-002     5.6955768077351643E-003
   4.5600000000000002E-002     6.7583401573458046E-003
   4.5899999999999996E-002     7.6707081956516876E-003
   4.6200000000000005E-002     8.1778910423196405E-003
   4.6500000000000000E-002     7.9778477650955526E-003
   4.6799999999999994E-002     6.6287782854982380E-003
   4.7100000000000003E-002     3.5289334589565097E-003
   4.7399999999999998E-002    -1.9977082000289387E-003
   4.7700000000000006E-002    -1.0705106482809118E-002
   4.8000000000000001E-002    -2.3476828967548408E-002
   4.8300000000000010E-002    -4.1221945220586642E-002
   4.8600000000000004E-002    -6.4637745927690116E-002
   4.8899999999999999E-002    -9.4172009047022165E-002
   4.9200000000000008E-002   -0.12999010666634980     
   4.9500000000000002E-002   -0.17169236218264183     
   4.9800000000000011E-002   -0.21805850921700909     
   5.0100000000000006E-002   -0.26701358373971296     
   5.0400000000000000E-002   -0.31553422148162813     
   5.0700000000000009E-002   -0.35950097569627815     
   5.1000000000000004E-002   -0.39387058767264271     
   5.1299999999999998E-002   -0.41286818629215460     
   5.1600000000000007E-002   -0.41024348406638289     
   5.1900000000000002E-002   -0.37985415514943099     
   5.2200000000000010E-002   -0.31620626657949913     
   5.2500000000000005E-002   -0.21508802040122177     
   5.2800000000000000E-002    -7.4309405985202748E-002
   5.3099999999999994E-002    0.10565216416783763     
   5.3400000000000003E-002    0.32112877977892873     
   5.3699999999999998E-002    0.56499748343149658     
   5.4000000000000006E-002    0.82662513752757683     
   5.4300000000000001E-002     1.0922357299258962     
   5.4599999999999996E-002     1.3455576721730758     
   5.4900000000000004E-002     1.5689185409087116     
   5.5199999999999999E-002     1.7444441654271685     
   5.5499999999999994E-002     1.8554323135932052     
   5.5800000000000002E-002     1.8880955904125045     
   5.6099999999999997E-002     1.8327512836747175     
   5.6400000000000006E-002     1.6849937396888706     
   5.6700000000000000E-002     1.4465419089948739     
   5.6999999999999995E-002     1.1253613794208377     
   5.7300000000000004E-002    0.73548313864331050     
   5.7599999999999998E-002    0.29614511184557823     
   5.7900000000000007E-002   -0.16943262824182348     
   5.8200000000000002E-002   -0.63592540861966662     
   5.8499999999999996E-002    -1.0775279155696964     
   5.8800000000000005E-002    -1.4701682506356200     
   5.9100000000000000E-002    -1.7932751400838640     
   5.9400000000000008E-002    -2.0310657831768424     
   5.9700000000000003E-002    -2.1740091683552336     
   6.0000000000000012E-002    -2.2191889212613916     
   6.0300000000000006E-002    -2.1702883961857680     
   6.0600000000000001E-002    -2.0371928963156023     
   6.0900000000000010E-002    -1.8348339215385110     
   6.1200000000000004E-002    -1.5818147013824770     
   6.1500000000000013E-002    -1.2989344510924710     
   6.1800000000000008E-002    -1.0073903830776629     
   6.2100000000000002E-002   -0.72716088487663910     
   6.2399999999999997E-002   -0.47568094712769238     
   6.2700000000000006E-002   -0.26684166938568055     
   6.3000000000000000E-002   -0.11015288235394971     
   6.3300000000000009E-002    -1.0400843977027507E-002
   6.3600000000000004E-002     3.2198133476221524E-002
   6.3899999999999998E-002     2.1498798285847415E-002
   6.4199999999999993E-002    -3.5134317508581647E-002
   6.4500000000000002E-002   -0.12738083233242614     
   6.4800000000000010E-002   -0.24300234800059772     
   6.5100000000000005E-002   -0.36877556785594523     
   6.5400000000000000E-002   -0.49130500526736931     
   6.5700000000000008E-002   -0.59750341662988049     
   6.5999999999999989E-002   -0.67525052545736663     
   6.6299999999999998E-002   -0.71399317258581618     
   6.6600000000000006E-002   -0.70536099309599720     
   6.6900000000000001E-002   -0.64323407410791944     
   6.7199999999999996E-002   -0.52405824400339185     
   6.7500000000000004E-002   -0.34711284849548107     
   6.7800000000000013E-002   -0.11489645570512508     
   6.8099999999999994E-002    0.16689040610759509     
   6.8400000000000002E-002    0.48962280244478262     
   6.8700000000000011E-002    0.84178540899725718     
   6.8999999999999992E-002     1.2093356798461485     
   6.9300000000000000E-002     1.5762890017787221     
   6.9600000000000009E-002     1.9255962318072477     
   6.9900000000000004E-002     2.2399251413420629     
   7.0199999999999999E-002     2.5026980485362742     
   7.0500000000000007E-002     2.6989108339402179     
   7.0800000000000016E-002     2.8161339193608086     
   7.1099999999999997E-002     2.8454101395580835     
   7.1400000000000005E-002     2.7815875894877564     
   7.1700000000000000E-002     2.6238740875273123     
   7.1999999999999995E-002     2.3757771387058000     
   7.2300000000000003E-002     2.0452527961609945     
   7.2600000000000012E-002     1.6439232505984265     
   7.2900000000000006E-002     1.1865133704616397     
   7.3200000000000001E-002    0.69049503833330306     
   7.3499999999999996E-002    0.17500516341162564     
   7.3800000000000004E-002   -0.34044034719526373     
   7.4099999999999999E-002   -0.83633107869448731     
   7.4400000000000008E-002    -1.2943982566112737     
   7.4700000000000003E-002    -1.6983880966939005     
   7.5000000000000011E-002    -2.0348027489076443     
   7.5299999999999992E-002    -2.2936083603773056     
   7.5600000000000001E-002    -2.4683988697618133     
   7.5900000000000009E-002    -2.5566142539162797     
   7.6200000000000004E-002    -2.5598127567689914     
   7.6499999999999999E-002    -2.4833306838805669     
   7.6800000000000007E-002    -2.3354465021930793     
   7.7099999999999988E-002    -2.1271337615962267     
   7.7399999999999997E-002    -1.8711726095195118     
   7.7700000000000005E-002    -1.5812303719763392     
   7.8000000000000014E-002    -1.2709239862312529     
   7.8299999999999995E-002   -0.95291228039797460     
   7.8600000000000003E-002   -0.63835415057400624     
   7.8900000000000012E-002   -0.33653180164931662     
   7.9199999999999993E-002    -5.4148499215283308E-002
   7.9500000000000001E-002    0.20467476135725171     
   7.9800000000000010E-002    0.43779314025877802     
   8.0100000000000018E-002    0.64466329038709969     
   8.0399999999999999E-002    0.82593651760217845     
   8.0700000000000008E-002    0.98290607802057650     
   8.1000000000000003E-002     1.1164765865339064     
   8.1299999999999997E-002     1.2267186326938955     
   8.1600000000000006E-002     1.3123379768347192     
   8.1900000000000014E-002     1.3710310845005083     
   8.2199999999999995E-002     1.3993376129928450     
   8.2500000000000004E-002     1.3928022513324194     
   8.2799999999999999E-002     1.3469568702120043     
   8.3100000000000007E-002     1.2583927181409038     
   8.3400000000000002E-002     1.1252918526172948     
   8.3700000000000011E-002    0.94813409346659938     
   8.4000000000000005E-002    0.73053373243349284     
   8.4300000000000000E-002    0.47966208574851343     
   8.4599999999999995E-002    0.20610761038837477     
   8.4900000000000003E-002    -7.6697845190761171E-002
   8.5199999999999998E-002   -0.35331029621751142     
   8.5500000000000007E-002   -0.60719614526580123     
   8.5800000000000001E-002   -0.82203675944020560     
   8.6100000000000010E-002   -0.98329482554221670     
   8.6399999999999991E-002    -1.0796971788323475     
   8.6699999999999999E-002    -1.1038600783881733     
   8.7000000000000008E-002    -1.0531938206776061     
   8.7300000000000003E-002   -0.93047375490572648     
   8.7599999999999997E-002   -0.74356306332731847     
   8.7900000000000006E-002   -0.50474631342803278     
   8.8200000000000014E-002   -0.22976214198192224     
   8.8499999999999995E-002     6.3161255781213121E-002
   8.8800000000000004E-002    0.35492041293519705     
   8.9100000000000013E-002    0.62680392228659620     
   8.9399999999999993E-002    0.86215863942746562     
   8.9700000000000002E-002     1.0471622055988252     
   9.0000000000000011E-002     1.1717535925480718     
   9.0299999999999991E-002     1.2303012872245311     
   9.0600000000000000E-002     1.2216672522259628     
   9.0900000000000009E-002     1.1490945560046555     
   9.1200000000000017E-002     1.0196463293896620     
   9.1499999999999998E-002    0.84350159635902600     
   9.1800000000000007E-002    0.63325758330575965     
   9.2100000000000001E-002    0.40293056856683052     
   9.2399999999999996E-002    0.16675042324007538     
   9.2700000000000005E-002    -6.1542286014492298E-002
   9.3000000000000013E-002   -0.26958051869620903     
   9.3300000000000008E-002   -0.44695892216652844     
   9.3600000000000003E-002   -0.58570251746332103     
   9.3899999999999997E-002   -0.68061694418021190     
   9.4200000000000006E-002   -0.72933959181584918     
   9.4500000000000001E-002   -0.73226714243632784     
   9.4800000000000009E-002   -0.69241562186196148     
   9.5100000000000004E-002   -0.61505106435462764     
   9.5399999999999999E-002   -0.50712791285025460     
   9.5699999999999993E-002   -0.37739289118069408     
   9.6000000000000002E-002   -0.23579265929708892     
   9.6300000000000011E-002    -9.2754801424272948E-002
   9.6600000000000005E-002     4.1212072512127662E-002
   9.6900000000000000E-002    0.15568825699171907     
   9.7200000000000009E-002    0.24088787235293285     
   9.7499999999999989E-002    0.28833740302675526     
   9.7799999999999998E-002    0.29153182819226853     
   9.8100000000000007E-002    0.24636363776187142     
   9.8400000000000015E-002    0.15119329862600717     
   9.8699999999999996E-002     7.7049190064890638E-003
   9.9000000000000005E-002   -0.17903318396054058     
   9.9300000000000013E-002   -0.40050950187448997     
   9.9599999999999994E-002   -0.64544454660799011     
   9.9900000000000003E-002   -0.90038097602195766     
  0.10020000000000001         -1.1501477600657601     
  0.10049999999999999         -1.3790866254790828     
  0.10080000000000000         -1.5723518721242833     
  0.10110000000000001         -1.7175618760963189     
  0.10140000000000000         -1.8053901641996148     
  0.10170000000000000         -1.8301983484855242     
  0.10200000000000001         -1.7909777363249617     
  0.10230000000000002         -1.6915163550475256     
  0.10260000000000000         -1.5399076159081488     
  0.10290000000000001         -1.3472804828042939     
  0.10320000000000000         -1.1270897605465251     
  0.10350000000000001        -0.89378065944169194     
  0.10380000000000000        -0.66115133856606789     
  0.10410000000000001        -0.44096090812197630     
  0.10440000000000001        -0.24167528612511191     
  0.10470000000000000         -6.8091749264970858E-002
  0.10500000000000000          7.9278036486730485E-002
  0.10530000000000000         0.20386564795348017     
  0.10560000000000000         0.31213113656638281     
  0.10590000000000001         0.41311881544762308     
  0.10620000000000000         0.51661603185674920     
  0.10650000000000001         0.63190188625920740     
  0.10679999999999999         0.76650923263678195     
  0.10710000000000000         0.92495712588197065     
  0.10740000000000001          1.1081136908118090     
  0.10770000000000000          1.3129869033690156     
  0.10800000000000000          1.5324664767313934     
  0.10830000000000001          1.7561500453113723     
  0.10859999999999999          1.9712373906699909     
  0.10890000000000000          2.1636878849135783     
  0.10920000000000001          2.3190480381406147     
  0.10950000000000001          2.4240129762024196     
  0.10979999999999999          2.4678241424036145     
  0.11009999999999999          2.4425890340824594     
  0.11040000000000001          2.3441413747739261     
  0.11070000000000001          2.1720640112340845     
  0.11100000000000000          1.9301132697796461     
  0.11130000000000000          1.6262066072080898     
  0.11160000000000002          1.2710718533853296     
  0.11190000000000001         0.87804400321031295     
  0.11220000000000001         0.46272409662764691     
  0.11250000000000000          4.1885154124035928E-002
  0.11280000000000000        -0.36765946835283003     
  0.11309999999999999        -0.74957674578096700     
  0.11340000000000001         -1.0890785780656937     
  0.11369999999999998         -1.3734718086316118     
  0.11400000000000000         -1.5926449432395815     
  0.11430000000000000         -1.7404959501431172     
  0.11460000000000002         -1.8142401786130300     
  0.11489999999999999         -1.8147038368043198     
  0.11520000000000001         -1.7464571292712563     
  0.11550000000000001         -1.6169131183411878     
  0.11580000000000000         -1.4357388401028572     
  0.11609999999999999         -1.2137666610050175     
  0.11640000000000002        -0.96173857141306485     
  0.11670000000000001        -0.68980721784658527     
  0.11700000000000001        -0.40658065453991021     
  0.11730000000000000        -0.11809573537137830     
  0.11760000000000000         0.17202317867914374     
  0.11789999999999999         0.46209342160691946     
  0.11820000000000001         0.75176405462577378     
  0.11850000000000001          1.0413863489174382     
  0.11880000000000000          1.3308445681389980     
  0.11910000000000000          1.6182988074098610     
  0.11940000000000002          1.8989940923455784     
  0.11970000000000001          2.1649324604180649     
  0.12000000000000001          2.4053643923496750     
  0.12030000000000000          2.6065065942247330     
  0.12060000000000000          2.7524263248775895     
  0.12089999999999999          2.8265851897221665     
  0.12119999999999999          2.8139898972825392     
  0.12150000000000001          2.7022260446948110     
  0.12180000000000001          2.4831028296015774     
  0.12210000000000000          2.1535990022535501     
  0.12239999999999999          1.7173016955385236     
  0.12270000000000002          1.1841974969572000     
  0.12300000000000001         0.57023454590245137     
  0.12330000000000001        -0.10400527801065707     
  0.12360000000000000        -0.81395877098037772     
  0.12390000000000000         -1.5326042220423304     
  0.12419999999999999         -2.2326993033535985     
  0.12450000000000001         -2.8875463310449634     
  0.12480000000000001         -3.4733764598777341     
  0.12509999999999999         -3.9692803830498491     
  0.12540000000000001         -4.3587831830619734     
  0.12570000000000003         -4.6300165371534234     
  0.12600000000000000         -4.7757942906654591     
  0.12630000000000002         -4.7936597753759713     
  0.12659999999999999         -4.6864389152274839     
  0.12690000000000001         -4.4612609708337914     
  0.12719999999999998         -4.1296036468570918     
  0.12750000000000000         -3.7069961424701177     
  0.12780000000000002         -3.2128039481513042     
  0.12809999999999999         -2.6699440397097902     
  0.12840000000000001         -2.1031328363517687     
  0.12869999999999998         -1.5383711623000522     
  0.12900000000000000         -1.0017975528211842     
  0.12930000000000003        -0.51795108906942744     
  0.12959999999999999        -0.10752372444120029     
  0.12990000000000002         0.21450064192629803     
  0.13019999999999998         0.43946438351413342     
  0.13050000000000000         0.56683527924728028     
  0.13080000000000003         0.60529920072991672     
  0.13109999999999999         0.57202536610638433     
  0.13140000000000002         0.49190401585877019     
  0.13169999999999998         0.39474448803119166     
  0.13200000000000001         0.31316216854832390     
  0.13229999999999997         0.28070382856820331     
  0.13260000000000000         0.32624562475725405     
  0.13290000000000002         0.47102488358171968     
  0.13319999999999999         0.72641096079336620     
  0.13350000000000001          1.0924713622037077     
  0.13380000000000003          1.5565975135620578     
  0.13410000000000000          2.0934779568386510     
  0.13440000000000002          2.6674758136350185     
  0.13469999999999999          3.2366732286426760     
  0.13500000000000001          3.7560091343509683     
  0.13529999999999998          4.1814855923320167     
  0.13560000000000000          4.4748324465373486     
  0.13590000000000002          4.6077002305633670     
  0.13619999999999999          4.5647198712496930     
  0.13650000000000001          4.3436010213441705     
  0.13680000000000003          3.9564879358536018     
  0.13710000000000000          3.4284077388307281     
  0.13740000000000002          2.7939797816974874     
  0.13769999999999999          2.0937773173506287     
  0.13800000000000001          1.3698922856493994     
  0.13829999999999998         0.66265098823829049     
  0.13860000000000000          6.6524979801982909E-003
  0.13890000000000002        -0.57276429363041359     
  0.13919999999999999         -1.0602057157761635     
  0.13950000000000001         -1.4505951369489800     
  0.13979999999999998         -1.7478011914669360     
  0.14010000000000000         -1.9632782620983882     
  0.14040000000000002         -2.1135882016874916     
  0.14069999999999999         -2.2169442909987396     
  0.14100000000000001         -2.2905439590782208     
  0.14130000000000004         -2.3488664630017411     
  0.14160000000000000         -2.4019663417487607     
  0.14189999999999997         -2.4547324213622517     
  0.14219999999999999         -2.5074137659302664     
  0.14250000000000002         -2.5562636392706395     
  0.14279999999999998         -2.5950565849869065     
  0.14310000000000000         -2.6163124663115127     
  0.14339999999999997         -2.6126855913538662     
  0.14369999999999999         -2.5785480259096687     
  0.14400000000000002         -2.5108468843578891     
  0.14429999999999998         -2.4084590955129386     
  0.14460000000000001         -2.2724058585420437     
  0.14490000000000003         -2.1054760858810369     
  0.14520000000000000         -1.9121578194778834     
  0.14550000000000002         -1.6968961322760236     
  0.14579999999999999         -1.4637706139109525     
  0.14610000000000001         -1.2163111344855366     
  0.14640000000000003        -0.95822869603565053     
  0.14670000000000000        -0.69234390687797642     
  0.14699999999999996        -0.42061148543877636     
  0.14729999999999999        -0.14531303848684551     
  0.14760000000000001         0.13105399121150008     
  0.14789999999999998         0.40574137455278958     
  0.14820000000000000         0.67661551790321894     