  -1.4999999999999999E-002     0.0000000000000000     
  -1.4700000000000000E-002     0.0000000000000000     
  -1.4400000000000000E-002     0.0000000000000000     
  -1.4100000000000000E-002     0.0000000000000000     
  -1.3800000000000000E-002     0.0000000000000000     
  -1.3500000000000000E-002     0.0000000000000000     
  -1.3200000000000000E-002     0.0000000000000000     
  -1.2899999999999998E-002     0.0000000000000000     
  -1.2600000000000000E-002     0.0000000000000000     
  -1.2299999999999998E-002     0.0000000000000000     
  -1.2000000000000000E-002     0.0000000000000000     
  -1.1699999999999999E-002     0.0000000000000000     
  -1.1399999999999999E-002     0.0000000000000000     
  -1.1099999999999999E-002     0.0000000000000000     
  -1.0799999999999999E-002     0.0000000000000000     
  -1.0499999999999999E-002     0.0000000000000000     
  -1.0199999999999999E-002     0.0000000000000000     
  -9.8999999999999991E-003     0.0000000000000000     
  -9.5999999999999992E-003     0.0000000000000000     
  -9.2999999999999992E-003     0.0000000000000000     
  -8.9999999999999993E-003     0.0000000000000000     
  -8.6999999999999994E-003     0.0000000000000000     
  -8.3999999999999995E-003     0.0000000000000000     
  -8.0999999999999996E-003     0.0000000000000000     
  -7.7999999999999988E-003     0.0000000000000000     
  -7.4999999999999997E-003     0.0000000000000000     
  -7.1999999999999998E-003     0.0000000000000000     
  -6.8999999999999981E-003     0.0000000000000000     
  -6.5999999999999982E-003     0.0000000000000000     
  -6.3000000000000000E-003     0.0000000000000000     
  -6.0000000000000001E-003     0.0000000000000000     
  -5.6999999999999985E-003     0.0000000000000000     
  -5.3999999999999986E-003     0.0000000000000000     
  -5.1000000000000004E-003     0.0000000000000000     
  -4.7999999999999987E-003     0.0000000000000000     
  -4.5000000000000005E-003     0.0000000000000000     
  -4.1999999999999989E-003     0.0000000000000000     
  -3.8999999999999990E-003     0.0000000000000000     
  -3.5999999999999990E-003     0.0000000000000000     
  -3.2999999999999991E-003     0.0000000000000000     
  -2.9999999999999992E-003     0.0000000000000000     
  -2.6999999999999993E-003     0.0000000000000000     
  -2.3999999999999994E-003     0.0000000000000000     
  -2.0999999999999977E-003     0.0000000000000000     
  -1.7999999999999995E-003     0.0000000000000000     
  -1.4999999999999979E-003     0.0000000000000000     
  -1.1999999999999997E-003     0.0000000000000000     
  -8.9999999999999976E-004     0.0000000000000000     
  -5.9999999999999810E-004     0.0000000000000000     
  -2.9999999999999992E-004     0.0000000000000000     
   0.0000000000000000          0.0000000000000000     
   3.0000000000000165E-004     0.0000000000000000     
   5.9999999999999984E-004     0.0000000000000000     
   9.0000000000000149E-004     0.0000000000000000     
   1.2000000000000031E-003     0.0000000000000000     
   1.5000000000000013E-003     0.0000000000000000     
   1.8000000000000030E-003     0.0000000000000000     
   2.1000000000000012E-003     0.0000000000000000     
   2.3999999999999994E-003     0.0000000000000000     
   2.7000000000000010E-003     0.0000000000000000     
   2.9999999999999992E-003     0.0000000000000000     
   3.3000000000000008E-003     0.0000000000000000     
   3.6000000000000025E-003     0.0000000000000000     
   3.9000000000000007E-003     0.0000000000000000     
   4.2000000000000023E-003     0.0000000000000000     
   4.5000000000000005E-003     0.0000000000000000     
   4.7999999999999987E-003     0.0000000000000000     
   5.1000000000000004E-003     0.0000000000000000     
   5.4000000000000020E-003     0.0000000000000000     
   5.7000000000000037E-003     0.0000000000000000     
   5.9999999999999984E-003     0.0000000000000000     
   6.3000000000000000E-003     0.0000000000000000     
   6.6000000000000017E-003     0.0000000000000000     
   6.9000000000000034E-003     0.0000000000000000     
   7.2000000000000015E-003     0.0000000000000000     
   7.5000000000000032E-003     0.0000000000000000     
   7.8000000000000014E-003     0.0000000000000000     
   8.0999999999999996E-003     0.0000000000000000     
   8.4000000000000012E-003     0.0000000000000000     
   8.7000000000000029E-003     0.0000000000000000     
   9.0000000000000011E-003     0.0000000000000000     
   9.2999999999999992E-003     0.0000000000000000     
   9.6000000000000009E-003     0.0000000000000000     
   9.8999999999999991E-003     0.0000000000000000     
   1.0200000000000001E-002     0.0000000000000000     
   1.0500000000000002E-002     0.0000000000000000     
   1.0800000000000004E-002     0.0000000000000000     
   1.1099999999999999E-002     0.0000000000000000     
   1.1400000000000000E-002     0.0000000000000000     
   1.1700000000000002E-002     0.0000000000000000     
   1.2000000000000004E-002     0.0000000000000000     
   1.2300000000000002E-002     0.0000000000000000     
   1.2600000000000000E-002     0.0000000000000000     
   1.2900000000000002E-002     0.0000000000000000     
   1.3200000000000000E-002     0.0000000000000000     
   1.3500000000000002E-002     0.0000000000000000     
   1.3800000000000003E-002     0.0000000000000000     
   1.4100000000000001E-002     0.0000000000000000     
   1.4400000000000000E-002     0.0000000000000000     
   1.4700000000000001E-002     0.0000000000000000     
   1.4999999999999999E-002     0.0000000000000000     
   1.5300000000000001E-002     0.0000000000000000     
   1.5600000000000003E-002     0.0000000000000000     
   1.5899999999999997E-002     0.0000000000000000     
   1.6199999999999999E-002     0.0000000000000000     
   1.6500000000000001E-002     0.0000000000000000     
   1.6800000000000002E-002     0.0000000000000000     
   1.7100000000000004E-002     0.0000000000000000     
   1.7400000000000006E-002     0.0000000000000000     
   1.7700000000000000E-002     0.0000000000000000     
   1.8000000000000002E-002     0.0000000000000000     
   1.8300000000000004E-002     0.0000000000000000     
   1.8600000000000005E-002     0.0000000000000000     
   1.8900000000000000E-002     0.0000000000000000     
   1.9200000000000002E-002     0.0000000000000000     
   1.9500000000000003E-002     0.0000000000000000     
   1.9799999999999998E-002     0.0000000000000000     
   2.0100000000000000E-002     0.0000000000000000     
   2.0400000000000001E-002     0.0000000000000000     
   2.0700000000000003E-002     0.0000000000000000     
   2.0999999999999998E-002     0.0000000000000000     
   2.1299999999999999E-002     0.0000000000000000     
   2.1600000000000001E-002     0.0000000000000000     
   2.1900000000000003E-002     0.0000000000000000     
   2.2200000000000004E-002     0.0000000000000000     
   2.2500000000000006E-002     0.0000000000000000     
   2.2800000000000001E-002     0.0000000000000000     
   2.3100000000000002E-002     0.0000000000000000     
   2.3400000000000004E-002     0.0000000000000000     
   2.3699999999999999E-002     0.0000000000000000     
   2.4000000000000000E-002     0.0000000000000000     
   2.4300000000000002E-002     0.0000000000000000     
   2.4599999999999997E-002     0.0000000000000000     
   2.4900000000000005E-002     0.0000000000000000     
   2.5200000000000000E-002     0.0000000000000000     
   2.5499999999999995E-002     0.0000000000000000     
   2.5800000000000003E-002     0.0000000000000000     
   2.6099999999999998E-002     0.0000000000000000     
   2.6400000000000007E-002     0.0000000000000000     
   2.6700000000000002E-002     0.0000000000000000     
   2.6999999999999996E-002     0.0000000000000000     
   2.7300000000000005E-002     0.0000000000000000     
   2.7600000000000000E-002     0.0000000000000000     
   2.7900000000000008E-002     0.0000000000000000     
   2.8200000000000003E-002     0.0000000000000000     
   2.8499999999999998E-002     0.0000000000000000     
   2.8800000000000006E-002     0.0000000000000000     
   2.9100000000000001E-002     0.0000000000000000     
   2.9400000000000003E-002     0.0000000000000000     
   2.9700000000000004E-002     0.0000000000000000     
   3.0000000000000006E-002     0.0000000000000000     
   3.0300000000000001E-002     0.0000000000000000     
   3.0600000000000002E-002     0.0000000000000000     
   3.0900000000000004E-002     0.0000000000000000     
   3.1199999999999999E-002     0.0000000000000000     
   3.1500000000000007E-002     0.0000000000000000     
   3.1800000000000002E-002     0.0000000000000000     
   3.2099999999999997E-002     0.0000000000000000     
   3.2400000000000005E-002     0.0000000000000000     
   3.2700000000000000E-002     0.0000000000000000     
   3.3000000000000002E-002     0.0000000000000000     
   3.3300000000000003E-002     0.0000000000000000     
   3.3599999999999998E-002     0.0000000000000000     
   3.3900000000000000E-002     0.0000000000000000     
   3.4200000000000001E-002     0.0000000000000000     
   3.4500000000000003E-002     0.0000000000000000     
   3.4799999999999998E-002     0.0000000000000000     
   3.5099999999999999E-002     0.0000000000000000     
   3.5400000000000001E-002     0.0000000000000000     
   3.5699999999999996E-002     0.0000000000000000     
   3.6000000000000004E-002     1.0979610673105811E-037
   3.6299999999999999E-002     8.3676371501834482E-036
   3.6600000000000008E-002    -8.1570750026768530E-035
   3.6900000000000002E-002     5.1651272284654200E-034
   3.7199999999999997E-002    -1.2894135287413909E-034
   3.7500000000000006E-002    -5.6425591263331884E-033
   3.7800000000000000E-002     1.8251636298988723E-032
   3.8100000000000009E-002    -3.4894135442400940E-032
   3.8400000000000004E-002     9.5106661837459473E-033
   3.8699999999999998E-002     3.4132345161154224E-031
   3.9000000000000007E-002    -2.3201623497095152E-030
   3.9300000000000002E-002     1.0948792867852681E-029
   3.9600000000000003E-002    -4.3191199840850886E-029
   3.9900000000000005E-002     1.5018088742715702E-028
   4.0200000000000000E-002    -4.7146962446418833E-028
   4.0500000000000001E-002     1.3622075533631698E-027
   4.0800000000000003E-002    -3.7283141791439527E-027
   4.1100000000000005E-002     1.0177167723594160E-026
   4.1399999999999999E-002    -2.9701589913238888E-026
   4.1700000000000008E-002     9.6454503593487233E-026
   4.2000000000000003E-002    -3.3715202649141017E-025
   4.2299999999999997E-002     1.1811394438896879E-024
   4.2600000000000006E-002    -3.9233109652648649E-024
   4.2900000000000001E-002     1.2033046012247937E-023
   4.3200000000000002E-002    -3.4005581658099579E-023
   4.3500000000000004E-002     9.0714794738626098E-023
   4.3799999999999999E-002    -2.4224035230584329E-022
   4.4100000000000000E-002     6.9857977572097829E-022
   4.4400000000000002E-002    -2.2190335661053222E-021
   4.4700000000000004E-002     7.1914920896646837E-021
   4.4999999999999998E-002    -2.1112583138588415E-020
   4.5300000000000000E-002     4.8229360150969551E-020
   4.5600000000000002E-002    -5.0132159903177080E-020
   4.5899999999999996E-002    -2.3234319504362831E-019
   4.6200000000000005E-002     1.7894501588936217E-018
   4.6500000000000000E-002    -7.1852555872857343E-018
   4.6799999999999994E-002     1.9877662971629038E-017
   4.7100000000000003E-002    -3.3270223323397438E-017
   4.7399999999999998E-002    -1.3862268245161737E-017
   4.7700000000000006E-002     3.4239591651036901E-016
   4.8000000000000001E-002    -1.4113193086933004E-015
   4.8300000000000010E-002     3.3696685883494257E-015
   4.8600000000000004E-002    -3.1393361895519847E-015
   4.8899999999999999E-002    -1.2861380458361292E-014
   4.9200000000000008E-002     7.3746815132478410E-014
   4.9500000000000002E-002    -1.8570396414195611E-013
   4.9800000000000011E-002     1.5198286422782314E-013
   5.0100000000000006E-002     7.6791790157640372E-013
   5.0400000000000000E-002    -3.6528332442165024E-012
   5.0700000000000009E-002     6.6867570508444274E-012
   5.1000000000000004E-002     3.5043194474698725E-012
   5.1299999999999998E-002    -5.4270598431882533E-011
   5.1600000000000007E-002     1.3110340590927194E-010
   5.1900000000000002E-002    -7.6702949547424737E-012
   5.2200000000000010E-002    -7.9818190945601941E-010
   5.2500000000000005E-002     1.9403707529619396E-009
   5.2800000000000000E-002     5.2842857867219095E-010
   5.3099999999999994E-002    -1.2564004947535068E-008
   5.3400000000000003E-002     2.0246124776690522E-008
   5.3699999999999998E-002     3.8195242524352579E-008
   5.4000000000000006E-002    -1.7017428888266295E-007
   5.4300000000000001E-002    -5.6927333957901283E-009
   5.4599999999999996E-002     9.0085762849412276E-007
   5.4900000000000004E-002    -7.4625125989769003E-007
   5.5199999999999999E-002    -4.4904895730724093E-006
   5.5499999999999994E-002     7.4211211540387012E-006
   5.5800000000000002E-002     4.8829777369974181E-005
   5.6099999999999997E-002     9.1771384177263826E-005
   5.6400000000000006E-002     1.0200725955655798E-004
   5.6700000000000000E-002     1.0927487892331555E-004
   5.6999999999999995E-002     1.6997983038891107E-004
   5.7300000000000004E-002     2.8469372773543000E-004
   5.7599999999999998E-002     4.3138570617884398E-004
   5.7900000000000007E-002     6.3412025338038802E-004
   5.8200000000000002E-002     9.3879277119413018E-004
   5.8499999999999996E-002     1.3721485156565905E-003
   5.8800000000000005E-002     1.9572814926505089E-003
   5.9100000000000000E-002     2.7417954988777637E-003
   5.9400000000000008E-002     3.7907820660620928E-003
   5.9700000000000003E-002     5.1514101214706898E-003
   6.0000000000000012E-002     6.8514798767864704E-003
   6.0300000000000006E-002     8.9193768799304962E-003
   6.0600000000000001E-002     1.1354138143360615E-002
   6.0900000000000010E-002     1.4101651497185230E-002
   6.1200000000000004E-002     1.7053002491593361E-002
   6.1500000000000013E-002     1.9989863038063049E-002
   6.1800000000000008E-002     2.2557245567440987E-002
   6.2100000000000002E-002     2.4287071079015732E-002
   6.2399999999999997E-002     2.4545684456825256E-002
   6.2700000000000006E-002     2.2500965744256973E-002
   6.3000000000000000E-002     1.7182029783725739E-002
   6.3300000000000009E-002     7.5083952397108078E-003
   6.3600000000000004E-002    -7.6589691452682018E-003
   6.3899999999999998E-002    -2.9382847249507904E-002
   6.4199999999999993E-002    -5.8513998985290527E-002
   6.4500000000000002E-002    -9.5539711415767670E-002
   6.4800000000000010E-002   -0.14037536084651947     
   6.5100000000000005E-002   -0.19214734435081482     
   6.5400000000000000E-002   -0.24900135397911072     
   6.5700000000000008E-002   -0.30797889828681946     
   6.5999999999999989E-002   -0.36498090624809265     
   6.6299999999999998E-002   -0.41481932997703552     
   6.6600000000000006E-002   -0.45139503479003906     
   6.6900000000000001E-002   -0.46806547045707703     
   6.7199999999999996E-002   -0.45813569426536560     
   6.7500000000000004E-002   -0.41545051336288452     
   6.7800000000000013E-002   -0.33520397543907166     
   6.8099999999999994E-002   -0.21456249058246613     
   6.8400000000000002E-002    -5.3383152931928635E-002
   6.8700000000000011E-002    0.14526434242725372     
   6.8999999999999992E-002    0.37475928664207458     
   6.9300000000000000E-002    0.62499862909317017     
   6.9600000000000009E-002    0.88272160291671753     
   6.9900000000000004E-002     1.1322107315063477     
   7.0199999999999999E-002     1.3564026355743408     
   7.0500000000000007E-002     1.5381283760070801     
   7.0800000000000016E-002     1.6615699529647827     
   7.1099999999999997E-002     1.7137253284454346     
   7.1400000000000005E-002     1.6856848001480103     
   7.1700000000000000E-002     1.5736515522003174     
   7.1999999999999995E-002     1.3796000480651855     
   7.2300000000000003E-002     1.1112638711929321     
   7.2600000000000012E-002    0.78173023462295532     
   7.2900000000000006E-002    0.40861111879348755     
   7.3200000000000001E-002     1.2543069198727608E-002
   7.3499999999999996E-002   -0.38431474566459656     
   7.3800000000000004E-002   -0.76012790203094482     
   7.4099999999999999E-002    -1.0949947834014893     
   7.4400000000000008E-002    -1.3726027011871338     
   7.4700000000000003E-002    -1.5811113119125366     
   7.5000000000000011E-002    -1.7142401933670044     
   7.5299999999999992E-002    -1.7710493803024292     
   7.5600000000000001E-002    -1.7559075355529785     
   7.5900000000000009E-002    -1.6778597831726074     
   7.6200000000000004E-002    -1.5491734743118286     
   7.6499999999999999E-002    -1.3844823837280273     
   7.6800000000000007E-002    -1.1993029117584229     
   7.7099999999999988E-002    -1.0083997249603271     
   7.7399999999999997E-002   -0.82507878541946411     
   7.7700000000000005E-002   -0.66004240512847900     
   7.8000000000000014E-002   -0.52063030004501343     
   7.8299999999999995E-002   -0.41086748242378235     
   7.8600000000000003E-002   -0.33123037219047546     
   7.8900000000000012E-002   -0.27907863259315491     
   7.9199999999999993E-002   -0.24925813078880310     
   7.9500000000000001E-002   -0.23470661044120789     
   7.9800000000000010E-002   -0.22749076783657074     
   8.0100000000000018E-002   -0.21940228343009949     
   8.0399999999999999E-002   -0.20286723971366882     
   8.0700000000000008E-002   -0.17165853083133698     
   8.1000000000000003E-002   -0.12123607844114304     
   8.1299999999999997E-002    -4.9235962331295013E-002
   8.1600000000000006E-002     4.4446494430303574E-002
   8.1900000000000014E-002    0.15781332552433014     
   8.2199999999999995E-002    0.28680929541587830     
   8.2500000000000004E-002    0.42585197091102600     
   8.2799999999999999E-002    0.56834387779235840     
   8.3100000000000007E-002    0.70693796873092651     
   8.3400000000000002E-002    0.83432322740554810     
   8.3700000000000011E-002    0.94389462471008301     
   8.4000000000000005E-002     1.0296947956085205     
   8.4300000000000000E-002     1.0873650312423706     
   8.4599999999999995E-002     1.1142407655715942     
   8.4900000000000003E-002     1.1091167926788330     
   8.5199999999999998E-002     1.0729424953460693     
   8.5500000000000007E-002     1.0083012580871582     
   8.5800000000000001E-002    0.91902989149093628     
   8.6100000000000010E-002    0.81052732467651367     
   8.6399999999999991E-002    0.68882924318313599     
   8.6699999999999999E-002    0.56016957759857178     
   8.7000000000000008E-002    0.43116688728332520     
   8.7300000000000003E-002    0.30762705206871033     
   8.7599999999999997E-002    0.19445121288299561     
   8.7900000000000006E-002     9.5946893095970154E-002
   8.8200000000000014E-002     1.4616244472563267E-002
   8.8499999999999995E-002    -4.8490811139345169E-002
   8.8800000000000004E-002    -9.3327574431896210E-002
   8.9100000000000013E-002   -0.12153713405132294     
   8.9399999999999993E-002   -0.13570801913738251     
   8.9700000000000002E-002   -0.13902667164802551     
   9.0000000000000011E-002   -0.13556292653083801     
   9.0299999999999991E-002   -0.12912026047706604     
   9.0600000000000000E-002   -0.12320289015769958     
   9.0900000000000009E-002   -0.12113529443740845     
   9.1200000000000017E-002   -0.12488905340433121     
   9.1499999999999998E-002   -0.13547773659229279     
   9.1800000000000007E-002   -0.15320892632007599     
   9.2100000000000001E-002   -0.17671018838882446     
   9.2399999999999996E-002   -0.20382976531982422     
   9.2700000000000005E-002   -0.23212018609046936     
   9.3000000000000013E-002   -0.25817948579788208     
   9.3300000000000008E-002   -0.27889549732208252     
   9.3600000000000003E-002   -0.29168325662612915     
   9.3899999999999997E-002   -0.29435381293296814     
   9.4200000000000006E-002   -0.28611049056053162     
   9.4500000000000001E-002   -0.26722428202629089     
   9.4800000000000009E-002   -0.23900477588176727     
   9.5100000000000004E-002   -0.20420280098915100     
   9.5399999999999999E-002   -0.16610990464687347     
   9.5699999999999993E-002   -0.12852662801742554     
   9.6000000000000002E-002    -9.5523774623870850E-002
   9.6300000000000011E-002    -7.0385418832302094E-002
   9.6600000000000005E-002    -5.5656690150499344E-002
   9.6900000000000000E-002    -5.2882798016071320E-002
   9.7200000000000009E-002    -6.2033105641603470E-002
   9.7499999999999989E-002    -8.1763021647930145E-002
   9.7799999999999998E-002   -0.10958588123321533     
   9.8100000000000007E-002   -0.14198659360408783     
   9.8400000000000015E-002   -0.17493355274200439     
   9.8699999999999996E-002   -0.20444789528846741     
   9.9000000000000005E-002   -0.22690962255001068     
   9.9300000000000013E-002   -0.23951372504234314     
   9.9599999999999994E-002   -0.24086606502532959     
   9.9900000000000003E-002   -0.23090751469135284     
  0.10020000000000001        -0.21083608269691467     
  0.10049999999999999        -0.18339034914970398     
  0.10080000000000000        -0.15217110514640808     
  0.10110000000000001        -0.12129250913858414     
  0.10140000000000000         -9.5117889344692230E-002
  0.10170000000000000         -7.7208191156387329E-002
  0.10200000000000001         -7.0257365703582764E-002
  0.10230000000000002         -7.5695946812629700E-002
  0.10260000000000000         -9.2844992876052856E-002
  0.10290000000000001        -0.11952605098485947     
  0.10320000000000000        -0.15182997286319733     
  0.10350000000000001        -0.18412150442600250     
  0.10380000000000000        -0.21023598313331604     
  0.10410000000000001        -0.22350190579891205     
  0.10440000000000001        -0.21745796501636505     
  0.10470000000000000        -0.18725217878818512     
  0.10500000000000000        -0.12925912439823151     
  0.10530000000000000         -4.2230963706970215E-002
  0.10560000000000000          7.2107359766960144E-002
  0.10590000000000001         0.21008263528347015     
  0.10620000000000000         0.36531531810760498     
  0.10650000000000001         0.52927190065383911     
  0.10679999999999999         0.69259929656982422     
  0.10710000000000000         0.84500163793563843     
  0.10740000000000001         0.97664672136306763     
  0.10770000000000000          1.0789344310760498     
  0.10800000000000000          1.1446328163146973     
  0.10830000000000001          1.1691312789916992     
  0.10859999999999999          1.1501840353012085     
  0.10890000000000000          1.0877640247344971     
  0.10920000000000001         0.98462808132171631     
  0.10950000000000001         0.84523534774780273     
  0.10979999999999999         0.67523437738418579     
  0.11009999999999999         0.48146468400955200     
  0.11040000000000001         0.27094322443008423     
  0.11070000000000001          5.0473023205995560E-002
  0.11100000000000000        -0.17338013648986816     
  0.11130000000000000        -0.39470875263214111     
  0.11160000000000002        -0.60806512832641602     
  0.11190000000000001        -0.80833160877227783     
  0.11220000000000001        -0.99077212810516357     
  0.11250000000000000         -1.1504148244857788     
  0.11280000000000000         -1.2820640802383423     
  0.11309999999999999         -1.3803716897964478     
  0.11340000000000001         -1.4398807287216187     
  0.11369999999999998         -1.4553683996200562     
  0.11400000000000000         -1.4222257137298584     
  0.11430000000000000         -1.3372771739959717     
  0.11460000000000002         -1.1993285417556763     
  0.11489999999999999         -1.0096731185913086     
  0.11520000000000001        -0.77278369665145874     
  0.11550000000000001        -0.49622157216072083     
  0.11580000000000000        -0.19086241722106934     
  0.11609999999999999         0.12961973249912262     
  0.11640000000000002         0.44981628656387329     
  0.11670000000000001         0.75327008962631226     
  0.11700000000000001          1.0238248109817505     
  0.11730000000000000          1.2470645904541016     
  0.11760000000000000          1.4113107919692993     
  0.11789999999999999          1.5087629556655884     
  0.11820000000000001          1.5361230373382568     
  0.11850000000000001          1.4946140050888062     
  0.11880000000000000          1.3901214599609375     
  0.11910000000000000          1.2322883605957031     
  0.11940000000000002          1.0334495306015015     
  0.11970000000000001         0.80767709016799927     
  0.12000000000000001         0.56919956207275391     
  0.12030000000000000         0.33128604292869568     
  0.12060000000000000         0.10532014071941376     
  0.12089999999999999        -0.10034120082855225     
  0.12119999999999999        -0.28026828169822693     
  0.12150000000000001        -0.43216374516487122     
  0.12180000000000001        -0.55655854940414429     
  0.12210000000000000        -0.65600270032882690     
  0.12239999999999999        -0.73448103666305542     
  0.12270000000000002        -0.79645311832427979     
  0.12300000000000001        -0.84597146511077881     
  0.12330000000000001        -0.88640660047531128     
  0.12360000000000000        -0.91970121860504150     
  0.12390000000000000        -0.94634586572647095     
  0.12419999999999999        -0.96560287475585938     
  0.12450000000000001        -0.97557210922241211     
  0.12480000000000001        -0.97378736734390259     
  0.12509999999999999        -0.95760458707809448     
  0.12540000000000001        -0.92451286315917969     
  0.12570000000000003        -0.87271940708160400     
  0.12600000000000000        -0.80144691467285156     
  0.12630000000000002        -0.71090996265411377     
  0.12659999999999999        -0.60226535797119141     
  0.12690000000000001        -0.47771847248077393     
  0.12719999999999998        -0.34050571918487549     
  0.12750000000000000        -0.19431309401988983     
  0.12780000000000002         -4.3274376541376114E-002
  0.12809999999999999         0.10789575427770615     
  0.12840000000000001         0.25448167324066162     
  0.12869999999999998         0.39147725701332092     
  0.12900000000000000         0.51380211114883423     
  0.12930000000000003         0.61657696962356567     
  0.12959999999999999         0.69487762451171875     
  0.12990000000000002         0.74429595470428467     
  0.13019999999999998         0.76147729158401489     
  0.13050000000000000         0.74370276927947998     
  0.13080000000000003         0.69005179405212402     
  0.13109999999999999         0.60176062583923340     
  0.13140000000000002         0.48174580931663513     
  0.13169999999999998         0.33585378527641296     
  0.13200000000000001         0.17228379845619202     
  0.13229999999999997          7.6826382428407669E-004
  0.13260000000000000        -0.16672348976135254     
  0.13290000000000002        -0.31764534115791321     
  0.13319999999999999        -0.44002532958984375     
  0.13350000000000001        -0.52230781316757202     
  0.13380000000000003        -0.55562764406204224     
  0.13410000000000000        -0.53436857461929321     
  0.13440000000000002        -0.45614817738533020     
  0.13469999999999999        -0.32352522015571594     
  0.13500000000000001        -0.14309333264827728     
  0.13529999999999998          7.5046360492706299E-002
  0.13560000000000000         0.31679224967956543     
  0.13590000000000002         0.56620281934738159     
  0.13619999999999999         0.80670064687728882     
  0.13650000000000001          1.0213611125946045     
  0.13680000000000003          1.1954673528671265     
  0.13710000000000000          1.3171956539154053     
  0.13740000000000002          1.3780990839004517     
  0.13769999999999999          1.3746626377105713     
  0.13800000000000001          1.3077968358993530     
  0.13829999999999998          1.1825946569442749     
  0.13860000000000000          1.0085730552673340     
  0.13890000000000002         0.79802870750427246     
  0.13919999999999999         0.56509447097778320     
  0.13950000000000001         0.32517036795616150     
  0.13979999999999998          9.3159362673759460E-002
  0.14010000000000000        -0.11757577955722809     
  0.14040000000000002        -0.29554766416549683     
  0.14069999999999999        -0.43232092261314392     
  0.14100000000000001        -0.52270346879959106     
  0.14130000000000004        -0.56443852186203003     
  0.14160000000000000        -0.55876165628433228     
  0.14189999999999997        -0.50962966680526733     
  0.14219999999999999        -0.42273625731468201     
  0.14250000000000002        -0.30601045489311218     
  0.14279999999999998        -0.16840365529060364     
  0.14310000000000000         -1.8875816836953163E-002
  0.14339999999999997         0.13270200788974762     
  0.14369999999999999         0.27714720368385315     
  0.14400000000000002         0.40628898143768311     
  0.14429999999999998         0.51190447807312012     
  0.14460000000000001         0.58725917339324951     
  0.14490000000000003         0.62701278924942017     
  0.14520000000000000         0.62649714946746826     
  0.14550000000000002         0.58309412002563477     
  0.14579999999999999         0.49576070904731750     
  0.14610000000000001         0.36508721113204956     
  0.14640000000000003         0.19417198002338409     
  0.14670000000000000         -1.1954606510698795E-002
  0.14699999999999996        -0.24610237777233124     
  0.14729999999999999        -0.49866411089897156     
  0.14760000000000001        -0.75861728191375732     
  0.14789999999999998         -1.0133720636367798     
  0.14820000000000000         -1.2495255470275879     