  -1.4999999999999999E-002     0.0000000000000000     
  -1.4700000000000000E-002     0.0000000000000000     
  -1.4400000000000000E-002     0.0000000000000000     
  -1.4100000000000000E-002     0.0000000000000000     
  -1.3800000000000000E-002     2.3799634060433578E-036
  -1.3500000000000000E-002    -1.9231349937800042E-033
  -1.3200000000000000E-002    -1.3307001769480960E-031
  -1.2899999999999998E-002     6.3583385036112695E-030
  -1.2600000000000000E-002     1.3012229213466143E-029
  -1.2299999999999998E-002    -1.3798634285806444E-027
  -1.2000000000000000E-002     7.2087649903254329E-027
  -1.1699999999999999E-002     2.6894571525357674E-026
  -1.1399999999999999E-002    -2.1939998744036680E-025
  -1.1099999999999999E-002    -2.2164631149513309E-025
  -1.0799999999999999E-002     2.9615009993010535E-024
  -1.0499999999999999E-002     1.5549123884126437E-024
  -1.0199999999999999E-002    -2.2885120841897461E-023
  -9.8999999999999991E-003    -2.5808086166583139E-023
  -9.5999999999999992E-003     1.1562674297285507E-022
  -9.2999999999999992E-003     3.5604406866810995E-022
  -8.9999999999999993E-003    -3.6021677264310186E-022
  -8.6999999999999994E-003    -3.4300742859156004E-021
  -8.3999999999999995E-003     2.6713549567178075E-021
  -8.0999999999999996E-003     1.2008026804713981E-020
  -7.7999999999999988E-003     1.1859955695673693E-021
  -7.4999999999999997E-003    -1.4312405077282121E-020
  -7.1999999999999998E-003    -1.4047076419094947E-019
  -6.8999999999999981E-003     6.8520345909436333E-020
  -6.5999999999999982E-003     7.7131945068738538E-019
  -6.3000000000000000E-003    -7.8749715360257023E-019
  -6.0000000000000001E-003    -2.3971375878047022E-019
  -5.6999999999999985E-003    -5.0873616020131294E-019
  -5.3999999999999986E-003    -7.1702902447446796E-018
  -5.1000000000000004E-003     2.7245804516286334E-017
  -4.7999999999999987E-003    -9.7298645408271531E-018
  -4.5000000000000005E-003    -6.0911037943342046E-017
  -4.1999999999999989E-003     1.3298880838098865E-016
  -3.8999999999999990E-003    -2.6575205693807708E-016
  -3.5999999999999990E-003     1.9046670607874630E-016
  -3.2999999999999991E-003     9.3543654841710632E-016
  -2.9999999999999992E-003    -2.7243463111905063E-015
  -2.6999999999999993E-003     3.5199639636944381E-015
  -2.3999999999999994E-003    -2.0963590975305823E-015
  -2.0999999999999977E-003    -6.4570583497816555E-015
  -1.7999999999999995E-003     2.6054743596461528E-014
  -1.4999999999999979E-003    -4.2594102815493763E-014
  -1.1999999999999997E-003     3.6486138086149069E-014
  -8.9999999999999976E-004     1.2773099178258592E-014
  -5.9999999999999810E-004    -1.6307652226996164E-013
  -2.9999999999999992E-004     4.2067455042365164E-013
   0.0000000000000000         -5.8148284592699588E-013
   3.0000000000000165E-004     2.1304574498738622E-013
   5.9999999999999984E-004     1.3689215694370596E-012
   9.0000000000000149E-004    -4.2784835558351023E-012
   1.2000000000000031E-003     5.6573892004639077E-012
   1.5000000000000013E-003     4.9496646079282547E-013
   1.8000000000000030E-003    -1.6924661752855023E-011
   2.1000000000000012E-003     3.2446280996502778E-011
   2.3999999999999994E-003    -1.7875431737854102E-011
   2.7000000000000010E-003    -4.8125047612722313E-011
   2.9999999999999992E-003     1.2305176547338637E-010
   3.3000000000000008E-003    -9.3387299557664953E-011
   3.6000000000000025E-003    -1.0773619495907626E-010
   3.9000000000000007E-003     3.4288519897818995E-010
   4.2000000000000023E-003    -2.9332581213901297E-010
   4.5000000000000005E-003    -2.0083399889565665E-010
   4.7999999999999987E-003     7.5574940349200315E-010
   5.1000000000000004E-003    -6.5267196643852369E-010
   5.4000000000000020E-003    -3.0613214891164654E-010
   5.7000000000000037E-003     1.3033974624257486E-009
   5.9999999999999984E-003    -1.1645793434671541E-009
   6.3000000000000000E-003    -3.2409393649657375E-010
   6.6000000000000017E-003     1.8314522700785299E-009
   6.9000000000000034E-003    -1.7154468178617305E-009
   7.2000000000000015E-003    -8.7814094888329038E-011
   7.5000000000000032E-003     1.9932515528595998E-009
   7.8000000000000014E-003    -2.3365155742555130E-009
   8.0999999999999996E-003     6.8323208320515291E-010
   8.4000000000000012E-003     1.7527541348667268E-009
   8.7000000000000029E-003    -3.0667407102322096E-009
   9.0000000000000011E-003     2.1387783428464112E-009
   9.2999999999999992E-003     1.0014984936570205E-009
   9.6000000000000009E-003    -4.4251718790438706E-009
   9.8999999999999991E-003     4.4206043097951435E-009
   1.0200000000000001E-002     2.9495817076649109E-010
   1.0500000000000002E-002    -6.0760578271966227E-009
   1.0800000000000004E-002     7.5170373391184836E-009
   1.1099999999999999E-002    -1.3858560802539932E-009
   1.1400000000000000E-002    -8.5298114983350033E-009
   1.1700000000000002E-002     1.1325790238547332E-008
   1.2000000000000004E-002    -3.3344457601311205E-009
   1.2300000000000002E-002    -5.7407493775033553E-009
   1.2600000000000000E-002     1.3942630004942082E-008
   1.2900000000000002E-002    -2.3983376798866681E-008
   1.3200000000000000E-002    -1.0797653494101979E-009
   1.3500000000000002E-002     5.9033456008557028E-008
   1.3800000000000003E-002    -1.5675058455150254E-008
   1.4100000000000001E-002    -6.5127930782262995E-008
   1.4400000000000000E-002    -7.9653927414310608E-008
   1.4700000000000001E-002     2.4551168697908608E-008
   1.4999999999999999E-002     1.0132673716416982E-006
   1.5300000000000001E-002     2.7418911103515018E-006
   1.5600000000000003E-002     3.8986079395733121E-006
   1.5899999999999997E-002     5.3468794586342602E-006
   1.6199999999999999E-002     1.1393398652468598E-005
   1.6500000000000001E-002     2.5686646166845451E-005
   1.6800000000000002E-002     4.4955164557900515E-005
   1.7100000000000004E-002     5.8925879099184326E-005
   1.7400000000000006E-002     6.3934796640504514E-005
   1.7700000000000000E-002     7.4914107686149638E-005
   1.8000000000000002E-002     1.1102190084404280E-004
   1.8300000000000004E-002     1.6999731993445509E-004
   1.8600000000000005E-002     2.3037902081621741E-004
   1.8900000000000000E-002     2.8353676161353876E-004
   1.9200000000000002E-002     3.4634200232942867E-004
   1.9500000000000003E-002     4.2593210360492711E-004
   1.9799999999999998E-002     4.9064867568551600E-004
   2.0100000000000000E-002     4.8261926420378048E-004
   2.0400000000000001E-002     3.3402684184895802E-004
   2.0700000000000003E-002    -3.3969542001512261E-005
   2.0999999999999998E-002    -7.4031519518047949E-004
   2.1299999999999999E-002    -1.9799715828679601E-003
   2.1600000000000001E-002    -4.0196598257681623E-003
   2.1900000000000003E-002    -7.2111477665434132E-003
   2.2200000000000004E-002    -1.2038270436649137E-002
   2.2500000000000006E-002    -1.9098848161379800E-002
   2.2800000000000001E-002    -2.9079677103353463E-002
   2.3100000000000002E-002    -4.2807966032548550E-002
   2.3400000000000004E-002    -6.1265744693377977E-002
   2.3699999999999999E-002    -8.5520096916388288E-002
   2.4000000000000000E-002   -0.11666445589096086     
   2.4300000000000002E-002   -0.15577422791699025     
   2.4599999999999997E-002   -0.20381565988343242     
   2.4900000000000005E-002   -0.26149898244348524     
   2.5200000000000000E-002   -0.32919110734765411     
   2.5499999999999995E-002   -0.40677496836742666     
   2.5800000000000003E-002   -0.49351254510054510     
   2.6099999999999998E-002   -0.58793913884142412     
   2.6400000000000007E-002   -0.68778078468850090     
   2.6700000000000002E-002   -0.78994981844276779     
   2.6999999999999996E-002   -0.89058258029116644     
   2.7300000000000005E-002   -0.98513445935904542     
   2.7600000000000000E-002    -1.0685675009658766     
   2.7900000000000008E-002    -1.1355902168848431     
   2.8200000000000003E-002    -1.1810083541047369     
   2.8499999999999998E-002    -1.2000290944377596     
   2.8800000000000006E-002    -1.1886489780370724     
   2.9100000000000001E-002    -1.1438852475485390     
   2.9400000000000003E-002    -1.0640162070902690     
   2.9700000000000004E-002   -0.94869558188410608     
   3.0000000000000006E-002   -0.79906550123072861     
   3.0300000000000001E-002   -0.61750615939284614     
   3.0600000000000002E-002   -0.40782351289990082     
   3.0900000000000004E-002   -0.17454432597456782     
   3.1199999999999999E-002     7.6908492905728210E-002
   3.1500000000000007E-002    0.34100899530772999     
   3.1800000000000002E-002    0.61167496144213729     
   3.2099999999999997E-002    0.88310712472864683     
   3.2400000000000005E-002     1.1493484089533617     
   3.2700000000000000E-002     1.4048752873330486     
   3.3000000000000002E-002     1.6437980396386642     
   3.3300000000000003E-002     1.8608464544032728     
   3.3599999999999998E-002     2.0503714020623889     
   3.3900000000000000E-002     2.2074326181887756     
   3.4200000000000001E-002     2.3270450131922900     
   3.4500000000000003E-002     2.4054381074373765     
   3.4799999999999998E-002     2.4397715388768120     
   3.5099999999999999E-002     2.4290893974257699     
   3.5400000000000001E-002     2.3744586369600000     
   3.5699999999999996E-002     2.2794444175813169     
   3.6000000000000004E-002     2.1501657078494816     
   3.6299999999999999E-002     1.9952691499978243     
   3.6600000000000008E-002     1.8253877361957578     
   3.6900000000000002E-002     1.6527766440414311     
   3.7199999999999997E-002     1.4896166196748766     
   3.7500000000000006E-002     1.3477937425593325     
   3.7800000000000000E-002     1.2367356297953549     
   3.8100000000000009E-002     1.1632928603757193     
   3.8400000000000004E-002     1.1299681013912135     
   3.8699999999999998E-002     1.1348620589911995     
   3.9000000000000007E-002     1.1713842761476592     
   3.9300000000000002E-002     1.2289486244427081     
   3.9600000000000003E-002     1.2931967776634359     
   3.9900000000000005E-002     1.3474419473776251     
   4.0200000000000000E-002     1.3741769109569582     
   4.0500000000000001E-002     1.3564546768802046     
   4.0800000000000003E-002     1.2789478753206893     
   4.1100000000000005E-002     1.1295933688676492     
   4.1399999999999999E-002    0.89973383727914680     
   4.1700000000000008E-002    0.58543122753102139     
   4.2000000000000003E-002    0.18698256385881695     
   4.2299999999999997E-002   -0.29145867856276908     
   4.2600000000000006E-002   -0.84151377752449719     
   4.2900000000000001E-002    -1.4520105414729354     
   4.3200000000000002E-002    -2.1084927582719102     
   4.3500000000000004E-002    -2.7939655381071917     
   4.3799999999999999E-002    -3.4889229003056670     
   4.4100000000000000E-002    -4.1711443659881340     
   4.4400000000000002E-002    -4.8161154274897058     
   4.4700000000000004E-002    -5.3970178124459807     
   4.4999999999999998E-002    -5.8847600635087218     
   4.5300000000000000E-002    -6.2501663223206663     
   4.5600000000000002E-002    -6.4638180799246072     
   4.5899999999999996E-002    -6.4993598708861953     
   4.6200000000000005E-002    -6.3350882639249448     
   4.6500000000000000E-002    -5.9563464061929494     
   4.6799999999999994E-002    -5.3589609816745565     
   4.7100000000000003E-002    -4.5493301405352611     
   4.7399999999999998E-002    -3.5475593802377148     
   4.7700000000000006E-002    -2.3855074688437554     
   4.8000000000000001E-002    -1.1073988807468087     
   4.8300000000000010E-002    0.23326010843405243     
   4.8600000000000004E-002     1.5770096890612848     
   4.8899999999999999E-002     2.8620716484063422     
   4.9200000000000008E-002     4.0284699743379093     
   4.9500000000000002E-002     5.0230268513103233     
   4.9800000000000011E-002     5.8022060829087962     
   5.0100000000000006E-002     6.3354096246879408     
   5.0400000000000000E-002     6.6062163591240903     
   5.0700000000000009E-002     6.6131733469167955     
   5.1000000000000004E-002     6.3682256817296832     
   5.1299999999999998E-002     5.8946447085903344     
   5.1600000000000007E-002     5.2251368014130151     
   5.1900000000000002E-002     4.3968566688240571     
   5.2200000000000010E-002     3.4503794420427312     
   5.2500000000000005E-002     2.4247694655185867     
   5.2800000000000000E-002     1.3571137699451228     
   5.3099999999999994E-002    0.28075139772222180     
   5.3400000000000003E-002   -0.77393608823317805     
   5.3699999999999998E-002    -1.7792391202249007     
   5.4000000000000006E-002    -2.7076886311110826     
   5.4300000000000001E-002    -3.5299533667445715     
   5.4599999999999996E-002    -4.2142915253244606     
   5.4900000000000004E-002    -4.7233450600998736     
   5.5199999999999999E-002    -5.0169607054123802     
   5.5499999999999994E-002    -5.0510878130869372     
   5.5800000000000002E-002    -4.7858185816206600     
   5.6099999999999997E-002    -4.1858339703025109     
   5.6400000000000006E-002    -3.2324104069750916     
   5.6700000000000000E-002    -1.9261077626702772     
   5.6999999999999995E-002   -0.29752992547487622     
   5.7300000000000004E-002     1.5908356560044297     
   5.7599999999999998E-002     3.6382398559529747     
   5.7900000000000007E-002     5.7114070890681035     
   5.8200000000000002E-002     7.6453398779732424     
   5.8499999999999996E-002     9.2580332061069726     
   5.8800000000000005E-002     10.359932146484510     
   5.9100000000000000E-002     10.775936441426239     
   5.9400000000000008E-002     10.359748006456442     
   5.9700000000000003E-002     9.0157834239622758     
   6.0000000000000012E-002     6.7112166713605603     
   6.0300000000000006E-002     3.4906300944748549     
   6.0600000000000001E-002   -0.52321378266191232     
   6.0900000000000010E-002    -5.1286463774481490     
   6.1200000000000004E-002    -10.058934447847548     
   6.1500000000000013E-002    -14.996483297845714     
   6.1800000000000008E-002    -19.599943311808261     
   6.2100000000000002E-002    -23.527427301678301     
   6.2399999999999997E-002    -26.467799383840074     
   6.2700000000000006E-002    -28.164231774852574     
   6.3000000000000000E-002    -28.438096153972253     
   6.3300000000000009E-002    -27.203823428729493     
   6.3600000000000004E-002    -24.475469460145064     
   6.3899999999999998E-002    -20.368290622864777     
   6.4199999999999993E-002    -15.086703094565848     
   6.4500000000000002E-002    -8.9099936384446607     
   6.4800000000000010E-002    -2.1687765625775057     
   6.5100000000000005E-002     4.7765762264251066     
   6.5400000000000000E-002     11.569538552435233     
   6.5700000000000008E-002     17.868334160187260     
   6.5999999999999989E-002     23.384753233360357     
   6.6299999999999998E-002     27.880096010128170     
   6.6600000000000006E-002     31.195613071843439     
   6.6900000000000001E-002     33.237588750783296     
   6.7199999999999996E-002     33.992518399254664     
   6.7500000000000004E-002     33.508225219595886     
   6.7800000000000013E-002     31.891429814544153     
   6.8099999999999994E-002     29.293532633676250     
   6.8400000000000002E-002     25.894772138280473     
   6.8700000000000011E-002     21.895661887534175     
   6.8999999999999992E-002     17.499585228737658     
   6.9300000000000000E-002     12.906145337724809     
   6.9600000000000009E-002     8.2981925725340488     
   6.9900000000000004E-002     3.8402590839189417     
   7.0199999999999999E-002   -0.33207291225730273     
   7.0500000000000007E-002    -4.1086346822457642     
   7.0800000000000016E-002    -7.4131340188767467     
   7.1099999999999997E-002    -10.194120047334252     
   7.1400000000000005E-002    -12.431931655034418     
   7.1700000000000000E-002    -14.128921901923007     
   7.1999999999999995E-002    -15.310767708982794     
   7.2300000000000003E-002    -16.021049511399365     
   7.2600000000000012E-002    -16.314069624822167     
   7.2900000000000006E-002    -16.255790969399953     
   7.3200000000000001E-002    -15.912020202879091     
   7.3499999999999996E-002    -15.351671943699841     
   7.3800000000000004E-002    -14.635757936257107     
   7.4099999999999999E-002    -13.818405837960029     
   7.4400000000000008E-002    -12.945128716815077     
   7.4700000000000003E-002    -12.045797978698658     
   7.5000000000000011E-002    -11.142781857503394     
   7.5299999999999992E-002    -10.242384156332207     
   7.5600000000000001E-002    -9.3436945199979959     
   7.5900000000000009E-002    -8.4350901601362409     
   7.6200000000000004E-002    -7.5010449709197644     
   7.6499999999999999E-002    -6.5218044365356604     
   7.6800000000000007E-002    -5.4785841132673738     
   7.7099999999999988E-002    -4.3553667690701729     
   7.7399999999999997E-002    -3.1440750543677609     
   7.7700000000000005E-002    -1.8415855898771305     
   7.8000000000000014E-002   -0.45957928751274224     
   7.8299999999999995E-002    0.98453761020425645     
   7.8600000000000003E-002     2.4582679639877227     
   7.8900000000000012E-002     3.9235353886994631     
   7.9199999999999993E-002     5.3330545931368789     
   7.9500000000000001E-002     6.6348524771909467     
   7.9800000000000010E-002     7.7800039038158992     
   8.0100000000000018E-002     8.7175671000892834     
   8.0399999999999999E-002     9.4092347459691581     
   8.0700000000000008E-002     9.8234379662976892     
   8.1000000000000003E-002     9.9441572822707656     
   8.1299999999999997E-002     9.7697119453395089     
   8.1600000000000006E-002     9.3142486317221369     
   8.1900000000000014E-002     8.6072771164227220     
   8.2199999999999995E-002     7.6923072898595137     
   8.2500000000000004E-002     6.6220216925436262     
   8.2799999999999999E-002     5.4590260655558041     
   8.3100000000000007E-002     4.2655031001637269     
   8.3400000000000002E-002     3.1060145802632064     
   8.3700000000000011E-002     2.0359998572790872     
   8.4000000000000005E-002     1.1061400342149099     
   8.4300000000000000E-002    0.35036813393908606     
   8.4599999999999995E-002   -0.20833823312907285     
   8.4900000000000003E-002   -0.56489549338146716     
   8.5199999999999998E-002   -0.72770146984250061     
   8.5500000000000007E-002   -0.72243155785028890     
   8.5800000000000001E-002   -0.58329178540025239     
   8.6100000000000010E-002   -0.35836564493046730     
   8.6399999999999991E-002    -9.5179129096263360E-002
   8.6699999999999999E-002    0.15117181904358867     
   8.7000000000000008E-002    0.33514228624614706     
   8.7300000000000003E-002    0.41381504584698980     
   8.7599999999999997E-002    0.35754544895428086     
   8.7900000000000006E-002    0.15067308681443325     
   8.8200000000000014E-002   -0.21035305930690740     
   8.8499999999999995E-002   -0.71006138363778604     
   8.8800000000000004E-002    -1.3237476338244818     
   8.9100000000000013E-002    -2.0103294996837509     
   8.9399999999999993E-002    -2.7253832917188916     
   8.9700000000000002E-002    -3.4160682303469549     
   9.0000000000000011E-002    -4.0334093318585502     
   9.0299999999999991E-002    -4.5294303010138464     
   9.0600000000000000E-002    -4.8669288411655316     
   9.0900000000000009E-002    -5.0170663361498669     
   9.1200000000000017E-002    -4.9665251242161901     
   9.1499999999999998E-002    -4.7125776237720345     
   9.1800000000000007E-002    -4.2697128762719245     
   9.2100000000000001E-002    -3.6607837833544750     
   9.2399999999999996E-002    -2.9224024315116282     
   9.2700000000000005E-002    -2.0965109217371491     
   9.3000000000000013E-002    -1.2303601245511615     
   9.3300000000000008E-002   -0.37355345149596086     
   9.3600000000000003E-002    0.42809328175443184     
   9.3899999999999997E-002     1.1305928568165555     
   9.4200000000000006E-002     1.6995351131080554     
   9.4500000000000001E-002     2.1075288550432152     
   9.4800000000000009E-002     2.3387865796475538     
   9.5100000000000004E-002     2.3889935628060854     
   9.5399999999999999E-002     2.2652007921874713     
   9.5699999999999993E-002     1.9858130462670260     
   9.6000000000000002E-002     1.5801884163008495     
   9.6300000000000011E-002     1.0850760512751982     
   9.6600000000000005E-002    0.54575003758214002     
   9.6900000000000000E-002     7.5743286677001365E-003
   9.7200000000000009E-002   -0.48006883068407546     
   9.7499999999999989E-002   -0.87468008104796802     
   9.7799999999999998E-002    -1.1380657713295861     
   9.8100000000000007E-002    -1.2433165003837860     
   9.8400000000000015E-002    -1.1764853210852273     
   9.8699999999999996E-002   -0.93622338454397536     
   9.9000000000000005E-002   -0.53871036388060745     
   9.9300000000000013E-002    -1.0492825703302344E-002
   9.9599999999999994E-002    0.60478150132403385     
   9.9900000000000003E-002     1.2594703794545623     
  0.10020000000000001          1.8964169663226773     
  0.10049999999999999          2.4624484532711950     
  0.10080000000000000          2.9047585358635573     
  0.10110000000000001          3.1837207712883142     
  0.10140000000000000          3.2690638342254061     
  0.10170000000000000          3.1495707863758469     
  0.10200000000000001          2.8276719573613747     
  0.10230000000000002          2.3249845128263118     
  0.10260000000000000          1.6762774454493865     
  0.10290000000000001         0.92803499248880073     
  0.10320000000000000         0.13582796014552656     
  0.10350000000000001        -0.64589128000712748     
  0.10380000000000000         -1.3594499964688964     
  0.10410000000000001         -1.9595725580167027     
  0.10440000000000001         -2.4061660091302706     
  0.10470000000000000         -2.6766801442286035     
  0.10500000000000000         -2.7593476770990222     
  0.10530000000000000         -2.6586086209465734     
  0.10560000000000000         -2.3921501987240035     
  0.10590000000000001         -1.9870883874982326     
  0.10620000000000000         -1.4815030367891211     
  0.10650000000000001        -0.91519329137250693     
  0.10679999999999999        -0.33234369799668606     
  0.10710000000000000         0.22668911568499439     
  0.10740000000000001         0.72469734059860613     
  0.10770000000000000          1.1316776716149022     
  0.10800000000000000          1.4252909671925416     
  0.10830000000000001          1.5933929813979617     
  0.10859999999999999          1.6307561364782348     
  0.10890000000000000          1.5444399197472727     
  0.10920000000000001          1.3461805170540799     
  0.10950000000000001          1.0569646966431243     
  0.10979999999999999         0.70108419002823119     
  0.11009999999999999         0.30680936243773438     
  0.11040000000000001         -9.6037201021768936E-002
  0.11070000000000001        -0.47958159984425919     
  0.11100000000000000        -0.81798497326253461     
  0.11130000000000000         -1.0893909445923349     
  0.11160000000000002         -1.2797329268071156     
  0.11190000000000001         -1.3779706835401875     
  0.11220000000000001         -1.3848063895669576     
  0.11250000000000000         -1.3026159507654640     
  0.11280000000000000         -1.1452707487946654     
  0.11309999999999999        -0.92619387109707674     
  0.11340000000000001        -0.66735671388661544     
  0.11369999999999998        -0.38892623614827926     
  0.11400000000000000        -0.11286830999188580     
  0.11430000000000000         0.14082795060663056     
  0.11460000000000002         0.35576235141243906     
  0.11489999999999999         0.51881618511270222     
  0.11520000000000001         0.62280090059862925     
  0.11550000000000001         0.66471608637696988     
  0.11580000000000000         0.64731578310868088     
  0.11609999999999999         0.57656621778640016     
  0.11640000000000002         0.46474133658415973     
  0.11670000000000001         0.32267223020568458     
  0.11700000000000001         0.16730060065038543     
  0.11730000000000000          1.1428740741472709E-002
  0.11760000000000000        -0.12858202915606842     
  0.11789999999999999        -0.24215021460639674     
  0.11820000000000001        -0.31826155824707669     
  0.11850000000000001        -0.35088829355315099     
  0.11880000000000000        -0.33694126447654149     
  0.11910000000000000        -0.27676417132118658     
  0.11940000000000002        -0.17554883772996055     
  0.11970000000000001         -4.0258200726921434E-002
  0.12000000000000001         0.11789191376788288     
  0.12030000000000000         0.28728271349096701     
  0.12060000000000000         0.45414969647119552     
  0.12089999999999999         0.60506714126560424     
  0.12119999999999999         0.72782304242856277     
  0.12150000000000001         0.81292237567983250     
  0.12180000000000001         0.85182371581822025     
  0.12210000000000000         0.84169306339558148     
  0.12239999999999999         0.78130058312083150     
  0.12270000000000002         0.67547941165754466     
  0.12300000000000001         0.53048164905937512     
  0.12330000000000001         0.35614830260189656     
  0.12360000000000000         0.16481988226355115     
  0.12390000000000000         -3.1602201290051646E-002
  0.12419999999999999        -0.21897838478352760     
  0.12450000000000001        -0.38725731716399281     
  0.12480000000000001        -0.52556906149057347     
  0.12509999999999999        -0.62735056551101009     
  0.12540000000000001        -0.68801274864779849     
  0.12570000000000003        -0.70654507158090141     
  0.12600000000000000        -0.68467409528906131     
  0.12630000000000002        -0.62719836762740400     
  0.12659999999999999        -0.53998681824763750     
  0.12690000000000001        -0.43152560183833621     
  0.12719999999999998        -0.31042152682526236     
  0.12750000000000000        -0.18627528641424274     
  0.12780000000000002         -6.7629337857173455E-002
  0.12809999999999999          3.8041448055813998E-002
  0.12840000000000001         0.12315428284041374     
  0.12869999999999998         0.18408104362923217     
  0.12900000000000000         0.21685853364087548     
  0.12930000000000003         0.22135207752045893     
  0.12959999999999999         0.19874624090790771     
  0.12990000000000002         0.15243201957888264     
  0.13019999999999998          8.7640817879151012E-002
  0.13050000000000000          1.0598196117828751E-002
  0.13080000000000003         -7.0373036543112999E-002
  0.13109999999999999        -0.14862139827933074     
  0.13140000000000002        -0.21626938162780623     
  0.13169999999999998        -0.26722913250987990     
  0.13200000000000001        -0.29653663977817679     
  0.13229999999999997        -0.30132492212478112     
  0.13260000000000000        -0.28126813104788262     
  0.13290000000000002        -0.23708598874746034     
  0.13319999999999999        -0.17262625470368143     
  0.13350000000000001         -9.2135699906979784E-002
  0.13380000000000003         -2.0193439575688643E-003
  0.13410000000000000          9.1978302238850063E-002
  0.13440000000000002         0.18243019595506738     
  0.13469999999999999         0.26452292817565404     
  0.13500000000000001         0.33230966758952785     
  0.13529999999999998         0.38248008015639279     
  0.13560000000000000         0.41182764727437426     
  0.13590000000000002         0.41928165204645751     
  0.13619999999999999         0.40546193363438476     
  0.13650000000000001         0.37080859375719832     
  0.13680000000000003         0.31923954369734631     
  0.13710000000000000         0.25316238093778587     
  0.13740000000000002         0.17813921735274274     
  0.13769999999999999          9.7812319820567595E-002
  0.13800000000000001          1.9100091996154811E-002
  0.13829999999999998         -5.4820908252419809E-002
  0.13860000000000000        -0.11794157505992242     
  0.13890000000000002        -0.16750262620433887     
  0.13919999999999999        -0.20018264564332311     
  0.13950000000000001        -0.21546085058294584     
  0.13979999999999998        -0.21282365431128314     
  0.14010000000000000        -0.19431053130385845     
  0.14040000000000002        -0.16223523293655262     
  0.14069999999999999        -0.12061882441828242     
  0.14100000000000001         -7.3072474486256311E-002
  0.14130000000000004         -2.4883271996607781E-002
  0.14160000000000000          2.0584003438630649E-002
  0.14189999999999997          5.9201295373589868E-002
  0.14219999999999999          8.8543726776271647E-002
  0.14250000000000002         0.10636600175077782     
  0.14279999999999998         0.11161331576770483     
  0.14310000000000000         0.10490835322285452     
  0.14339999999999997          8.5916710900957760E-002
  0.14369999999999999          5.7844939611562562E-002
  0.14400000000000002          2.1397331994673696E-002
  0.14429999999999998         -1.9273012660601330E-002
  0.14460000000000001         -6.2665256284327953E-002
  0.14490000000000003        -0.10393261864786441     
  0.14520000000000000        -0.14150902376039365     
  0.14550000000000002        -0.17126931399625422     
  0.14579999999999999        -0.19210553597190971     
  0.14610000000000001        -0.20052109748470226     
  0.14640000000000003        -0.19735052457833646     
  0.14670000000000000        -0.18087531177067184     
  0.14699999999999996        -0.15359075835224711     
  0.14729999999999999        -0.11611279949461828     
  0.14760000000000001         -7.1593255174708492E-002
  0.14789999999999998         -2.3537015093331282E-002
  0.14820000000000000          2.5216756428346976E-002