  -1.4999999999999999E-002     0.0000000000000000     
  -1.4700000000000000E-002     0.0000000000000000     
  -1.4400000000000000E-002     2.9882109108411502E-029
  -1.4100000000000000E-002     1.5199377491345845E-025
  -1.3800000000000000E-002     2.2889229094181003E-024
  -1.3500000000000000E-002    -1.2383198711990347E-021
  -1.3200000000000000E-002     6.8738840169611229E-022
  -1.2899999999999998E-002     2.0121737087023528E-019
  -1.2600000000000000E-002    -6.7360967214645934E-019
  -1.2299999999999998E-002    -4.5774988094505538E-018
  -1.2000000000000000E-002     1.7458824733123925E-017
  -1.1699999999999999E-002     3.6703353737737524E-017
  -1.1399999999999999E-002    -1.2057876640145509E-016
  -1.1099999999999999E-002    -3.5696215681584400E-016
  -1.0799999999999999E-002     6.3852535819449124E-016
  -1.0499999999999999E-002     2.0605133115562555E-015
  -1.0199999999999999E-002    -1.3164625241500146E-015
  -9.8999999999999991E-003    -7.6244603485582305E-015
  -9.5999999999999992E-003    -8.5181360120860361E-015
  -9.2999999999999992E-003     2.0554660539818040E-014
  -8.9999999999999993E-003     7.2585851446180932E-014
  -8.6999999999999994E-003    -3.9062017035134018E-015
  -8.3999999999999995E-003    -3.3683803359399467E-013
  -8.0999999999999996E-003    -6.3343007596951273E-014
  -7.7999999999999988E-003     6.1380794110638126E-013
  -7.4999999999999997E-003     4.2138821186761544E-013
  -7.1999999999999998E-003     5.6824586269071942E-013
  -6.8999999999999981E-003    -1.3280945353882911E-012
  -6.5999999999999982E-003    -7.6340531118823662E-012
  -6.3000000000000000E-003     3.9080518335343761E-012
  -6.0000000000000001E-003     2.2372166619266665E-011
  -5.6999999999999985E-003    -1.1683405978790695E-011
  -5.3999999999999986E-003    -1.4165175109270844E-011
  -5.1000000000000004E-003     1.1969232896480442E-011
  -4.7999999999999987E-003    -8.7974072471297404E-011
  -4.5000000000000005E-003     2.0252537494269696E-011
  -4.1999999999999989E-003     3.6452091345395843E-010
  -3.8999999999999990E-003    -2.1239930647620753E-010
  -3.5999999999999990E-003    -5.1493148633952046E-010
  -3.2999999999999991E-003     6.9230177146550886E-010
  -2.9999999999999992E-003    -6.9763539389811058E-010
  -2.6999999999999993E-003    -5.5407506360793946E-010
  -2.3999999999999994E-003     3.7441849620734047E-009
  -2.0999999999999977E-003    -2.0236692321873306E-009
  -1.7999999999999995E-003    -4.4839727486589709E-009
  -1.4999999999999979E-003     5.5319313574386797E-009
  -1.1999999999999997E-003    -3.9296090825757801E-009
  -8.9999999999999976E-004    -1.6800736357680535E-009
  -5.9999999999999810E-004     1.6427055271606150E-008
  -2.9999999999999992E-004    -1.3056165037994560E-008
   0.0000000000000000         -6.7838312745038820E-009
   3.0000000000000165E-004     1.4121958713531058E-008
   5.9999999999999984E-004    -3.8217770281789853E-008
   9.0000000000000149E-004     3.7183639278737246E-008
   1.2000000000000031E-003     6.6331715231626731E-008
   1.5000000000000013E-003    -1.2576694530253008E-007
   1.8000000000000030E-003     1.2399574700339144E-008
   2.1000000000000012E-003     1.5774084261011012E-007
   2.3999999999999994E-003    -2.0189824567751202E-007
   2.7000000000000010E-003    -6.1920353289224295E-008
   2.9999999999999992E-003     3.4743533205983113E-007
   3.3000000000000008E-003    -6.9671870051024598E-008
   3.6000000000000025E-003    -2.8775482974197075E-007
   3.9000000000000007E-003     3.0300022046958475E-008
   4.2000000000000023E-003     1.0412311723939638E-007
   4.5000000000000005E-003     2.2609174266108312E-007
   4.7999999999999987E-003    -5.6495188971439347E-008
   5.1000000000000004E-003    -4.5443022145263967E-007
   5.4000000000000020E-003     2.2256088527683460E-007
   5.7000000000000037E-003     3.4513053037699137E-007
   5.9999999999999984E-003    -3.4824486760953732E-007
   6.3000000000000000E-003     1.3465464121509285E-007
   6.6000000000000017E-003     1.6807371139293537E-007
   6.9000000000000034E-003    -5.8868243968390743E-007
   7.2000000000000015E-003     1.6086134735360247E-007
   7.5000000000000032E-003     4.6928465735618374E-007
   7.8000000000000014E-003    -1.0443834241868899E-007
   8.0999999999999996E-003     1.8175250033891643E-006
   8.4000000000000012E-003     4.6876025407982524E-006
   8.7000000000000029E-003     5.4785455176897813E-006
   9.0000000000000011E-003     6.9310358412622008E-006
   9.2999999999999992E-003     1.2100626918254420E-005
   9.6000000000000009E-003     2.0497516743489541E-005
   9.8999999999999991E-003     3.2618121622363105E-005
   1.0200000000000001E-002     4.7161753172986209E-005
   1.0500000000000002E-002     5.7198758440790698E-005
   1.0800000000000004E-002     6.2526778492610902E-005
   1.1099999999999999E-002     7.2364804509561509E-005
   1.1400000000000000E-002     8.1687001511454582E-005
   1.1700000000000002E-002     7.1128706622403115E-005
   1.2000000000000004E-002     3.2831543649081141E-005
   1.2300000000000002E-002    -4.1893279558280483E-005
   1.2600000000000000E-002    -1.8555515271145850E-004
   1.2900000000000002E-002    -4.4876054744236171E-004
   1.3200000000000000E-002    -9.0339413145557046E-004
   1.3500000000000002E-002    -1.6570839798077941E-003
   1.3800000000000003E-002    -2.8673415072262287E-003
   1.4100000000000001E-002    -4.7474633902311325E-003
   1.4400000000000000E-002    -7.5731012038886547E-003
   1.4700000000000001E-002    -1.1728196404874325E-002
   1.4999999999999999E-002    -1.7717259004712105E-002
   1.5300000000000001E-002    -2.6106195524334908E-002
   1.5600000000000003E-002    -3.7546675652265549E-002
   1.5899999999999997E-002    -5.2820622920989990E-002
   1.6199999999999999E-002    -7.2758048772811890E-002
   1.6500000000000001E-002    -9.8181486129760742E-002
   1.6800000000000002E-002   -0.12984640896320343     
   1.7100000000000004E-002   -0.16833977401256561     
   1.7400000000000006E-002   -0.21396689116954803     
   1.7700000000000000E-002   -0.26641744375228882     
   1.8000000000000002E-002   -0.32457342743873596     
   1.8300000000000004E-002   -0.38656136393547058     
   1.8600000000000005E-002   -0.44941702485084534     
   1.8900000000000000E-002   -0.50877487659454346     
   1.9200000000000002E-002   -0.55896699428558350     
   1.9500000000000003E-002   -0.59295433759689331     
   1.9799999999999998E-002   -0.60258650779724121     
   2.0100000000000000E-002   -0.57898539304733276     
   2.0400000000000001E-002   -0.51298153400421143     
   2.0700000000000003E-002   -0.39585235714912415     
   2.0999999999999998E-002   -0.22039185464382172     
   2.1299999999999999E-002     1.8334589898586273E-002
   2.1600000000000001E-002    0.32161310315132141     
   2.1900000000000003E-002    0.68616658449172974     
   2.2200000000000004E-002     1.1036490201950073     
   2.2500000000000006E-002     1.5596824884414673     
   2.2800000000000001E-002     2.0341503620147705     
   2.3100000000000002E-002     2.5017848014831543     
   2.3400000000000004E-002     2.9329602718353271     
   2.3699999999999999E-002     3.2957332134246826     
   2.4000000000000000E-002     3.5578765869140625     
   2.4300000000000002E-002     3.6894690990447998     
   2.4599999999999997E-002     3.6657691001892090     
   2.4900000000000005E-002     3.4693067073822021     
   2.5200000000000000E-002     3.0924692153930664     
   2.5499999999999995E-002     2.5387620925903320     
   2.5800000000000003E-002     1.8230624198913574     
   2.6099999999999998E-002    0.97161692380905151     
   2.6400000000000007E-002     2.0285241305828094E-002
   2.6700000000000002E-002   -0.98841381072998047     
   2.6999999999999996E-002    -2.0076422691345215     
   2.7300000000000005E-002    -2.9910616874694824     
   2.7600000000000000E-002    -3.8954205513000488     
   2.7900000000000008E-002    -4.6839127540588379     
   2.8200000000000003E-002    -5.3291139602661133     
   2.8499999999999998E-002    -5.8139448165893555     
   2.8800000000000006E-002    -6.1314787864685059     
   2.9100000000000001E-002    -6.2849540710449219     
   2.9400000000000003E-002    -6.2850198745727539     
   2.9700000000000004E-002    -6.1464905738830566     
   3.0000000000000006E-002    -5.8867230415344238     
   3.0300000000000001E-002    -5.5220465660095215     
   3.0600000000000002E-002    -5.0652260780334473     
   3.0900000000000004E-002    -4.5259695053100586     
   3.1199999999999999E-002    -3.9089767932891846     
   3.1500000000000007E-002    -3.2156980037689209     
   3.1800000000000002E-002    -2.4484775066375732     
   3.2099999999999997E-002    -1.6106383800506592     
   3.2400000000000005E-002   -0.71172499656677246     
   3.2700000000000000E-002    0.22879676520824432     
   3.3000000000000002E-002     1.1816562414169312     
   3.3300000000000003E-002     2.1041758060455322     
   3.3599999999999998E-002     2.9414944648742676     
   3.3900000000000000E-002     3.6316809654235840     
   3.4200000000000001E-002     4.1070008277893066     
   3.4500000000000003E-002     4.3030905723571777     
   3.4799999999999998E-002     4.1677017211914062     
   3.5099999999999999E-002     3.6667799949645996     
   3.5400000000000001E-002     2.7958936691284180     
   3.5699999999999996E-002     1.5864645242691040     
   3.6000000000000004E-002    0.10951521992683411     
   3.6299999999999999E-002    -1.5208621025085449     
   3.6600000000000008E-002    -3.1516604423522949     
   3.6900000000000002E-002    -4.6000404357910156     
   3.7199999999999997E-002    -5.6622767448425293     
   3.7500000000000006E-002    -6.1345620155334473     
   3.7800000000000000E-002    -5.8307313919067383     
   3.8100000000000009E-002    -4.6036934852600098     
   3.8400000000000004E-002    -2.3670034408569336     
   3.8699999999999998E-002    0.88795566558837891     
   3.9000000000000007E-002     5.0799202919006348     
   3.9300000000000002E-002     10.032091140747070     
   3.9600000000000003E-002     15.476435661315918     
   3.9900000000000005E-002     21.066661834716797     
   4.0200000000000000E-002     26.399888992309570     
   4.0500000000000001E-002     31.048107147216797     
   4.0800000000000003E-002     34.590751647949219     
   4.1100000000000005E-002     36.653072357177734     
   4.1399999999999999E-002     36.940254211425781     
   4.1700000000000008E-002     35.269840240478516     
   4.2000000000000003E-002     31.589508056640625     
   4.2299999999999997E-002     25.990337371826172     
   4.2600000000000006E-002     18.703786849975586     
   4.2900000000000001E-002     10.087593078613281     
   4.3200000000000002E-002    0.59730553627014160     
   4.3500000000000004E-002    -9.2435207366943359     
   4.3799999999999999E-002    -18.888275146484375     
   4.4100000000000000E-002    -27.808250427246094     
   4.4400000000000002E-002    -35.532341003417969     
   4.4700000000000004E-002    -41.678558349609375     
   4.4999999999999998E-002    -45.984428405761719     
   4.5300000000000000E-002    -48.315345764160156     
   4.5600000000000002E-002    -48.667980194091797     
   4.5899999999999996E-002    -47.164894104003906     
   4.6200000000000005E-002    -44.029720306396484     
   4.6500000000000000E-002    -39.564567565917969     
   4.6799999999999994E-002    -34.119728088378906     
   4.7100000000000003E-002    -28.061439514160156     
   4.7399999999999998E-002    -21.739831924438477     
   4.7700000000000006E-002    -15.471199989318848     
   4.8000000000000001E-002    -9.5129241943359375     
   4.8300000000000010E-002    -4.0541028976440430     
   4.8600000000000004E-002    0.78608757257461548     
   4.8899999999999999E-002     4.9541382789611816     
   4.9200000000000008E-002     8.4542636871337891     
   4.9500000000000002E-002     11.337557792663574     
   4.9800000000000011E-002     13.681915283203125     
   5.0100000000000006E-002     15.577363967895508     
   5.0400000000000000E-002     17.114767074584961     
   5.0700000000000009E-002     18.373378753662109     
   5.1000000000000004E-002     19.407396316528320     
   5.1299999999999998E-002     20.249910354614258     
   5.1600000000000007E-002     20.909410476684570     
   5.1900000000000002E-002     21.365610122680664     
   5.2200000000000010E-002     21.585245132446289     
   5.2500000000000005E-002     21.527524948120117     
   5.2800000000000000E-002     21.140567779541016     
   5.3099999999999994E-002     20.385427474975586     
   5.3400000000000003E-002     19.239309310913086     
   5.3699999999999998E-002     17.687797546386719     
   5.4000000000000006E-002     15.747485160827637     
   5.4300000000000001E-002     13.463724136352539     
   5.4599999999999996E-002     10.893579483032227     
   5.4900000000000004E-002     8.1239147186279297     
   5.5199999999999999E-002     5.2606072425842285     
   5.5499999999999994E-002     2.4056060314178467     
   5.5800000000000002E-002   -0.32616129517555237     
   5.6099999999999997E-002    -2.8272356986999512     
   5.6400000000000006E-002    -5.0115385055541992     
   5.6700000000000000E-002    -6.8051962852478027     
   5.6999999999999995E-002    -8.1607608795166016     
   5.7300000000000004E-002    -9.0612573623657227     
   5.7599999999999998E-002    -9.5146646499633789     
   5.7900000000000007E-002    -9.5542488098144531     
   5.8200000000000002E-002    -9.2367963790893555     
   5.8499999999999996E-002    -8.6369161605834961     
   5.8800000000000005E-002    -7.8382401466369629     
   5.9100000000000000E-002    -6.9280009269714355     
   5.9400000000000008E-002    -5.9950594902038574     
   5.9700000000000003E-002    -5.1157679557800293     
   6.0000000000000012E-002    -4.3517818450927734     
   6.0300000000000006E-002    -3.7536027431488037     
   6.0600000000000001E-002    -3.3483521938323975     
   6.0900000000000010E-002    -3.1393156051635742     
   6.1200000000000004E-002    -3.1188440322875977     
   6.1500000000000013E-002    -3.2560379505157471     
   6.1800000000000008E-002    -3.5045979022979736     
   6.2100000000000002E-002    -3.8159363269805908     
   6.2399999999999997E-002    -4.1307783126831055     
   6.2700000000000006E-002    -4.3885164260864258     
   6.3000000000000000E-002    -4.5397753715515137     
   6.3300000000000009E-002    -4.5415835380554199     
   6.3600000000000004E-002    -4.3600687980651855     
   6.3899999999999998E-002    -3.9830067157745361     
   6.4199999999999993E-002    -3.4133563041687012     
   6.4500000000000002E-002    -2.6643254756927490     
   6.4800000000000010E-002    -1.7698838710784912     
   6.5100000000000005E-002   -0.77803105115890503     
   6.5400000000000000E-002    0.26519301533699036     
   6.5700000000000008E-002     1.3013275861740112     
   6.5999999999999989E-002     2.2707314491271973     
   6.6299999999999998E-002     3.1287777423858643     
   6.6600000000000006E-002     3.8291270732879639     
   6.6900000000000001E-002     4.3369836807250977     
   6.7199999999999996E-002     4.6397085189819336     
   6.7500000000000004E-002     4.7293114662170410     
   6.7800000000000013E-002     4.6109547615051270     
   6.8099999999999994E-002     4.3117918968200684     
   6.8400000000000002E-002     3.8614659309387207     
   6.8700000000000011E-002     3.2956206798553467     
   6.8999999999999992E-002     2.6638338565826416     
   6.9300000000000000E-002     2.0120613574981689     
   6.9600000000000009E-002     1.3805861473083496     
   6.9900000000000004E-002    0.81395578384399414     
   7.0199999999999999E-002    0.34625029563903809     
   7.0500000000000007E-002    -3.0212365090847015E-003
   7.0800000000000016E-002   -0.21751321852207184     
   7.1099999999999997E-002   -0.29342982172966003     
   7.1400000000000005E-002   -0.24395576119422913     
   7.1700000000000000E-002    -8.6196608841419220E-002
   7.1999999999999995E-002    0.15568032860755920     
   7.2300000000000003E-002    0.44319808483123779     
   7.2600000000000012E-002    0.74339276552200317     
   7.2900000000000006E-002     1.0247726440429688     
   7.3200000000000001E-002     1.2492042779922485     
   7.3499999999999996E-002     1.3944714069366455     
   7.3800000000000004E-002     1.4461851119995117     
   7.4099999999999999E-002     1.3917151689529419     
   7.4400000000000008E-002     1.2356313467025757     
   7.4700000000000003E-002    0.99033480882644653     
   7.5000000000000011E-002    0.67086356878280640     
   7.5299999999999992E-002    0.30282431840896606     
   7.5600000000000001E-002    -8.7389566004276276E-002
   7.5900000000000009E-002   -0.47588136792182922     
   7.6200000000000004E-002   -0.83906835317611694     
   7.6499999999999999E-002    -1.1570819616317749     
   7.6800000000000007E-002    -1.4176415205001831     
   7.7099999999999988E-002    -1.6158833503723145     
   7.7399999999999997E-002    -1.7489898204803467     
   7.7700000000000005E-002    -1.8188897371292114     
   7.8000000000000014E-002    -1.8358422517776489     
   7.8299999999999995E-002    -1.8057366609573364     
   7.8600000000000003E-002    -1.7336848974227905     
   7.8900000000000012E-002    -1.6314110755920410     
   7.9199999999999993E-002    -1.4998553991317749     
   7.9500000000000001E-002    -1.3386944532394409     
   7.9800000000000010E-002    -1.1552484035491943     
   8.0100000000000018E-002   -0.94500219821929932     
   8.0399999999999999E-002   -0.70815783739089966     
   8.0700000000000008E-002   -0.45350188016891479     
   8.1000000000000003E-002   -0.18196560442447662     
   8.1299999999999997E-002     9.6240147948265076E-002
   8.1600000000000006E-002    0.36575567722320557     
   8.1900000000000014E-002    0.61430132389068604     
   8.2199999999999995E-002    0.82578676939010620     
   8.2500000000000004E-002    0.98470628261566162     
   8.2799999999999999E-002     1.0793398618698120     
   8.3100000000000007E-002     1.1033908128738403     
   8.3400000000000002E-002     1.0552873611450195     
   8.3700000000000011E-002    0.93783539533615112     
   8.4000000000000005E-002    0.76480907201766968     
   8.4300000000000000E-002    0.55207598209381104     
   8.4599999999999995E-002    0.31579834222793579     
   8.4900000000000003E-002     8.1583350896835327E-002
   8.5199999999999998E-002   -0.13193275034427643     
   8.5500000000000007E-002   -0.31246101856231689     
   8.5800000000000001E-002   -0.44227999448776245     
   8.6100000000000010E-002   -0.51691460609436035     
   8.6399999999999991E-002   -0.54123598337173462     
   8.6699999999999999E-002   -0.51408320665359497     
   8.7000000000000008E-002   -0.44878643751144409     
   8.7300000000000003E-002   -0.36206355690956116     
   8.7599999999999997E-002   -0.26006275415420532     
   8.7900000000000006E-002   -0.16039295494556427     
   8.8200000000000014E-002    -7.5328826904296875E-002
   8.8499999999999995E-002    -5.7623377069830894E-003
   8.8800000000000004E-002     4.0724799036979675E-002
   8.9100000000000013E-002     6.5041959285736084E-002
   8.9399999999999993E-002     7.5054019689559937E-002
   8.9700000000000002E-002     7.2785332798957825E-002
   9.0000000000000011E-002     6.7898690700531006E-002
   9.0299999999999991E-002     6.9419801235198975E-002
   9.0600000000000000E-002     8.0544672906398773E-002
   9.0900000000000009E-002    0.10885199904441833     
   9.1200000000000017E-002    0.15632618963718414     
   9.1499999999999998E-002    0.22158600389957428     
   9.1800000000000007E-002    0.30509087443351746     
   9.2100000000000001E-002    0.39974802732467651     
   9.2399999999999996E-002    0.49878755211830139     
   9.2700000000000005E-002    0.59890729188919067     
   9.3000000000000013E-002    0.68696600198745728     
   9.3300000000000008E-002    0.75545823574066162     
   9.3600000000000003E-002    0.80084264278411865     
   9.3899999999999997E-002    0.81103140115737915     
   9.4200000000000006E-002    0.78324449062347412     
   9.4500000000000001E-002    0.71816021203994751     
   9.4800000000000009E-002    0.61029392480850220     
   9.5100000000000004E-002    0.46531468629837036     
   9.5399999999999999E-002    0.29170551896095276     
   9.5699999999999993E-002     9.2450231313705444E-002
   9.6000000000000002E-002   -0.11910805851221085     
   9.6300000000000011E-002   -0.32938796281814575     
   9.6600000000000005E-002   -0.53048861026763916     
   9.6900000000000000E-002   -0.70827150344848633     
   9.7200000000000009E-002   -0.85100489854812622     
   9.7499999999999989E-002   -0.95476979017257690     
   9.7799999999999998E-002    -1.0117065906524658     
   9.8100000000000007E-002    -1.0193589925765991     
   9.8400000000000015E-002   -0.98240143060684204     
   9.8699999999999996E-002   -0.90207964181900024     
   9.9000000000000005E-002   -0.78609436750411987     
   9.9300000000000013E-002   -0.64488065242767334     
   9.9599999999999994E-002   -0.48691260814666748     
   9.9900000000000003E-002   -0.32212635874748230     
  0.10020000000000001        -0.16147167980670929     
  0.10049999999999999         -1.4587045647203922E-002
  0.10080000000000000         0.11324677616357803     
  0.10110000000000001         0.21606433391571045     
  0.10140000000000000         0.28762659430503845     
  0.10170000000000000         0.33046713471412659     
  0.10200000000000001         0.34415704011917114     
  0.10230000000000002         0.32885640859603882     
  0.10260000000000000         0.29280075430870056     
  0.10290000000000001         0.23921208083629608     
  0.10320000000000000         0.17430928349494934     
  0.10350000000000001         0.10782869160175323     
  0.10380000000000000          4.4242583215236664E-002
  0.10410000000000001         -9.9910162389278412E-003
  0.10440000000000001         -4.7197934240102768E-002
  0.10470000000000000         -6.6197872161865234E-002
  0.10500000000000000         -6.3345938920974731E-002
  0.10530000000000000         -3.8210302591323853E-002
  0.10560000000000000          5.2062259055674076E-003
  0.10590000000000001          6.5758146345615387E-002
  0.10620000000000000         0.13699930906295776     
  0.10650000000000001         0.21119008958339691     
  0.10679999999999999         0.28584510087966919     
  0.10710000000000000         0.35061049461364746     
  0.10740000000000001         0.39931899309158325     
  0.10770000000000000         0.43233841657638550     
  0.10800000000000000         0.44161000847816467     
  0.10830000000000001         0.42659991979598999     
  0.10859999999999999         0.39169368147850037     
  0.10890000000000000         0.33396682143211365     
  0.10920000000000001         0.25837022066116333     
  0.10950000000000001         0.17332254350185394     
  0.10979999999999999          7.8183680772781372E-002
  0.11009999999999999         -1.9833125174045563E-002
  0.11040000000000001        -0.11185200512409210     
  0.11070000000000001        -0.19740535318851471     
  0.11100000000000000        -0.27110639214515686     
  0.11130000000000000        -0.32595941424369812     
  0.11160000000000002        -0.36425131559371948     
  0.11190000000000001        -0.38216233253479004     
  0.11220000000000001        -0.37704417109489441     
  0.11250000000000000        -0.35470229387283325     
  0.11280000000000000        -0.31474381685256958     
  0.11309999999999999        -0.25832730531692505     
  0.11340000000000001        -0.19425007700920105     
  0.11369999999999998        -0.12546177208423615     
  0.11400000000000000         -5.5029172450304031E-002
  0.11430000000000000          7.9434979707002640E-003
  0.11460000000000002          6.1334647238254547E-002
  0.11489999999999999         0.10240615904331207     
  0.11520000000000001         0.12570895254611969     
  0.11550000000000001         0.13270951807498932     
  0.11580000000000000         0.12454241514205933     
  0.11609999999999999         0.10063887387514114     
  0.11640000000000002          6.6671587526798248E-002
  0.11670000000000001          2.4447493255138397E-002
  0.11700000000000001         -2.1472256630659103E-002
  0.11730000000000000         -6.5450392663478851E-002
  0.11760000000000000        -0.10700016468763351     
  0.11789999999999999        -0.13983115553855896     
  0.11820000000000001        -0.16154201328754425     
  0.11850000000000001        -0.17448212206363678     
  0.11880000000000000        -0.17306269705295563     
  0.11910000000000000        -0.15807563066482544     
  0.11940000000000002        -0.13390453159809113     
  0.11970000000000001         -9.6805714070796967E-002
  0.12000000000000001         -5.0920214504003525E-002
  0.12030000000000000         -1.0284807067364454E-003
  0.12060000000000000          5.3872831165790558E-002
  0.12089999999999999         0.10880563408136368     
  0.12119999999999999         0.15732733905315399     
  0.12150000000000001         0.20039047300815582     
  0.12180000000000001         0.23349975049495697     
  0.12210000000000000         0.25147223472595215     
  0.12239999999999999         0.25627276301383972     
  0.12270000000000002         0.24698680639266968     
  0.12300000000000001         0.22195218503475189     
  0.12330000000000001         0.18587665259838104     
  0.12360000000000000         0.14166907966136932     
  0.12390000000000000          9.0030416846275330E-002
  0.12419999999999999          3.6854837089776993E-002
  0.12450000000000001         -1.3112772256135941E-002
  0.12480000000000001         -5.9647951275110245E-002
  0.12509999999999999         -9.8408080637454987E-002
  0.12540000000000001        -0.12507167458534241     
  0.12570000000000003        -0.14371377229690552     
  0.12600000000000000        -0.15151415765285492     
  0.12630000000000002        -0.14635095000267029     
  0.12659999999999999        -0.13366435468196869     
  0.12690000000000001        -0.11269253492355347     
  0.12719999999999998         -8.3376482129096985E-002
  0.12750000000000000         -5.1835294812917709E-002
  0.12780000000000002         -1.8028164282441139E-002
  0.12809999999999999          1.7863890156149864E-002
  0.12840000000000001          5.0065331161022186E-002
  0.12869999999999998          7.6664507389068604E-002
  0.12900000000000000          9.8051987588405609E-002
  0.12930000000000003         0.11037145555019379     
  0.12959999999999999         0.11164350807666779     
  0.12990000000000002         0.10411516577005386     
  0.13019999999999998          8.7339811027050018E-002
  0.13050000000000000          6.0174390673637390E-002
  0.13080000000000003          2.7479898184537888E-002
  0.13109999999999999         -7.7696586959064007E-003
  0.13140000000000002         -4.5960251241922379E-002
  0.13169999999999998         -8.1154540181159973E-002
  0.13200000000000001        -0.10966886579990387     
  0.13229999999999997        -0.13373887538909912     
  0.13260000000000000        -0.14799499511718750     
  0.13290000000000002        -0.15091310441493988     
  0.13319999999999999        -0.14775276184082031     
  0.13350000000000001        -0.13462683558464050     
  0.13380000000000003        -0.11221271753311157     
  0.13410000000000000         -8.6875177919864655E-002
  0.13440000000000002         -5.6756712496280670E-002
  0.13469999999999999         -2.3127570748329163E-002
  0.13500000000000001          8.4040686488151550E-003
  0.13529999999999998          3.8984738290309906E-002
  0.13560000000000000          6.7699037492275238E-002
  0.13590000000000002          8.9963592588901520E-002
  0.13619999999999999         0.10636437684297562     
  0.13650000000000001         0.11748432368040085     
  0.13680000000000003         0.11909903585910797     
  0.13710000000000000         0.11343028396368027     
  0.13740000000000002         0.10159415751695633     
  0.13769999999999999          8.2027256488800049E-002
  0.13800000000000001          5.7336959987878799E-002
  0.13829999999999998          3.0535202473402023E-002
  0.13860000000000000          1.6967953415587544E-003
  0.13890000000000002         -2.6212077587842941E-002
  0.13919999999999999         -4.9700830131769180E-002
  0.13950000000000001         -6.8148672580718994E-002
  0.13979999999999998         -8.0887854099273682E-002
  0.14010000000000000         -8.5925489664077759E-002
  0.14040000000000002         -8.3432897925376892E-002
  0.14069999999999999         -7.5197830796241760E-002
  0.14100000000000001         -6.0554344207048416E-002
  0.14130000000000004         -4.1000999510288239E-002
  0.14160000000000000         -2.0143462345004082E-002
  0.14189999999999997          1.9081862410530448E-003
  0.14219999999999999          2.5187341496348381E-002
  0.14250000000000002          4.5174300670623779E-002
  0.14279999999999998          6.2374763190746307E-002
  0.14310000000000000          7.7759802341461182E-002
  0.14339999999999997          8.6841732263565063E-002
  0.14369999999999999          9.0748332440853119E-002
  0.14400000000000002          9.1655477881431580E-002
  0.14429999999999998          8.4838069975376129E-002
  0.14460000000000001          7.3536686599254608E-002
  0.14490000000000003          5.9314634650945663E-002
  0.14520000000000000          3.8881853222846985E-002
  0.14550000000000002          1.6207819804549217E-002
  0.14579999999999999         -6.3249180093407631E-003
  0.14610000000000001         -3.0127033591270447E-002
  0.14640000000000003         -5.1226828247308731E-002
  0.14670000000000000         -6.8368554115295410E-002
  0.14699999999999996         -8.1824429333209991E-002
  0.14729999999999999         -8.9164897799491882E-002
  0.14760000000000001         -9.0003833174705505E-002
  0.14789999999999998         -8.5465192794799805E-002
  0.14820000000000000         -7.5481876730918884E-002