  -1.4999999999999999E-002     0.0000000000000000     
  -1.4700000000000000E-002     0.0000000000000000     
  -1.4400000000000000E-002     0.0000000000000000     
  -1.4100000000000000E-002     0.0000000000000000     
  -1.3800000000000000E-002     0.0000000000000000     
  -1.3500000000000000E-002     0.0000000000000000     
  -1.3200000000000000E-002     0.0000000000000000     
  -1.2899999999999998E-002     0.0000000000000000     
  -1.2600000000000000E-002     0.0000000000000000     
  -1.2299999999999998E-002     0.0000000000000000     
  -1.2000000000000000E-002     0.0000000000000000     
  -1.1699999999999999E-002     0.0000000000000000     
  -1.1399999999999999E-002     0.0000000000000000     
  -1.1099999999999999E-002     0.0000000000000000     
  -1.0799999999999999E-002     0.0000000000000000     
  -1.0499999999999999E-002     0.0000000000000000     
  -1.0199999999999999E-002     0.0000000000000000     
  -9.8999999999999991E-003     0.0000000000000000     
  -9.5999999999999992E-003     0.0000000000000000     
  -9.2999999999999992E-003     0.0000000000000000     
  -8.9999999999999993E-003     0.0000000000000000     
  -8.6999999999999994E-003     0.0000000000000000     
  -8.3999999999999995E-003     0.0000000000000000     
  -8.0999999999999996E-003     0.0000000000000000     
  -7.7999999999999988E-003     0.0000000000000000     
  -7.4999999999999997E-003     0.0000000000000000     
  -7.1999999999999998E-003     0.0000000000000000     
  -6.8999999999999981E-003     0.0000000000000000     
  -6.5999999999999982E-003     0.0000000000000000     
  -6.3000000000000000E-003     0.0000000000000000     
  -6.0000000000000001E-003     0.0000000000000000     
  -5.6999999999999985E-003     0.0000000000000000     
  -5.3999999999999986E-003     0.0000000000000000     
  -5.1000000000000004E-003     0.0000000000000000     
  -4.7999999999999987E-003     0.0000000000000000     
  -4.5000000000000005E-003     0.0000000000000000     
  -4.1999999999999989E-003     0.0000000000000000     
  -3.8999999999999990E-003     0.0000000000000000     
  -3.5999999999999990E-003     0.0000000000000000     
  -3.2999999999999991E-003     0.0000000000000000     
  -2.9999999999999992E-003     0.0000000000000000     
  -2.6999999999999993E-003     0.0000000000000000     
  -2.3999999999999994E-003     0.0000000000000000     
  -2.0999999999999977E-003     0.0000000000000000     
  -1.7999999999999995E-003     0.0000000000000000     
  -1.4999999999999979E-003     0.0000000000000000     
  -1.1999999999999997E-003     0.0000000000000000     
  -8.9999999999999976E-004     0.0000000000000000     
  -5.9999999999999810E-004     0.0000000000000000     
  -2.9999999999999992E-004     0.0000000000000000     
   0.0000000000000000          0.0000000000000000     
   3.0000000000000165E-004     0.0000000000000000     
   5.9999999999999984E-004     0.0000000000000000     
   9.0000000000000149E-004     0.0000000000000000     
   1.2000000000000031E-003     0.0000000000000000     
   1.5000000000000013E-003     0.0000000000000000     
   1.8000000000000030E-003     0.0000000000000000     
   2.1000000000000012E-003     0.0000000000000000     
   2.3999999999999994E-003     0.0000000000000000     
   2.7000000000000010E-003     0.0000000000000000     
   2.9999999999999992E-003     0.0000000000000000     
   3.3000000000000008E-003     0.0000000000000000     
   3.6000000000000025E-003     0.0000000000000000     
   3.9000000000000007E-003     0.0000000000000000     
   4.2000000000000023E-003     0.0000000000000000     
   4.5000000000000005E-003     0.0000000000000000     
   4.7999999999999987E-003     1.7053662881635823E-037
   5.1000000000000004E-003     2.7555306763492779E-036
   5.4000000000000020E-003    -9.7681370313290282E-036
   5.7000000000000037E-003     1.1943732266738326E-035
   5.9999999999999984E-003    -4.8936130588027237E-035
   6.3000000000000000E-003     1.6687013997890475E-035
   6.6000000000000017E-003     7.2819066667653865E-034
   6.9000000000000034E-003    -1.6239161587652149E-033
   7.2000000000000015E-003     1.3505566735836902E-033
   7.5000000000000032E-003     2.1346720208145226E-033
   7.8000000000000014E-003    -7.7092750572131329E-033
   8.0999999999999996E-003     6.0380759076747959E-033
   8.4000000000000012E-003     1.0512907295703180E-032
   8.7000000000000029E-003    -3.0454625921415900E-032
   9.0000000000000011E-003     1.7340406308455993E-032
   9.2999999999999992E-003     3.9882020842283585E-032
   9.6000000000000009E-003    -4.3875892124821180E-032
   9.8999999999999991E-003    -7.9389344618573875E-032
   1.0200000000000001E-002    -1.0665406948663330E-031
   1.0500000000000002E-002     1.2641575709986725E-030
   1.0800000000000004E-002    -1.6570488842734089E-030
   1.1099999999999999E-002    -4.7122045455572967E-030
   1.1400000000000000E-002     1.9495459934632686E-029
   1.1700000000000002E-002    -1.8082371534736508E-029
   1.2000000000000004E-002    -5.2961498203692041E-029
   1.2300000000000002E-002     1.8866226647348717E-028
   1.2600000000000000E-002    -1.6079494947317726E-028
   1.2900000000000002E-002    -4.2455634290281211E-028
   1.3200000000000000E-002     1.4225503736136842E-027
   1.3500000000000002E-002    -1.1789868063133614E-027
   1.3800000000000003E-002    -2.7105297267831343E-027
   1.4100000000000001E-002     8.9214200089367704E-027
   1.4400000000000000E-002    -7.3861515205233755E-027
   1.4700000000000001E-002    -1.4713657347156965E-026
   1.4999999999999999E-002     4.7923597809229464E-026
   1.5300000000000001E-002    -3.9225791311193812E-026
   1.5600000000000003E-002    -6.9091220708410325E-026
   1.5899999999999997E-002     2.2191710965103224E-025
   1.6199999999999999E-002    -1.8011601383444627E-025
   1.6500000000000001E-002    -2.7769962037243378E-025
   1.6800000000000002E-002     8.8595530873183472E-025
   1.7100000000000004E-002    -7.2828108065455981E-025
   1.7400000000000006E-002    -8.9870239756196574E-025
   1.7700000000000000E-002     2.9970946785250583E-024
   1.8000000000000002E-002    -2.7458711376024571E-024
   1.8300000000000004E-002    -1.8204837699198406E-024
   1.8600000000000005E-002     8.4189289323147075E-024
   1.8900000000000000E-002    -1.0676370126479220E-023
   1.9200000000000002E-002     2.1778355006398055E-024
   1.9500000000000003E-002     1.9602804582422703E-023
   1.9799999999999998E-002    -4.6760593916576219E-023
   2.0100000000000000E-002     4.4657798552343919E-023
   2.0400000000000001E-002     4.6402970606975466E-023
   2.0700000000000003E-002    -2.2109735483216119E-022
   2.0999999999999998E-002     2.5877350501866880E-022
   2.1299999999999999E-002     1.9015914265426090E-022
   2.1600000000000001E-002    -9.8584056894280359E-022
   2.1900000000000003E-002     8.9558884130246753E-022
   2.2200000000000004E-002     1.3635954807907091E-021
   2.2500000000000006E-002    -3.7636927681279010E-021
   2.2800000000000001E-002    -7.1804870799386991E-022
   2.3100000000000002E-002     1.4579283999978674E-020
   2.3400000000000004E-002    -1.1501191863948430E-020
   2.3699999999999999E-002    -6.3989491999609087E-020
   2.4000000000000000E-002     1.6908140770093212E-019
   2.4300000000000002E-002     6.5414003288340642E-020
   2.4599999999999997E-002    -9.8299466107112770E-019
   2.4900000000000005E-002     1.0535032531982272E-018
   2.5200000000000000E-002     3.6982137949024850E-018
   2.5499999999999995E-002    -9.7307688567824771E-018
   2.5800000000000003E-002    -1.0363962845792998E-017
   2.6099999999999998E-002     7.2280669258329485E-017
   2.6400000000000007E-002    -4.3508982536115706E-017
   2.6700000000000002E-002    -3.4471080830608952E-016
   2.6999999999999996E-002     8.2014153921344855E-016
   2.7300000000000005E-002     1.4347668362241173E-016
   2.7600000000000000E-002    -3.4890233367441409E-015
   2.7900000000000008E-002     6.5454200412374819E-015
   2.8200000000000003E-002    -7.9149674260194818E-015
   2.8499999999999998E-002     3.1021859888769902E-015
   2.8800000000000006E-002     9.2165773445960712E-014
   2.9100000000000001E-002    -4.3438573487701118E-013
   2.9400000000000003E-002     4.4450084643420296E-013
   2.9700000000000004E-002     2.4109887422778603E-012
   3.0000000000000006E-002    -8.5510770117361939E-012
   3.0300000000000001E-002     1.9701400973651397E-012
   3.0600000000000002E-002     4.5789349761794399E-011
   3.0900000000000004E-002    -8.9291870179910041E-011
   3.1199999999999999E-002    -8.2809245348593032E-011
   3.1500000000000007E-002     5.3234859370187917E-010
   3.1800000000000002E-002    -3.7609612247245036E-010
   3.2099999999999997E-002    -1.6639367827057600E-009
   3.2400000000000005E-002     3.3485255521795341E-009
   3.2700000000000000E-002     2.3983779305227221E-009
   3.3000000000000002E-002    -1.3437604457696063E-008
   3.3300000000000003E-002     3.4630355209224871E-009
   3.3599999999999998E-002     3.6181325674851623E-008
   3.3900000000000000E-002    -3.3883199645951051E-008
   3.4200000000000001E-002    -7.9802249044746810E-008
   3.4500000000000003E-002     1.0627833814322811E-007
   3.4799999999999998E-002     2.7873023119901341E-007
   3.5099999999999999E-002     1.4032894813856639E-006
   3.5400000000000001E-002     8.1883788061117887E-006
   3.5699999999999996E-002     2.5515013107683100E-005
   3.6000000000000004E-002     4.9750740339952635E-005
   3.6299999999999999E-002     6.9936123945295910E-005
   3.6600000000000008E-002     8.3987808245422624E-005
   3.6900000000000002E-002     1.0753228155927419E-004
   3.7199999999999997E-002     1.6043282292902902E-004
   3.7500000000000006E-002     2.5288482428439171E-004
   3.7800000000000000E-002     3.8665210355320716E-004
   3.8100000000000009E-002     5.6046407845013538E-004
   3.8400000000000004E-002     7.8395952351236788E-004
   3.8699999999999998E-002     1.0911850123037081E-003
   3.9000000000000007E-002     1.5144666346109149E-003
   3.9300000000000002E-002     2.0546974710356214E-003
   3.9600000000000003E-002     2.7112324924531347E-003
   3.9900000000000005E-002     3.5002281112948980E-003
   4.0200000000000000E-002     4.4057006943675897E-003
   4.0500000000000001E-002     5.3611549929262342E-003
   4.0800000000000003E-002     6.2732618597604040E-003
   4.1100000000000005E-002     6.9965900846470919E-003
   4.1399999999999999E-002     7.2976636863410771E-003
   4.1700000000000008E-002     6.8533251611380408E-003
   4.2000000000000003E-002     5.2341822430805041E-003
   4.2299999999999997E-002     1.8876016035080101E-003
   4.2600000000000006E-002    -3.8441807273248974E-003
   4.2900000000000001E-002    -1.2700094394584081E-002
   4.3200000000000002E-002    -2.5483372290037443E-002
   4.3500000000000004E-002    -4.3007061213036435E-002
   4.3799999999999999E-002    -6.5970798705271783E-002
   4.4100000000000000E-002    -9.4822803706416048E-002
   4.4400000000000002E-002   -0.12965598711678616     
   4.4700000000000004E-002   -0.17005853506721280     
   4.4999999999999998E-002   -0.21491019975845926     
   4.5300000000000000E-002   -0.26226021990363169     
   4.5600000000000002E-002   -0.30924280130645343     
   4.5899999999999996E-002   -0.35201435839433692     
   4.6200000000000005E-002   -0.38582979861135946     
   4.6500000000000000E-002   -0.40521150902467618     
   4.6799999999999994E-002   -0.40425129450652975     
   4.7100000000000003E-002   -0.37705799302544207     
   4.7399999999999998E-002   -0.31829907176991590     
   4.7700000000000006E-002   -0.22374831976616250     
   4.8000000000000001E-002    -9.1035972372112361E-002
   4.8300000000000010E-002     7.9756640454916372E-002
   4.8600000000000004E-002    0.28560319613962237     
   4.8899999999999999E-002    0.52024436471281010     
   4.9200000000000008E-002    0.77408828846967559     
   4.9500000000000002E-002     1.0344867276171499     
   4.9800000000000011E-002     1.2862897290589537     
   5.0100000000000006E-002     1.5127460204236982     
   5.0400000000000000E-002     1.6966933630635381     
   5.0700000000000009E-002     1.8218813172272093     
   5.1000000000000004E-002     1.8743949704062075     
   5.1299999999999998E-002     1.8440738469103763     
   5.1600000000000007E-002     1.7255952828008176     
   5.1900000000000002E-002     1.5192424364408197     
   5.2200000000000010E-002     1.2313787553740596     
   5.2500000000000005E-002    0.87418086874426848     
   5.2800000000000000E-002    0.46499577330743058     
   5.3099999999999994E-002     2.5226431726196097E-002
   5.3400000000000003E-002   -0.42141024869068655     
   5.3699999999999998E-002   -0.85044160042580863     
   5.4000000000000006E-002    -1.2385931734784137     
   5.4300000000000001E-002    -1.5661217496892021     
   5.4599999999999996E-002    -1.8175402397800866     
   5.4900000000000004E-002    -1.9831582291996810     
   5.5199999999999999E-002    -2.0601202817092457     
   5.5499999999999994E-002    -2.0516467140847965     
   5.5800000000000002E-002    -1.9672155454886209     
   5.6099999999999997E-002    -1.8214754352697824     
   5.6400000000000006E-002    -1.6322642765468629     
   5.6700000000000000E-002    -1.4197032612577303     
   5.6999999999999995E-002    -1.2040653687681626     
   5.7300000000000004E-002    -1.0037045232484658     
   5.7599999999999998E-002   -0.83419500829571902     
   5.7900000000000007E-002   -0.70654118980045411     
   5.8200000000000002E-002   -0.62653997766074099     
   5.8499999999999996E-002   -0.59470083475529734     
   5.8800000000000005E-002   -0.60585738335643669     
   5.9100000000000000E-002   -0.65029021353176830     
   5.9400000000000008E-002   -0.71455900781809589     
   5.9700000000000003E-002   -0.78254294114073986     
   6.0000000000000012E-002   -0.83731614961999057     
   6.0300000000000006E-002   -0.86235900893606399     
   6.0600000000000001E-002   -0.84310520258196320     
   6.0900000000000010E-002   -0.76848231475209516     
   6.1200000000000004E-002   -0.63151658065824634     
   6.1500000000000013E-002   -0.43013417548939081     
   6.1800000000000008E-002   -0.16767685439434832     
   6.2100000000000002E-002    0.14766685376269706     
   6.2399999999999997E-002    0.50338065604289817     
   6.2700000000000006E-002    0.88323344536137860     
   6.3000000000000000E-002     1.2686912157154673     
   6.3300000000000009E-002     1.6402218531353512     
   6.3600000000000004E-002     1.9785506538765318     
   6.3899999999999998E-002     2.2661007865081402     
   6.4199999999999993E-002     2.4879146973242570     
   6.4500000000000002E-002     2.6326608438083952     
   6.4800000000000010E-002     2.6932819512111763     
   6.5100000000000005E-002     2.6668553213755786     
   6.5400000000000000E-002     2.5548232823028627     
   6.5700000000000008E-002     2.3625812940208846     
   6.5999999999999989E-002     2.0986542997211330     
   6.6299999999999998E-002     1.7743739033355297     
   6.6600000000000006E-002     1.4026434742979603     
   6.6900000000000001E-002    0.99743929408241172     
   6.7199999999999996E-002    0.57327188312881106     
   6.7500000000000004E-002    0.14421496454797766     
   6.7800000000000013E-002   -0.27638852116424140     
   6.8099999999999994E-002   -0.67591970640962717     
   6.8400000000000002E-002    -1.0432559108727215     
   6.8700000000000011E-002    -1.3686003169386716     
   6.8999999999999992E-002    -1.6433536361029866     
   6.9300000000000000E-002    -1.8607957256728014     
   6.9600000000000009E-002    -2.0155950360677650     
   6.9900000000000004E-002    -2.1039231477374756     
   7.0199999999999999E-002    -2.1241157457440778     
   7.0500000000000007E-002    -2.0760461899946421     
   7.0800000000000016E-002    -1.9617073909149738     
   7.1099999999999997E-002    -1.7852764572905073     
   7.1400000000000005E-002    -1.5527324637852900     
   7.1700000000000000E-002    -1.2723671256160074     
   7.1999999999999995E-002   -0.95449319236282193     
   7.2300000000000003E-002   -0.61079709789447278     
   7.2600000000000012E-002   -0.25472902149582310     
   7.2900000000000006E-002     9.9390495798704848E-002
   7.3200000000000001E-002    0.43705026499371691     
   7.3499999999999996E-002    0.74360171466882274     
   7.3800000000000004E-002     1.0054357752955418     
   7.4099999999999999E-002     1.2106839732620784     
   7.4400000000000008E-002     1.3495348623510637     
   7.4700000000000003E-002     1.4153969660233869     
   7.5000000000000011E-002     1.4050963737375284     
   7.5299999999999992E-002     1.3191458871187720     
   7.5600000000000001E-002     1.1623915029102605     
   7.5900000000000009E-002    0.94355878125132264     
   7.6200000000000004E-002    0.67492828449071851     
   7.6499999999999999E-002    0.37190308734536792     
   7.6800000000000007E-002     5.2455614236719406E-002
   7.7099999999999988E-002   -0.26405360010491741     
   7.7399999999999997E-002   -0.55806960647863857     
   7.7700000000000005E-002   -0.81065525825863194     
   7.8000000000000014E-002    -1.0046180270544163     
   7.8299999999999995E-002    -1.1259683687847364     
   7.8600000000000003E-002    -1.1642479189117410     
   7.8900000000000012E-002    -1.1135890858562050     
   7.9199999999999993E-002   -0.97342922697708545     
   7.9500000000000001E-002   -0.74820975015990854     
   7.9800000000000010E-002   -0.44772559753924490     
   8.0100000000000018E-002    -8.6898603281913456E-002
   8.0399999999999999E-002    0.31533870251220364     
   8.0700000000000008E-002    0.73641905094185667     
   8.1000000000000003E-002     1.1516540764974721     
   8.1299999999999997E-002     1.5356197128763860     
   8.1600000000000006E-002     1.8633571184811935     
   8.1900000000000014E-002     2.1124244196868318     
   8.2199999999999995E-002     2.2643293595708229     
   8.2500000000000004E-002     2.3056106141478097     
   8.2799999999999999E-002     2.2295608474178152     
   8.3100000000000007E-002     2.0367422133076474     
   8.3400000000000002E-002     1.7351988742928626     
   8.3700000000000011E-002     1.3403610827471937     
   8.4000000000000005E-002    0.87420872419579965     
   8.4300000000000000E-002    0.36406450362728560     
   8.4599999999999995E-002   -0.15951302918143995     
   8.4900000000000003E-002   -0.66457500505445921     
   8.5199999999999998E-002    -1.1200653773365090     
   8.5500000000000007E-002    -1.4985864856465945     
   8.5800000000000001E-002    -1.7776693874127218     
   8.6100000000000010E-002    -1.9421174863100461     
   8.6399999999999991E-002    -1.9851541621926785     
   8.6699999999999999E-002    -1.9080823142405947     
   8.7000000000000008E-002    -1.7211426876485305     
   8.7300000000000003E-002    -1.4421189756525976     
   8.7599999999999997E-002    -1.0944495467647783     
   8.7900000000000006E-002   -0.70650669292832902     
   8.8200000000000014E-002   -0.30870957221425499     
   8.8499999999999995E-002     6.8836867234924881E-002
   8.8800000000000004E-002    0.39750860323405135     
   8.9100000000000013E-002    0.65285448547102021     
   8.9399999999999993E-002    0.81575799916881131     
   8.9700000000000002E-002    0.87306999742858693     
   9.0000000000000011E-002    0.81908618334875882     
   9.0299999999999991E-002    0.65507181310477591     
   9.0600000000000000E-002    0.38906995335618610     
   9.0900000000000009E-002     3.6014946170609186E-002
   9.1200000000000017E-002   -0.38393789539224166     
   9.1499999999999998E-002   -0.84577115333546704     
   9.1800000000000007E-002    -1.3209395972653901     
   9.2100000000000001E-002    -1.7794449214077446     
   9.2399999999999996E-002    -2.1905874428496190     
   9.2700000000000005E-002    -2.5248921881305861     
   9.3000000000000013E-002    -2.7562865302076176     
   9.3300000000000008E-002    -2.8631077920511245     
   9.3600000000000003E-002    -2.8300888826463080     
   9.3899999999999997E-002    -2.6496714596461715     
   9.4200000000000006E-002    -2.3225912791696857     
   9.4500000000000001E-002    -1.8589331160791218     
   9.4800000000000009E-002    -1.2774771135829255     
   9.5100000000000004E-002   -0.60527937137023180     
   9.5399999999999999E-002    0.12350707523055959     
   9.5699999999999993E-002    0.86992240743570903     
   9.6000000000000002E-002     1.5920245396183610     
   9.6300000000000011E-002     2.2476595961389574     
   9.6600000000000005E-002     2.7974167739112019     
   9.6900000000000000E-002     3.2064312100662704     
   9.7200000000000009E-002     3.4475298182301941     
   9.7499999999999989E-002     3.5023493341742693     
   9.7799999999999998E-002     3.3628123461629684     
   9.8100000000000007E-002     3.0317527938247366     
   9.8400000000000015E-002     2.5226166438869200     
   9.8699999999999996E-002     1.8589847198865357     
   9.9000000000000005E-002     1.0732045523908269     
   9.9300000000000013E-002    0.20463830744173972     
   9.9599999999999994E-002   -0.70158035007610664     
   9.9900000000000003E-002    -1.5976271837245761     
  0.10020000000000001         -2.4348299302877017     
  0.10049999999999999         -3.1653321409072586     
  0.10080000000000000         -3.7455817890553860     
  0.10110000000000001         -4.1375235769624794     
  0.10140000000000000         -4.3107269371974297     
  0.10170000000000000         -4.2451467128393716     
  0.10200000000000001         -3.9315326666482235     
  0.10230000000000002         -3.3730271669106173     
  0.10260000000000000         -2.5866872367928266     
  0.10290000000000001         -1.6019634593763570     
  0.10320000000000000        -0.46092977807111168     
  0.10350000000000001         0.78289436012921954     
  0.10380000000000000          2.0685704111551360     
  0.10410000000000001          3.3298955981743816     
  0.10440000000000001          4.4991448875149338     
  0.10470000000000000          5.5125743820096602     
  0.10500000000000000          6.3140787698580709     
  0.10530000000000000          6.8595953742998717     
  0.10560000000000000          7.1208626023218073     
  0.10590000000000001          7.0874240827577921     
  0.10620000000000000          6.7683180849683424     
  0.10650000000000001          6.1911958843980130     
  0.10679999999999999          5.4006508595477953     
  0.10710000000000000          4.4544077883012960     
  0.10740000000000001          3.4191112582417702     
  0.10770000000000000          2.3643944412386304     
  0.10800000000000000          1.3572389222422920     
  0.10830000000000001         0.45645873050872221     
  0.10859999999999999        -0.29214011238881454     
  0.10890000000000000        -0.85934140024312455     
  0.10920000000000001         -1.2336922812208897     
  0.10950000000000001         -1.4225024470293821     
  0.10979999999999999         -1.4498802277314837     
  0.11009999999999999         -1.3524993741522415     
  0.11040000000000001         -1.1767409900039958     
  0.11070000000000001        -0.97248143839518164     
  0.11100000000000000        -0.78779524827975322     
  0.11130000000000000        -0.66492369859412292     
  0.11160000000000002        -0.63609969410824263     
  0.11190000000000001        -0.72050599122621151     
  0.11220000000000001        -0.92476578601818105     
  0.11250000000000000         -1.2421214863188137     
  0.11280000000000000         -1.6546188485210678     
  0.11309999999999999         -2.1370895822260714     
  0.11340000000000001         -2.6591799013763833     
  0.11369999999999998         -3.1897489766660456     
  0.11400000000000000         -3.7002458485762872     
  0.11430000000000000         -4.1663564828125743     
  0.11460000000000002         -4.5699900732531518     
  0.11489999999999999         -4.8999896378260246     
  0.11520000000000001         -5.1502426671798673     
  0.11550000000000001         -5.3194315030342239     
  0.11580000000000000         -5.4093192586846612     
  0.11609999999999999         -5.4213292408449831     
  0.11640000000000002         -5.3569667675281210     
  0.11670000000000001         -5.2157325698409807     
  0.11700000000000001         -4.9943809847193279     
  0.11730000000000000         -4.6891500684566552     
  0.11760000000000000         -4.2957176395092631     
  0.11789999999999999         -3.8106548720640490     
  0.11820000000000001         -3.2355569801188864     
  0.11850000000000001         -2.5759807306888263     
  0.11880000000000000         -1.8439229231633192     
  0.11910000000000000         -1.0592113598104795     
  0.11940000000000002        -0.24732152304945920     
  0.11970000000000001         0.56149910751524601     
  0.12000000000000001          1.3329638098865288     
  0.12030000000000000          2.0334515156413460     
  0.12060000000000000          2.6321289214421464     
  0.12089999999999999          3.1026540242655933     
  0.12119999999999999          3.4277483899723364     
  0.12150000000000001          3.5992328475563156     
  0.12180000000000001          3.6185061019551199     
  0.12210000000000000          3.4982636643986496     
  0.12239999999999999          3.2602972587652488     
  0.12270000000000002          2.9326508108274538     
  0.12300000000000001          2.5501556448852369     
  0.12330000000000001          2.1483795196389721     
  0.12360000000000000          1.7630000061879301     
  0.12390000000000000          1.4274926676467814     
  0.12419999999999999          1.1686846152275692     
  0.12450000000000001          1.0069790318612988     
  0.12480000000000001         0.95472298494068397     
  0.12509999999999999          1.0144346006349494     
  0.12540000000000001          1.1801289893111786     
  0.12570000000000003          1.4370856614361145     
  0.12600000000000000          1.7629760868588065     
  0.12630000000000002          2.1295041530736967     
  0.12659999999999999          2.5035276407121358     
  0.12690000000000001          2.8505197314171156     
  0.12719999999999998          3.1355266648056315     
  0.12750000000000000          3.3263566192401015     
  0.12780000000000002          3.3973342511623770     
  0.12809999999999999          3.3293766845274035     
  0.12840000000000001          3.1139889502061777     
  0.12869999999999998          2.7551837585805714     
  0.12900000000000000          2.2675308684348607     
  0.12930000000000003          1.6792448672416498     
  0.12959999999999999          1.0285872483357927     
  0.12990000000000002         0.36077919264628466     
  0.13019999999999998        -0.27381184032240569     
  0.13050000000000000        -0.82720488287581517     
  0.13080000000000003         -1.2581808391729616     
  0.13109999999999999         -1.5366175633746302     
  0.13140000000000002         -1.6506619938103526     
  0.13169999999999998         -1.6075755601890336     
  0.13200000000000001         -1.4353892146065448     
  0.13229999999999997         -1.1829749106541243     
  0.13260000000000000        -0.91244610542867122     
  0.13290000000000002        -0.69464362258788270     
  0.13319999999999999        -0.59966569305079531     
  0.13350000000000001        -0.68438989995911470     
  0.13380000000000003        -0.98501545918890798     
  0.13410000000000000         -1.5070141190862039     
  0.13440000000000002         -2.2182814049916608     
  0.13469999999999999         -3.0500233695858370     
  0.13500000000000001         -3.8973016854076050     
  0.13529999999999998         -4.6287767831274920     
  0.13560000000000000         -5.1005836337998929     
  0.13590000000000002         -5.1709398987562913     
  0.13619999999999999         -4.7202052827748373     
  0.13650000000000001         -3.6694617988667275     
  0.13680000000000003         -1.9939476870488058     
  0.13710000000000000         0.26321808568413019     
  0.13740000000000002          2.9885734024166482     
  0.13769999999999999          6.0018683999246036     
  0.13800000000000001          9.0659821976111061     
  0.13829999999999998          11.907534578903380     
  0.13860000000000000          14.240395921171910     
  0.13890000000000002          15.792965301255862     
  0.13919999999999999          16.338001249529839     
  0.13950000000000001          15.716692738783074     
  0.13979999999999998          13.859463997948865     
  0.14010000000000000          10.798896534788497     
  0.14040000000000002          6.6706363371334447     
  0.14069999999999999          1.7084647030168014     
  0.14100000000000001         -3.7743021666256595     
  0.14130000000000004         -9.4089386792971368     
  0.14160000000000000         -14.800435795957924     
  0.14189999999999997         -19.561964930224690     
  0.14219999999999999         -23.345152566361946     
  0.14250000000000002         -25.868339833677624     
  0.14279999999999998         -26.939881603828084     
  0.14310000000000000         -26.468817565711731     
  0.14339999999999997         -24.471197815377877     
  0.14369999999999999         -21.067363005337540     
  0.14400000000000002         -16.464045375353692     
  0.14429999999999998         -10.942237246524797     
  0.14460000000000001         -4.8313598711884396     
  0.14490000000000003          1.5171823403931910     
  0.14520000000000000          7.7480668118643052     
  0.14550000000000002          13.529832645267106     
  0.14579999999999999          18.571239056447325     
  0.14610000000000001          22.631615888865895     
  0.14640000000000003          25.535130688527431     
  0.14670000000000000          27.172887012705928     
  0.14699999999999996          27.500754957203867     
  0.14729999999999999          26.542352064255113     
  0.14760000000000001          24.378425964460064     
  0.14789999999999998          21.139865057248585     
  0.14820000000000000          17.001497957906054     