  -1.4999999999999999E-002     0.0000000000000000     
  -1.4700000000000000E-002     0.0000000000000000     
  -1.4400000000000000E-002     0.0000000000000000     
  -1.4100000000000000E-002     0.0000000000000000     
  -1.3800000000000000E-002     0.0000000000000000     
  -1.3500000000000000E-002     0.0000000000000000     
  -1.3200000000000000E-002     0.0000000000000000     
  -1.2899999999999998E-002     0.0000000000000000     
  -1.2600000000000000E-002     0.0000000000000000     
  -1.2299999999999998E-002     0.0000000000000000     
  -1.2000000000000000E-002     0.0000000000000000     
  -1.1699999999999999E-002     0.0000000000000000     
  -1.1399999999999999E-002     0.0000000000000000     
  -1.1099999999999999E-002     0.0000000000000000     
  -1.0799999999999999E-002     0.0000000000000000     
  -1.0499999999999999E-002     0.0000000000000000     
  -1.0199999999999999E-002     0.0000000000000000     
  -9.8999999999999991E-003     0.0000000000000000     
  -9.5999999999999992E-003     0.0000000000000000     
  -9.2999999999999992E-003     0.0000000000000000     
  -8.9999999999999993E-003     0.0000000000000000     
  -8.6999999999999994E-003     0.0000000000000000     
  -8.3999999999999995E-003     0.0000000000000000     
  -8.0999999999999996E-003     0.0000000000000000     
  -7.7999999999999988E-003     0.0000000000000000     
  -7.4999999999999997E-003     0.0000000000000000     
  -7.1999999999999998E-003     0.0000000000000000     
  -6.8999999999999981E-003     0.0000000000000000     
  -6.5999999999999982E-003     0.0000000000000000     
  -6.3000000000000000E-003     0.0000000000000000     
  -6.0000000000000001E-003     0.0000000000000000     
  -5.6999999999999985E-003     0.0000000000000000     
  -5.3999999999999986E-003     0.0000000000000000     
  -5.1000000000000004E-003     0.0000000000000000     
  -4.7999999999999987E-003     0.0000000000000000     
  -4.5000000000000005E-003     0.0000000000000000     
  -4.1999999999999989E-003     0.0000000000000000     
  -3.8999999999999990E-003     0.0000000000000000     
  -3.5999999999999990E-003     0.0000000000000000     
  -3.2999999999999991E-003     0.0000000000000000     
  -2.9999999999999992E-003     0.0000000000000000     
  -2.6999999999999993E-003     0.0000000000000000     
  -2.3999999999999994E-003     0.0000000000000000     
  -2.0999999999999977E-003     0.0000000000000000     
  -1.7999999999999995E-003     0.0000000000000000     
  -1.4999999999999979E-003     0.0000000000000000     
  -1.1999999999999997E-003     0.0000000000000000     
  -8.9999999999999976E-004     0.0000000000000000     
  -5.9999999999999810E-004     0.0000000000000000     
  -2.9999999999999992E-004     0.0000000000000000     
   0.0000000000000000          0.0000000000000000     
   3.0000000000000165E-004     0.0000000000000000     
   5.9999999999999984E-004     0.0000000000000000     
   9.0000000000000149E-004     0.0000000000000000     
   1.2000000000000031E-003     0.0000000000000000     
   1.5000000000000013E-003     0.0000000000000000     
   1.8000000000000030E-003     0.0000000000000000     
   2.1000000000000012E-003     0.0000000000000000     
   2.3999999999999994E-003     0.0000000000000000     
   2.7000000000000010E-003     0.0000000000000000     
   2.9999999999999992E-003     0.0000000000000000     
   3.3000000000000008E-003     0.0000000000000000     
   3.6000000000000025E-003     0.0000000000000000     
   3.9000000000000007E-003     0.0000000000000000     
   4.2000000000000023E-003     0.0000000000000000     
   4.5000000000000005E-003     0.0000000000000000     
   4.7999999999999987E-003     0.0000000000000000     
   5.1000000000000004E-003     0.0000000000000000     
   5.4000000000000020E-003     0.0000000000000000     
   5.7000000000000037E-003     0.0000000000000000     
   5.9999999999999984E-003     0.0000000000000000     
   6.3000000000000000E-003     0.0000000000000000     
   6.6000000000000017E-003     0.0000000000000000     
   6.9000000000000034E-003     0.0000000000000000     
   7.2000000000000015E-003     0.0000000000000000     
   7.5000000000000032E-003     0.0000000000000000     
   7.8000000000000014E-003     0.0000000000000000     
   8.0999999999999996E-003     0.0000000000000000     
   8.4000000000000012E-003     0.0000000000000000     
   8.7000000000000029E-003     0.0000000000000000     
   9.0000000000000011E-003     0.0000000000000000     
   9.2999999999999992E-003     0.0000000000000000     
   9.6000000000000009E-003     0.0000000000000000     
   9.8999999999999991E-003     0.0000000000000000     
   1.0200000000000001E-002     0.0000000000000000     
   1.0500000000000002E-002     0.0000000000000000     
   1.0800000000000004E-002     0.0000000000000000     
   1.1099999999999999E-002     0.0000000000000000     
   1.1400000000000000E-002     0.0000000000000000     
   1.1700000000000002E-002     0.0000000000000000     
   1.2000000000000004E-002     0.0000000000000000     
   1.2300000000000002E-002     0.0000000000000000     
   1.2600000000000000E-002     0.0000000000000000     
   1.2900000000000002E-002     0.0000000000000000     
   1.3200000000000000E-002     0.0000000000000000     
   1.3500000000000002E-002     0.0000000000000000     
   1.3800000000000003E-002     0.0000000000000000     
   1.4100000000000001E-002     0.0000000000000000     
   1.4400000000000000E-002     0.0000000000000000     
   1.4700000000000001E-002     0.0000000000000000     
   1.4999999999999999E-002     0.0000000000000000     
   1.5300000000000001E-002     0.0000000000000000     
   1.5600000000000003E-002     0.0000000000000000     
   1.5899999999999997E-002     0.0000000000000000     
   1.6199999999999999E-002     0.0000000000000000     
   1.6500000000000001E-002     0.0000000000000000     
   1.6800000000000002E-002     0.0000000000000000     
   1.7100000000000004E-002     0.0000000000000000     
   1.7400000000000006E-002     0.0000000000000000     
   1.7700000000000000E-002     0.0000000000000000     
   1.8000000000000002E-002     0.0000000000000000     
   1.8300000000000004E-002     0.0000000000000000     
   1.8600000000000005E-002     0.0000000000000000     
   1.8900000000000000E-002     0.0000000000000000     
   1.9200000000000002E-002     0.0000000000000000     
   1.9500000000000003E-002     0.0000000000000000     
   1.9799999999999998E-002     0.0000000000000000     
   2.0100000000000000E-002     0.0000000000000000     
   2.0400000000000001E-002     0.0000000000000000     
   2.0700000000000003E-002     0.0000000000000000     
   2.0999999999999998E-002     0.0000000000000000     
   2.1299999999999999E-002     0.0000000000000000     
   2.1600000000000001E-002     0.0000000000000000     
   2.1900000000000003E-002     0.0000000000000000     
   2.2200000000000004E-002     0.0000000000000000     
   2.2500000000000006E-002     0.0000000000000000     
   2.2800000000000001E-002     0.0000000000000000     
   2.3100000000000002E-002     0.0000000000000000     
   2.3400000000000004E-002     0.0000000000000000     
   2.3699999999999999E-002     0.0000000000000000     
   2.4000000000000000E-002     0.0000000000000000     
   2.4300000000000002E-002     0.0000000000000000     
   2.4599999999999997E-002     0.0000000000000000     
   2.4900000000000005E-002     0.0000000000000000     
   2.5200000000000000E-002     0.0000000000000000     
   2.5499999999999995E-002     0.0000000000000000     
   2.5800000000000003E-002     0.0000000000000000     
   2.6099999999999998E-002     0.0000000000000000     
   2.6400000000000007E-002     0.0000000000000000     
   2.6700000000000002E-002     0.0000000000000000     
   2.6999999999999996E-002     0.0000000000000000     
   2.7300000000000005E-002     0.0000000000000000     
   2.7600000000000000E-002     0.0000000000000000     
   2.7900000000000008E-002     0.0000000000000000     
   2.8200000000000003E-002     0.0000000000000000     
   2.8499999999999998E-002     0.0000000000000000     
   2.8800000000000006E-002     0.0000000000000000     
   2.9100000000000001E-002     3.9749004528037308E-039
   2.9400000000000003E-002    -4.2437104862413122E-037
   2.9700000000000004E-002    -4.7220783891077570E-037
   3.0000000000000006E-002    -1.2999910764571199E-035
   3.0300000000000001E-002     1.4288986829915869E-034
   3.0600000000000002E-002    -4.7823822288137169E-034
   3.0900000000000004E-002     8.0163776653428937E-034
   3.1199999999999999E-002    -1.9927056531315044E-033
   3.1500000000000007E-002    -2.2028428167882133E-033
   3.1800000000000002E-002     5.9473345332788392E-032
   3.2099999999999997E-002    -4.1502483168790097E-031
   3.2400000000000005E-002     2.0057128193049082E-030
   3.2700000000000000E-002    -7.4193582637137091E-030
   3.3000000000000002E-002     2.0063947354173326E-029
   3.3300000000000003E-002    -2.6225359892937342E-029
   3.3599999999999998E-002    -1.0225216731699562E-028
   3.3900000000000000E-002     9.6441740318224005E-028
   3.4200000000000001E-002    -4.5754512523964721E-027
   3.4500000000000003E-002     1.5885712136204956E-026
   3.4799999999999998E-002    -4.1786439340359870E-026
   3.5099999999999999E-002     7.2508350437571664E-026
   3.5400000000000001E-002     1.1866584229409073E-027
   3.5699999999999996E-002    -6.2914861130221730E-025
   3.6000000000000004E-002     3.0469890317192358E-024
   3.6299999999999999E-002    -9.3134872624808403E-024
   3.6600000000000008E-002     1.8618932402756801E-023
   3.6900000000000002E-002    -9.5869736596798296E-024
   3.7199999999999997E-002    -1.1047901880674354E-022
   3.7500000000000006E-002     5.9062561301848039E-022
   3.7800000000000000E-002    -1.8133031606775612E-021
   3.8100000000000009E-002     3.5678607361262335E-021
   3.8400000000000004E-002    -2.2522107488949750E-021
   3.8699999999999998E-002    -1.5278048414367187E-020
   3.9000000000000007E-002     7.7417713416744492E-020
   3.9300000000000002E-002    -2.1264917572110846E-019
   3.9600000000000003E-002     3.6754618796378112E-019
   3.9900000000000005E-002    -2.1936482409918282E-019
   4.0200000000000000E-002    -1.0198866565105982E-018
   4.0500000000000001E-002     4.4354774318745687E-018
   4.0800000000000003E-002    -1.0590168180638443E-017
   4.1100000000000005E-002     1.9414815306012925E-017
   4.1399999999999999E-002    -3.4704059678127012E-017
   4.1700000000000008E-002     6.8554858236095787E-017
   4.2000000000000003E-002    -8.7774704206163143E-017
   4.2299999999999997E-002    -2.7154359326807069E-016
   4.2600000000000006E-002     2.3646846492156541E-015
   4.2900000000000001E-002    -8.6488125057579925E-015
   4.3200000000000002E-002     1.7621182825363563E-014
   4.3500000000000004E-002    -3.8564317350516687E-015
   4.3799999999999999E-002    -1.1625160967216691E-013
   4.4100000000000000E-002     4.5589823430949198E-013
   4.4400000000000002E-002    -8.0079911103041375E-013
   4.4700000000000004E-002    -3.9462327224977841E-013
   4.4999999999999998E-002     6.6837120695231285E-012
   4.5300000000000000E-002    -1.8399619691393049E-011
   4.5600000000000002E-002     1.1643534207354595E-011
   4.5899999999999996E-002     8.5400492940032796E-011
   4.6200000000000005E-002    -3.0670705839149664E-010
   4.6500000000000000E-002     2.5138661877666577E-010
   4.6799999999999994E-002     1.2928233789816156E-009
   4.7100000000000003E-002    -4.4166573659098611E-009
   4.7399999999999998E-002     1.3341382074682150E-009
   4.7700000000000006E-002     2.3499375822787716E-008
   4.8000000000000001E-002    -4.6755779658784869E-008
   4.8300000000000010E-002    -6.8248742632407962E-008
   4.8600000000000004E-002     3.3021734189295562E-007
   4.8899999999999999E-002     2.6109595588190505E-008
   4.9200000000000008E-002    -1.8321902165094260E-006
   4.9500000000000002E-002     1.3603438022917611E-006
   4.9800000000000011E-002     1.8335136713875375E-005
   5.0100000000000006E-002     4.1620058889628008E-005
   5.0400000000000000E-002     5.7124123999434829E-005
   5.0700000000000009E-002     7.4023120525572913E-005
   5.1000000000000004E-002     1.1096608204665213E-004
   5.1299999999999998E-002     1.6705984534888443E-004
   5.1600000000000007E-002     2.4372841262860958E-004
   5.1900000000000002E-002     3.6000710904273044E-004
   5.2200000000000010E-002     5.3015588379439274E-004
   5.2500000000000005E-002     7.7345774681327958E-004
   5.2800000000000000E-002     1.1239063361319843E-003
   5.3099999999999994E-002     1.5987217436103998E-003
   5.3400000000000003E-002     2.2121233993235428E-003
   5.3699999999999998E-002     3.0144253655142589E-003
   5.4000000000000006E-002     4.0550574316335769E-003
   5.4300000000000001E-002     5.3336024773615320E-003
   5.4599999999999996E-002     6.8259068582240956E-003
   5.4900000000000004E-002     8.5189240374259345E-003
   5.5199999999999999E-002     1.0356901879524150E-002
   5.5499999999999994E-002     1.2164192937688501E-002
   5.5800000000000002E-002     1.3682823880875439E-002
   5.6099999999999997E-002     1.4607180014628185E-002
   5.6400000000000006E-002     1.4473236633839703E-002
   5.6700000000000000E-002     1.2616846851468938E-002
   5.6999999999999995E-002     8.2750229932431474E-003
   5.7300000000000004E-002     5.8879602717500090E-004
   5.7599999999999998E-002    -1.1422365428653991E-002
   5.7900000000000007E-002    -2.8761199068543797E-002
   5.8200000000000002E-002    -5.2328040284748134E-002
   5.8499999999999996E-002    -8.2796135205881694E-002
   5.8800000000000005E-002   -0.12045130908023527     
   5.9100000000000000E-002   -0.16500796775357252     
   5.9400000000000008E-002   -0.21541790643037384     
   5.9700000000000003E-002   -0.26969961563889555     
   6.0000000000000012E-002   -0.32479640660970510     
   6.0300000000000006E-002   -0.37651850655583452     
   6.0600000000000001E-002   -0.41966116966589162     
   6.0900000000000010E-002   -0.44817647155663209     
   6.1200000000000004E-002   -0.45539901615063094     
   6.1500000000000013E-002   -0.43458856033621274     
   6.1800000000000008E-002   -0.37960132930136048     
   6.2100000000000002E-002   -0.28553147120547218     
   6.2399999999999997E-002   -0.14940643039003465     
   6.2700000000000006E-002     2.9095787242858218E-002
   6.3000000000000000E-002    0.24705276204200288     
   6.3300000000000009E-002    0.49792108902281740     
   6.3600000000000004E-002    0.77147533352891173     
   6.3899999999999998E-002     1.0540311189029055     
   6.4199999999999993E-002     1.3291568857604972     
   6.4500000000000002E-002     1.5785361700393352     
   6.4800000000000010E-002     1.7831663298116638     
   6.5100000000000005E-002     1.9249958258014317     
   6.5400000000000000E-002     1.9883393176173882     
   6.5700000000000008E-002     1.9612706383663081     
   6.5999999999999989E-002     1.8369713028760017     
   6.6299999999999998E-002     1.6146304041098105     
   6.6600000000000006E-002     1.2997999467885748     
   6.6900000000000001E-002    0.90429008286640489     
   6.7199999999999996E-002    0.44564005036099008     
   6.7500000000000004E-002    -5.3977370880605613E-002
   6.7800000000000013E-002   -0.56929411643646155     
   6.8099999999999994E-002    -1.0735983957696291     
   6.8400000000000002E-002    -1.5406270264514461     
   6.8700000000000011E-002    -1.9463260226996653     
   6.8999999999999992E-002    -2.2704534690412288     
   6.9300000000000000E-002    -2.4978732253304088     
   6.9600000000000009E-002    -2.6192991267444086     
   6.9900000000000004E-002    -2.6318898802880000     
   7.0199999999999999E-002    -2.5391080317262293     
   7.0500000000000007E-002    -2.3502131964939537     
   7.0800000000000016E-002    -2.0797498327328157     
   7.1099999999999997E-002    -1.7460824294489896     
   7.1400000000000005E-002    -1.3701783267100964     
   7.1700000000000000E-002   -0.97457604678865906     
   7.1999999999999995E-002   -0.58152821630271045     
   7.2300000000000003E-002   -0.21179300112480703     
   7.2600000000000012E-002    0.11635793974027742     
   7.2900000000000006E-002    0.38851940443643329     
   7.3200000000000001E-002    0.59457642084705498     
   7.3499999999999996E-002    0.72920826942315742     
   7.3800000000000004E-002    0.79228586703082726     
   7.4099999999999999E-002    0.78828658455488210     
   7.4400000000000008E-002    0.72591366073539376     
   7.4700000000000003E-002    0.61739069305255612     
   7.5000000000000011E-002    0.47720924716971247     
   7.5299999999999992E-002    0.32118807845304165     
   7.5600000000000001E-002    0.16516179937044217     
   7.5900000000000009E-002     2.3626240668507936E-002
   7.6200000000000004E-002    -9.0888065347090929E-002
   7.6499999999999999E-002   -0.16869519203150496     
   7.6800000000000007E-002   -0.20380517920979280     
   7.7099999999999988E-002   -0.19368050251294200     
   7.7399999999999997E-002   -0.13912665675430391     
   7.7700000000000005E-002    -4.4197947173534535E-002
   7.8000000000000014E-002     8.4690570633128903E-002
   7.8299999999999995E-002    0.23939677585081665     
   7.8600000000000003E-002    0.41056165117756294     
   7.8900000000000012E-002    0.58879312529115424     
   7.9199999999999993E-002    0.76489248819583366     
   7.9500000000000001E-002    0.93026239614009754     
   7.9800000000000010E-002     1.0776953566837335     
   8.0100000000000018E-002     1.2010195045558945     
   8.0399999999999999E-002     1.2951513299733506     
   8.0700000000000008E-002     1.3565114141011634     
   8.1000000000000003E-002     1.3823462564270912     
   8.1299999999999997E-002     1.3708838003496595     
   8.1600000000000006E-002     1.3217396654687903     
   8.1900000000000014E-002     1.2351756053988510     
   8.2199999999999995E-002     1.1125721170320908     
   8.2500000000000004E-002    0.95702265458644931     
   8.2799999999999999E-002    0.77267816990554294     
   8.3100000000000007E-002    0.56525559607186437     
   8.3400000000000002E-002    0.34241047458656504     
   8.3700000000000011E-002    0.11267824163915385     
   8.4000000000000005E-002   -0.11416819543595835     
   8.4300000000000000E-002   -0.32748836324442898     
   8.4599999999999995E-002   -0.51717870655512499     
   8.4900000000000003E-002   -0.67380350139011469     
   8.5199999999999998E-002   -0.78954114551555321     
   8.5500000000000007E-002   -0.85947020399431651     
   8.5800000000000001E-002   -0.88137523369840309     
   8.6100000000000010E-002   -0.85667945397401013     
   8.6399999999999991E-002   -0.79081823798034989     
   8.6699999999999999E-002   -0.69210175716107614     
   8.7000000000000008E-002   -0.57188001326615812     
   8.7300000000000003E-002   -0.44358456489718812     
   8.7599999999999997E-002   -0.32089963788799558     
   8.7900000000000006E-002   -0.21734222340079157     
   8.8200000000000014E-002   -0.14455770520758815     
   8.8499999999999995E-002   -0.11091852326976648     
   8.8800000000000004E-002   -0.12130268095334884     
   8.9100000000000013E-002   -0.17606823700225060     
   8.9399999999999993E-002   -0.27103052479305578     
   8.9700000000000002E-002   -0.39829471022726892     
   9.0000000000000011E-002   -0.54634084160471019     
   9.0299999999999991E-002   -0.70148445797711290     
   9.0600000000000000E-002   -0.84946828668932994     
   9.0900000000000009E-002   -0.97606543203918861     
   9.1200000000000017E-002    -1.0688959836577894     
   9.1499999999999998E-002    -1.1186891901443516     
   9.1800000000000007E-002    -1.1192212456947743     
   9.2100000000000001E-002    -1.0683633088507669     
   9.2399999999999996E-002   -0.96792610230453846     
   9.2700000000000005E-002   -0.82252803041066080     
   9.3000000000000013E-002   -0.63980615627551973     
   9.3300000000000008E-002   -0.42913265719469290     
   9.3600000000000003E-002   -0.20008886700585471     
   9.3899999999999997E-002     3.7705248605598429E-002
   9.4200000000000006E-002    0.27552899330929836     
   9.4500000000000001E-002    0.50657184729157123     
   9.4800000000000009E-002    0.72541602855401521     
   9.5100000000000004E-002    0.92816168466146465     
   9.5399999999999999E-002     1.1123400051348824     
   9.5699999999999993E-002     1.2759812014615690     
   9.6000000000000002E-002     1.4170890760264783     
   9.6300000000000011E-002     1.5333466792754535     
   9.6600000000000005E-002     1.6213127006205568     
   9.6900000000000000E-002     1.6765270991666767     
   9.7200000000000009E-002     1.6939276666714775     
   9.7499999999999989E-002     1.6677209428979722     
   9.7799999999999998E-002     1.5923697511982269     
   9.8100000000000007E-002     1.4637534930847522     
   9.8400000000000015E-002     1.2795901444650397     
   9.8699999999999996E-002     1.0402991373614388     
   9.9000000000000005E-002    0.75015304131692906     
   9.9300000000000013E-002    0.41698855630875009     
   9.9599999999999994E-002     5.2233502322582837E-002
   9.9900000000000003E-002   -0.32911804233464714     
  0.10020000000000001        -0.70986593374662732     
  0.10049999999999999         -1.0715951798725172     
  0.10080000000000000         -1.3958121000734920     
  0.10110000000000001         -1.6654578969694853     
  0.10140000000000000         -1.8662366018654453     
  0.10170000000000000         -1.9874413150193249     
  0.10200000000000001         -2.0230233524797328     
  0.10230000000000002         -1.9717671485878796     
  0.10260000000000000         -1.8371076663720842     
  0.10290000000000001         -1.6271644095304936     
  0.10320000000000000         -1.3534777038657246     
  0.10350000000000001         -1.0302812243057282     
  0.10380000000000000        -0.67373361630481732     
  0.10410000000000001        -0.30038277527750701     
  0.10440000000000001          7.3648121823570056E-002
  0.10470000000000000         0.43325145179250590     
  0.10500000000000000         0.76516168332792844     
  0.10530000000000000          1.0581900714538435     
  0.10560000000000000          1.3033938088847137     
  0.10590000000000001          1.4941781704975980     
  0.10620000000000000          1.6259293156072374     
  0.10650000000000001          1.6961348766074948     
  0.10679999999999999          1.7041770124502023     
  0.10710000000000000          1.6511527711877321     
  0.10740000000000001          1.5399617053029857     
  0.10770000000000000          1.3754025431472563     
  0.10800000000000000          1.1641720739200387     
  0.10830000000000001         0.91482424234398518     
  0.10859999999999999         0.63781157249735987     
  0.10890000000000000         0.34528403548077868     
  0.10920000000000001          5.0507002107928578E-002
  0.10950000000000001        -0.23266348927256519     
  0.10979999999999999        -0.49073594537585663     
  0.11009999999999999        -0.71138822626242515     
  0.11040000000000001        -0.88431687469259757     
  0.11070000000000001         -1.0026944376089588     
  0.11100000000000000         -1.0634213776857528     
  0.11130000000000000         -1.0672450688409754     
  0.11160000000000002         -1.0195706518239831     
  0.11190000000000001        -0.92939662585679628     
  0.11220000000000001        -0.80850801560189467     
  0.11250000000000000        -0.67077479462338907     
  0.11280000000000000        -0.53033021716462603     
  0.11309999999999999        -0.40030408415158814     
  0.11340000000000001        -0.29192535799303476     
  0.11369999999999998        -0.21294077965837976     
  0.11400000000000000        -0.16737783719234978     
  0.11430000000000000        -0.15548205913075641     
  0.11460000000000002        -0.17379455802731858     
  0.11489999999999999        -0.21633847475810519     
  0.11520000000000001        -0.27534687200321706     
  0.11550000000000001        -0.34238954555104328     
  0.11580000000000000        -0.40992962266127364     
  0.11609999999999999        -0.47183104389134023     
  0.11640000000000002        -0.52403513236430044     
  0.11670000000000001        -0.56501035484548723     
  0.11700000000000001        -0.59512217945940193     
  0.11730000000000000        -0.61639422582826242     
  0.11760000000000000        -0.63148637864196999     
  0.11789999999999999        -0.64275773998208408     
  0.11820000000000001        -0.65174548019745870     
  0.11850000000000001        -0.65802703649335470     
  0.11880000000000000        -0.65923060765599928     
  0.11910000000000000        -0.65138720074189038     
  0.11940000000000002        -0.62878025806587701     
  0.11970000000000001        -0.58508025399980390     
  0.12000000000000001        -0.51453309674361325     
  0.12030000000000000        -0.41223987474844570     
  0.12060000000000000        -0.27593069243102697     
  0.12089999999999999        -0.10617894946623974     
  0.12119999999999999          9.3632322830426773E-002
  0.12150000000000001         0.31624138548600111     
  0.12180000000000001         0.55194555955927171     
  0.12210000000000000         0.78918400074674011     
  0.12239999999999999          1.0147259301364500     
  0.12270000000000002          1.2158512583468166     
  0.12300000000000001          1.3806692932028710     
  0.12330000000000001          1.4991250011073944     
  0.12360000000000000          1.5642789329529165     
  0.12390000000000000          1.5722726380762637     
  0.12419999999999999          1.5226026873077387     
  0.12450000000000001          1.4185806490483515     
  0.12480000000000001          1.2663653776328729     
  0.12509999999999999          1.0749016900443031     
  0.12540000000000001         0.85531271304614798     
  0.12570000000000003         0.61990861366883232     
  0.12600000000000000         0.38177166222288506     
  0.12630000000000002         0.15392816456203473     
  0.12659999999999999         -5.1400082078457920E-002
  0.12690000000000001        -0.22326310286619577     
  0.12719999999999998        -0.35264031243203142     
  0.12750000000000000        -0.43279208168090477     
  0.12780000000000002        -0.45974130677874214     
  0.12809999999999999        -0.43247268433379382     
  0.12840000000000001        -0.35256994806895170     
  0.12869999999999998        -0.22498094287225356     
  0.12900000000000000         -5.7360944862514973E-002
  0.12930000000000003         0.14057102410958233     
  0.12959999999999999         0.35661960315320584     
  0.12990000000000002         0.57728332614529876     
  0.13019999999999998         0.78865113316018665     
  0.13050000000000000         0.97618450890919206     
  0.13080000000000003          1.1265065925132305     
  0.13109999999999999          1.2276908795008481     
  0.13140000000000002          1.2695987635482027     
  0.13169999999999998          1.2456399576357526     
  0.13200000000000001          1.1523422472500613     
  0.13229999999999997         0.98993104604882731     
  0.13260000000000000         0.76332331359706795     
  0.13290000000000002         0.48099019385701069     
  0.13319999999999999         0.15531795232615941     
  0.13350000000000001        -0.19760186846957550     
  0.13380000000000003        -0.55970831278932565     
  0.13410000000000000        -0.91152229496895742     
  0.13440000000000002         -1.2329448720409673     
  0.13469999999999999         -1.5057262609760471     
  0.13500000000000001         -1.7139342761398595     
  0.13529999999999998         -1.8453147913117220     
  0.13560000000000000         -1.8926989469786051     
  0.13590000000000002         -1.8539813179740392     
  0.13619999999999999         -1.7330274462739510     
  0.13650000000000001         -1.5386760543472278     
  0.13680000000000003         -1.2842176508767409     
  0.13710000000000000        -0.98666018872531591     
  0.13740000000000002        -0.66474466775165642     
  0.13769999999999999        -0.33786197467683188     
  0.13800000000000001         -2.4504016395510142E-002
  0.13829999999999998         0.25923383694735147     
  0.13860000000000000         0.49996119902415792     
  0.13890000000000002         0.68834138432267622     
  0.13919999999999999         0.81887343235877808     
  0.13950000000000001         0.88930338991051627     
  0.13979999999999998         0.90114552595526476     
  0.14010000000000000         0.85821036741513268     
  0.14040000000000002         0.76597856553930477     
  0.14069999999999999         0.63162419450157703     
  0.14100000000000001         0.46258364218311065     
  0.14130000000000004         0.26677664545934654     
  0.14160000000000000          5.2625797818024012E-002
  0.14189999999999997        -0.17186202218443869     
  0.14219999999999999        -0.39843735522487300     
  0.14250000000000002        -0.61862093859420852     
  0.14279999999999998        -0.82445632563737803     
  0.14310000000000000         -1.0080863927019443     
  0.14339999999999997         -1.1624218178017784     
  0.14369999999999999         -1.2816639821283147     
  0.14400000000000002         -1.3613738510574080     
  0.14429999999999998         -1.3991524639218937     
  0.14460000000000001         -1.3946335147833935     
  0.14490000000000003         -1.3496900726687073     
  0.14520000000000000         -1.2682291564851269     
  0.14550000000000002         -1.1553282371742561     
  0.14579999999999999         -1.0173068026373997     
  0.14610000000000001        -0.86074615902311180     
  0.14640000000000003        -0.69147076567917232     
  0.14670000000000000        -0.51506244017379821     
  0.14699999999999996        -0.33533760626185938     
  0.14729999999999999        -0.15477827267623923     
  0.14760000000000001          2.4801684121357859E-002
  0.14789999999999998         0.20325480651624561     
  0.14820000000000000         0.38034072966197296     