  -1.4999999999999999E-002     0.0000000000000000     
  -1.4700000000000000E-002     0.0000000000000000     
  -1.4400000000000000E-002     0.0000000000000000     
  -1.4100000000000000E-002     0.0000000000000000     
  -1.3800000000000000E-002     0.0000000000000000     
  -1.3500000000000000E-002     0.0000000000000000     
  -1.3200000000000000E-002     0.0000000000000000     
  -1.2899999999999998E-002     0.0000000000000000     
  -1.2600000000000000E-002     0.0000000000000000     
  -1.2299999999999998E-002     0.0000000000000000     
  -1.2000000000000000E-002     0.0000000000000000     
  -1.1699999999999999E-002     0.0000000000000000     
  -1.1399999999999999E-002     0.0000000000000000     
  -1.1099999999999999E-002     0.0000000000000000     
  -1.0799999999999999E-002     0.0000000000000000     
  -1.0499999999999999E-002     0.0000000000000000     
  -1.0199999999999999E-002     0.0000000000000000     
  -9.8999999999999991E-003     0.0000000000000000     
  -9.5999999999999992E-003     0.0000000000000000     
  -9.2999999999999992E-003     0.0000000000000000     
  -8.9999999999999993E-003     0.0000000000000000     
  -8.6999999999999994E-003     0.0000000000000000     
  -8.3999999999999995E-003     0.0000000000000000     
  -8.0999999999999996E-003     0.0000000000000000     
  -7.7999999999999988E-003     0.0000000000000000     
  -7.4999999999999997E-003     0.0000000000000000     
  -7.1999999999999998E-003     0.0000000000000000     
  -6.8999999999999981E-003     0.0000000000000000     
  -6.5999999999999982E-003     0.0000000000000000     
  -6.3000000000000000E-003     0.0000000000000000     
  -6.0000000000000001E-003     0.0000000000000000     
  -5.6999999999999985E-003     0.0000000000000000     
  -5.3999999999999986E-003     0.0000000000000000     
  -5.1000000000000004E-003     0.0000000000000000     
  -4.7999999999999987E-003     0.0000000000000000     
  -4.5000000000000005E-003     0.0000000000000000     
  -4.1999999999999989E-003     0.0000000000000000     
  -3.8999999999999990E-003     0.0000000000000000     
  -3.5999999999999990E-003     0.0000000000000000     
  -3.2999999999999991E-003     0.0000000000000000     
  -2.9999999999999992E-003     0.0000000000000000     
  -2.6999999999999993E-003     0.0000000000000000     
  -2.3999999999999994E-003     0.0000000000000000     
  -2.0999999999999977E-003     0.0000000000000000     
  -1.7999999999999995E-003     0.0000000000000000     
  -1.4999999999999979E-003     0.0000000000000000     
  -1.1999999999999997E-003     0.0000000000000000     
  -8.9999999999999976E-004     0.0000000000000000     
  -5.9999999999999810E-004     0.0000000000000000     
  -2.9999999999999992E-004     0.0000000000000000     
   0.0000000000000000          0.0000000000000000     
   3.0000000000000165E-004     0.0000000000000000     
   5.9999999999999984E-004     0.0000000000000000     
   9.0000000000000149E-004     0.0000000000000000     
   1.2000000000000031E-003     0.0000000000000000     
   1.5000000000000013E-003     0.0000000000000000     
   1.8000000000000030E-003     0.0000000000000000     
   2.1000000000000012E-003     0.0000000000000000     
   2.3999999999999994E-003     0.0000000000000000     
   2.7000000000000010E-003     0.0000000000000000     
   2.9999999999999992E-003     0.0000000000000000     
   3.3000000000000008E-003     0.0000000000000000     
   3.6000000000000025E-003     0.0000000000000000     
   3.9000000000000007E-003     0.0000000000000000     
   4.2000000000000023E-003     0.0000000000000000     
   4.5000000000000005E-003     0.0000000000000000     
   4.7999999999999987E-003     0.0000000000000000     
   5.1000000000000004E-003     0.0000000000000000     
   5.4000000000000020E-003     0.0000000000000000     
   5.7000000000000037E-003     0.0000000000000000     
   5.9999999999999984E-003     0.0000000000000000     
   6.3000000000000000E-003     0.0000000000000000     
   6.6000000000000017E-003     0.0000000000000000     
   6.9000000000000034E-003     0.0000000000000000     
   7.2000000000000015E-003     0.0000000000000000     
   7.5000000000000032E-003     0.0000000000000000     
   7.8000000000000014E-003     0.0000000000000000     
   8.0999999999999996E-003     0.0000000000000000     
   8.4000000000000012E-003     0.0000000000000000     
   8.7000000000000029E-003     0.0000000000000000     
   9.0000000000000011E-003     0.0000000000000000     
   9.2999999999999992E-003     0.0000000000000000     
   9.6000000000000009E-003     0.0000000000000000     
   9.8999999999999991E-003     0.0000000000000000     
   1.0200000000000001E-002     0.0000000000000000     
   1.0500000000000002E-002     0.0000000000000000     
   1.0800000000000004E-002     0.0000000000000000     
   1.1099999999999999E-002     0.0000000000000000     
   1.1400000000000000E-002     0.0000000000000000     
   1.1700000000000002E-002     0.0000000000000000     
   1.2000000000000004E-002     0.0000000000000000     
   1.2300000000000002E-002     0.0000000000000000     
   1.2600000000000000E-002     0.0000000000000000     
   1.2900000000000002E-002     0.0000000000000000     
   1.3200000000000000E-002     0.0000000000000000     
   1.3500000000000002E-002     0.0000000000000000     
   1.3800000000000003E-002     0.0000000000000000     
   1.4100000000000001E-002     0.0000000000000000     
   1.4400000000000000E-002     0.0000000000000000     
   1.4700000000000001E-002     0.0000000000000000     
   1.4999999999999999E-002     0.0000000000000000     
   1.5300000000000001E-002     0.0000000000000000     
   1.5600000000000003E-002     0.0000000000000000     
   1.5899999999999997E-002     0.0000000000000000     
   1.6199999999999999E-002     0.0000000000000000     
   1.6500000000000001E-002     0.0000000000000000     
   1.6800000000000002E-002     0.0000000000000000     
   1.7100000000000004E-002     0.0000000000000000     
   1.7400000000000006E-002     0.0000000000000000     
   1.7700000000000000E-002     0.0000000000000000     
   1.8000000000000002E-002     0.0000000000000000     
   1.8300000000000004E-002     0.0000000000000000     
   1.8600000000000005E-002     0.0000000000000000     
   1.8900000000000000E-002     0.0000000000000000     
   1.9200000000000002E-002     0.0000000000000000     
   1.9500000000000003E-002    -9.9019098592521311E-038
   1.9799999999999998E-002    -3.0080157928722449E-037
   2.0100000000000000E-002     2.8880266971636266E-036
   2.0400000000000001E-002    -1.2890683582131653E-035
   2.0700000000000003E-002     2.9467525691982481E-035
   2.0999999999999998E-002    -3.2798243553282695E-035
   2.1299999999999999E-002     8.4224052466204373E-036
   2.1600000000000001E-002     3.1347034385607106E-034
   2.1900000000000003E-002    -3.0743287202515365E-034
   2.2200000000000004E-002     2.6130070131438083E-033
   2.2500000000000006E-002    -3.0921448234609636E-033
   2.2800000000000001E-002    -8.6730931164761522E-033
   2.3100000000000002E-002     3.0509007491656332E-032
   2.3400000000000004E-002    -3.5634082010844884E-032
   2.3699999999999999E-002    -1.9840902180392401E-032
   2.4000000000000000E-002     1.5980196696250760E-031
   2.4300000000000002E-002    -2.8809075360785869E-031
   2.4599999999999997E-002     1.1717697458932745E-031
   2.4900000000000005E-002     6.5037245523981841E-031
   2.5200000000000000E-002    -1.7480132407373147E-030
   2.5499999999999995E-002     1.7515716572652287E-030
   2.5800000000000003E-002     1.4552251818444793E-030
   2.6099999999999998E-002    -8.1326791993423653E-030
   2.6400000000000007E-002     1.2939127001417264E-029
   2.6700000000000002E-002    -4.3215478517150957E-030
   2.6999999999999996E-002    -2.6861435230683998E-029
   2.7300000000000005E-002     6.8483410194475023E-029
   2.7600000000000000E-002    -7.1236172919039261E-029
   2.7900000000000008E-002    -3.5811383211764821E-029
   2.8200000000000003E-002     2.7339245679482408E-028
   2.8499999999999998E-002    -5.0079770306505760E-028
   2.8800000000000006E-002     3.5002654015726259E-028
   2.9100000000000001E-002     6.0654676461739430E-028
   2.9400000000000003E-002    -1.7942860083036753E-027
   2.9700000000000004E-002    -2.3455461958138215E-027
   3.0000000000000006E-002     2.9874025987676252E-026
   3.0300000000000001E-002    -9.9111245070521957E-026
   3.0600000000000002E-002     9.8077797424196407E-026
   3.0900000000000004E-002     6.0140908430689108E-025
   3.1199999999999999E-002    -3.3894328718178961E-024
   3.1500000000000007E-002     7.9722161473385356E-024
   3.1800000000000002E-002    -1.7741788307209151E-024
   3.2099999999999997E-002    -5.4049819818577992E-023
   3.2400000000000005E-002     1.6047837548500171E-022
   3.2700000000000000E-002     1.6979719622492489E-022
   3.3000000000000002E-002    -3.1538153230659638E-021
   3.3300000000000003E-002     1.2902945495376475E-020
   3.3599999999999998E-002    -2.1915583844971209E-020
   3.3900000000000000E-002    -4.8249578642375226E-020
   3.4200000000000001E-002     4.5674187632037849E-019
   3.4500000000000003E-002    -1.5407249118775485E-018
   3.4799999999999998E-002     2.4504041307177264E-018
   3.5099999999999999E-002     2.4988238458691208E-018
   3.5400000000000001E-002    -2.7406542830335102E-017
   3.5699999999999996E-002     8.3842435773892026E-017
   3.6000000000000004E-002    -1.2855418802321606E-016
   3.6299999999999999E-002    -3.1431047647282657E-017
   3.6600000000000008E-002     7.7545735592743839E-016
   3.6900000000000002E-002    -2.4581650917851484E-015
   3.7199999999999997E-002     4.9264401601174247E-015
   3.7500000000000006E-002    -6.8108383143431782E-015
   3.7800000000000000E-002     2.2193634680876024E-015
   3.8100000000000009E-002     3.4672110460517695E-014
   3.8400000000000004E-002    -1.8409414429624566E-013
   3.8699999999999998E-002     5.6878257227697978E-013
   3.9000000000000007E-002    -1.0161869088401553E-012
   3.9300000000000002E-002    -2.3282427914183212E-014
   3.9600000000000003E-002     6.6680092812820183E-012
   3.9900000000000005E-002    -2.2358713872066387E-011
   4.0200000000000000E-002     3.3387649038246221E-011
   4.0500000000000001E-002     1.7760951991902376E-011
   4.0800000000000003E-002    -2.1333875197704945E-010
   4.1100000000000005E-002     4.7684254801077297E-010
   4.1399999999999999E-002    -2.3186697124587167E-010
   4.1700000000000008E-002    -1.5022489718092004E-009
   4.2000000000000003E-002     4.2838827478999327E-009
   4.2299999999999997E-002    -2.6122344127588134E-009
   4.2600000000000006E-002    -1.3403604425342033E-008
   4.2900000000000001E-002     3.8014546004157933E-008
   4.3200000000000002E-002    -6.9375968088357277E-009
   4.3500000000000004E-002    -1.8327826715699591E-007
   4.3799999999999999E-002     3.4321936017183702E-007
   4.4100000000000000E-002     4.3828866690282221E-007
   4.4400000000000002E-002    -2.6805381038379314E-006
   4.4700000000000004E-002     1.2478755008992729E-006
   4.4999999999999998E-002     2.9929980152421199E-005
   4.5300000000000000E-002     6.7302876451639116E-005
   4.5600000000000002E-002     7.9843846454851972E-005
   4.5899999999999996E-002     8.2811666076490747E-005
   4.6200000000000005E-002     1.1203736523348077E-004
   4.6500000000000000E-002     1.7131765691571176E-004
   4.6799999999999994E-002     2.7087115362545763E-004
   4.7100000000000003E-002     4.2368583182310088E-004
   4.7399999999999998E-002     6.1637213772228021E-004
   4.7700000000000006E-002     8.7255519693312661E-004
   4.8000000000000001E-002     1.2422780168710457E-003
   4.8300000000000010E-002     1.7329320672669485E-003
   4.8600000000000004E-002     2.3558349591106531E-003
   4.8899999999999999E-002     3.1390156409490666E-003
   4.9200000000000008E-002     4.0931495679985969E-003
   4.9500000000000002E-002     5.2186209644688314E-003
   4.9800000000000011E-002     6.4680748022713785E-003
   5.0100000000000006E-002     7.7301274708017342E-003
   5.0400000000000000E-002     8.8577906052084432E-003
   5.0700000000000009E-002     9.6516488721706817E-003
   5.1000000000000004E-002     9.7744025973399706E-003
   5.1299999999999998E-002     8.7310185718166289E-003
   5.1600000000000007E-002     5.9496632699435059E-003
   5.1900000000000002E-002     7.5515921150707405E-004
   5.2200000000000010E-002    -7.6811285116567263E-003
   5.2500000000000005E-002    -2.0285228769660990E-002
   5.2800000000000000E-002    -3.7932345033696191E-002
   5.3099999999999994E-002    -6.1357777739222019E-002
   5.3400000000000003E-002    -9.1151854476380745E-002
   5.3699999999999998E-002   -0.12753212828444482     
   5.4000000000000006E-002   -0.17009071889900174     
   5.4300000000000001E-002   -0.21767453053176489     
   5.4599999999999996E-002   -0.26827621292784798     
   5.4900000000000004E-002   -0.31889001689444996     
   5.5199999999999999E-002   -0.36539170382085118     
   5.5499999999999994E-002   -0.40272514055859077     
   5.5800000000000002E-002   -0.42509609958267092     
   5.6099999999999997E-002   -0.42612541482270672     
   5.6400000000000006E-002   -0.39942955919056899     
   5.6700000000000000E-002   -0.33921446321580362     
   5.6999999999999995E-002   -0.24091495309918720     
   5.7300000000000004E-002   -0.10189280928896904     
   5.7599999999999998E-002     7.7906238246843174E-002
   5.7900000000000007E-002    0.29539564846128241     
   5.8200000000000002E-002    0.54395288980984979     
   5.8499999999999996E-002    0.81338080004734259     
   5.8800000000000005E-002     1.0902246391661521     
   5.9100000000000000E-002     1.3582528897960202     
   5.9400000000000008E-002     1.5993632517213001     
   5.9700000000000003E-002     1.7948882776219293     
   6.0000000000000012E-002     1.9269646870667785     
   6.0300000000000006E-002     1.9800829795281345     
   6.0600000000000001E-002     1.9424545275353466     
   6.0900000000000010E-002     1.8072873958295332     
   6.1200000000000004E-002     1.5738574509616683     
   6.1500000000000013E-002     1.2479437607753638     
   6.1800000000000008E-002    0.84165935617879484     
   6.2100000000000002E-002    0.37313046547837025     
   6.2399999999999997E-002   -0.13460022743921929     
   6.2700000000000006E-002   -0.65495097889234044     
   6.3000000000000000E-002    -1.1600039832885027     
   6.3300000000000009E-002    -1.6221607034868128     
   6.3600000000000004E-002    -2.0161219918331525     
   6.3899999999999998E-002    -2.3208186419163255     
   6.4199999999999993E-002    -2.5208691551303843     
   6.4500000000000002E-002    -2.6078911276037076     
   6.4800000000000010E-002    -2.5807545606461559     
   6.5100000000000005E-002    -2.4455405716671379     
   6.5400000000000000E-002    -2.2150287362434824     
   6.5700000000000008E-002    -1.9077884090301893     
   6.5999999999999989E-002    -1.5464184531086005     
   6.6299999999999998E-002    -1.1559192703980159     
   6.6600000000000006E-002   -0.76160387428220844     
   6.6900000000000001E-002   -0.38753869569563726     
   6.7199999999999996E-002    -5.4907330242028651E-002
   6.7500000000000004E-002    0.21968206607234730     
   6.7800000000000013E-002    0.42468917243663817     
   6.8099999999999994E-002    0.55432714170074071     
   6.8400000000000002E-002    0.60840789451265209     
   6.8700000000000011E-002    0.59206175266374927     
   6.8999999999999992E-002    0.51496214751873204     
   6.9300000000000000E-002    0.39006161930954697     
   6.9600000000000009E-002    0.23265793172078908     
   6.9900000000000004E-002     5.9048697323244248E-002
   7.0199999999999999E-002   -0.11437495425940813     
   7.0500000000000007E-002   -0.27238725887995069     
   7.0800000000000016E-002   -0.40167175492152740     
   7.1099999999999997E-002   -0.49141104398277413     
   7.1400000000000005E-002   -0.53359524177183282     
   7.1700000000000000E-002   -0.52326580233330588     
   7.1999999999999995E-002   -0.45859740597827603     
   7.2300000000000003E-002   -0.34075568664606060     
   7.2600000000000012E-002   -0.17380561492753710     
   7.2900000000000006E-002     3.5625681964985390E-002
   7.3200000000000001E-002    0.27894456054637229     
   7.3499999999999996E-002    0.54564837965962631     
   7.3800000000000004E-002    0.82393579977873088     
   7.4099999999999999E-002     1.1014006891763266     
   7.4400000000000008E-002     1.3654239322429476     
   7.4700000000000003E-002     1.6039337359166765     
   7.5000000000000011E-002     1.8060127023199470     
   7.5299999999999992E-002     1.9621661649298829     
   7.5600000000000001E-002     2.0650442023166136     
   7.5900000000000009E-002     2.1096589527328362     
   7.6200000000000004E-002     2.0936727488241900     
   7.6499999999999999E-002     2.0174200293442794     
   7.6800000000000007E-002     1.8834721659347622     
   7.7099999999999988E-002     1.6966908974966302     
   7.7399999999999997E-002     1.4640474153195981     
   7.7700000000000005E-002     1.1941145627180987     
   7.8000000000000014E-002    0.89628013981038279     
   7.8299999999999995E-002    0.58055028698003142     
   7.8600000000000003E-002    0.25728761386612398     
   7.8900000000000012E-002    -6.3303210377098296E-002
   7.9199999999999993E-002   -0.37157555561470890     
   7.9500000000000001E-002   -0.65914877642108394     
   7.9800000000000010E-002   -0.91854269412697676     
   8.0100000000000018E-002    -1.1437311516212958     
   8.0399999999999999E-002    -1.3304039641546588     
   8.0700000000000008E-002    -1.4763322231840377     
   8.1000000000000003E-002    -1.5810899337438045     
   8.1299999999999997E-002    -1.6457665710691032     
   8.1600000000000006E-002    -1.6732622647245918     
   8.1900000000000014E-002    -1.6678894941538687     
   8.2199999999999995E-002    -1.6349702153680994     
   8.2500000000000004E-002    -1.5799253616522080     
   8.2799999999999999E-002    -1.5081250635159620     
   8.3100000000000007E-002    -1.4244088945807434     
   8.3400000000000002E-002    -1.3325110598402219     
   8.3700000000000011E-002    -1.2348052122996975     
   8.4000000000000005E-002    -1.1319937833823630     
   8.4300000000000000E-002    -1.0233430995739283     
   8.4599999999999995E-002   -0.90695996032270187     
   8.4900000000000003E-002   -0.77997530448073960     
   8.5199999999999998E-002   -0.63923000094007776     
   8.5500000000000007E-002   -0.48178493345136530     
   8.5800000000000001E-002   -0.30530618835451673     
   8.6100000000000010E-002   -0.10883121260589612     
   8.6399999999999991E-002    0.10694838129933082     
   8.6699999999999999E-002    0.33979128939601289     
   8.7000000000000008E-002    0.58542657066303372     
   8.7300000000000003E-002    0.83761419317601771     
   8.7599999999999997E-002     1.0888510031590570     
   8.7900000000000006E-002     1.3303500371311827     
   8.8200000000000014E-002     1.5522341683309477     
   8.8499999999999995E-002     1.7443561342502036     
   8.8800000000000004E-002     1.8965549328954481     
   8.9100000000000013E-002     1.9990729542709147     
   8.9399999999999993E-002     2.0432941130472102     
   8.9700000000000002E-002     2.0220601743427338     
   9.0000000000000011E-002     1.9302044103906795     
   9.0299999999999991E-002     1.7653130668695454     
   9.0600000000000000E-002     1.5280333771867518     
   9.0900000000000009E-002     1.2226468821469965     
   9.1200000000000017E-002    0.85717800489941354     
   9.1499999999999998E-002    0.44365247035679545     
   9.1800000000000007E-002    -2.1183758125244978E-003
   9.2100000000000001E-002   -0.46109196322981916     
   9.2399999999999996E-002   -0.91180183325113873     
   9.2700000000000005E-002    -1.3313922766140820     
   9.3000000000000013E-002    -1.6971667784013711     
   9.3300000000000008E-002    -1.9879608602679824     
   9.3600000000000003E-002    -2.1856817606232681     
   9.3899999999999997E-002    -2.2767295772771945     
   9.4200000000000006E-002    -2.2531761207033867     
   9.4500000000000001E-002    -2.1139171582619269     
   9.4800000000000009E-002    -1.8645453725351118     
   9.5100000000000004E-002    -1.5173007792889663     
   9.5399999999999999E-002    -1.0907710630361720     
   9.5699999999999993E-002   -0.60844975534928736     
   9.6000000000000002E-002    -9.7289393078626718E-002
   9.6300000000000011E-002    0.41401338013578837     
   9.6600000000000005E-002    0.89691309516859441     
   9.6900000000000000E-002     1.3249257081056669     
   9.7200000000000009E-002     1.6751030780372353     
   9.7499999999999989E-002     1.9300751339710658     
   9.7799999999999998E-002     2.0782539224275567     
   9.8100000000000007E-002     2.1149110788226793     
   9.8400000000000015E-002     2.0422820604014262     
   9.8699999999999996E-002     1.8689522145980746     
   9.9000000000000005E-002     1.6092276763874693     
   9.9300000000000013E-002     1.2817853154164851     
   9.9599999999999994E-002    0.90852146001870082     
   9.9900000000000003E-002    0.51278624154660690     
  0.10020000000000001         0.11801149687233603     
  0.10049999999999999        -0.25416872222249509     
  0.10080000000000000        -0.58475825026720329     
  0.10110000000000001        -0.85846502467432373     
  0.10140000000000000         -1.0644325717916665     
  0.10170000000000000         -1.1967258421361890     
  0.10200000000000001         -1.2541732568801365     
  0.10230000000000002         -1.2396985755411123     
  0.10260000000000000         -1.1600694828047153     
  0.10290000000000001         -1.0253349958990690     
  0.10320000000000000        -0.84792275778736226     
  0.10350000000000001        -0.64146870104542231     
  0.10380000000000000        -0.42019456594576710     
  0.10410000000000001        -0.19846941506506521     
  0.10440000000000001          1.0066381086870191E-002
  0.10470000000000000         0.19281694769111724     
  0.10500000000000000         0.33906674261636560     
  0.10530000000000000         0.44002601652790307     
  0.10560000000000000         0.48903686325293449     
  0.10590000000000001         0.48194152740528651     
  0.10620000000000000         0.41742350361821501     
  0.10650000000000001         0.29704420388737329     
  0.10679999999999999         0.12512921676451771     
  0.10710000000000000         -9.1012252111316805E-002
  0.10740000000000001        -0.34152900709631329     
  0.10770000000000000        -0.61437256464498369     
  0.10800000000000000        -0.89565762189504561     
  0.10830000000000001         -1.1704096214801929     
  0.10859999999999999         -1.4235692553998796     
  0.10890000000000000         -1.6405790668207700     
  0.10920000000000001         -1.8084155153582344     
  0.10950000000000001         -1.9161055348027318     
  0.10979999999999999         -1.9553622221576745     
  0.11009999999999999         -1.9214760609038279     
  0.11040000000000001         -1.8130652081680054     
  0.11070000000000001         -1.6319746786054523     
  0.11100000000000000         -1.3835306049269676     
  0.11130000000000000         -1.0761442540013633     
  0.11160000000000002        -0.72059500690411227     
  0.11190000000000001        -0.32987926728723060     
  0.11220000000000001          8.1672300431069544E-002
  0.11250000000000000         0.49855452070779727     
  0.11280000000000000         0.90451360108042844     
  0.11309999999999999          1.2833583946220148     
  0.11340000000000001          1.6197964835381882     
  0.11369999999999998          1.8994761061306846     
  0.11400000000000000          2.1095213171659850     
  0.11430000000000000          2.2400425592660653     
  0.11460000000000002          2.2843668388651679     
  0.11489999999999999          2.2398711604394776     
  0.11520000000000001          2.1080233767642653     
  0.11550000000000001          1.8951276559191754     
  0.11580000000000000          1.6125499803129983     
  0.11609999999999999          1.2758224606093052     
  0.11640000000000002         0.90391253930161497     
  0.11670000000000001         0.51820282066481660     
  0.11700000000000001         0.14128835558679476     
  0.11730000000000000        -0.20447396938770623     
  0.11760000000000000        -0.49898359369170109     
  0.11789999999999999        -0.72550891235639492     
  0.11820000000000001        -0.87162612074556023     
  0.11850000000000001        -0.92990291145887483     
  0.11880000000000000        -0.89861834522370998     
  0.11910000000000000        -0.78145746562372054     
  0.11940000000000002        -0.58669155869302614     
  0.11970000000000001        -0.32637006486507403     
  0.12000000000000001         -1.5656579575507479E-002
  0.12030000000000000         0.32819424960813315     
  0.12060000000000000         0.68709279403981327     
  0.12089999999999999          1.0431207699906930     
  0.12119999999999999          1.3790435705293262     
  0.12150000000000001          1.6783078045821149     
  0.12180000000000001          1.9258184484280108     
  0.12210000000000000          2.1086763240104034     
  0.12239999999999999          2.2160497979164333     
  0.12270000000000002          2.2389359885373565     
  0.12300000000000001          2.1710265851970689     
  0.12330000000000001          2.0095195452447427     
  0.12360000000000000          1.7550668571451808     
  0.12390000000000000          1.4124935659861322     
  0.12419999999999999         0.99074047401186149     
  0.12450000000000001         0.50342536173143415     
  0.12480000000000001         -3.1188476114610175E-002
  0.12509999999999999        -0.59095182431757820     
  0.12540000000000001         -1.1514089521885964     
  0.12570000000000003         -1.6860888176390052     
  0.12600000000000000         -2.1683719824878480     
  0.12630000000000002         -2.5735381493379137     
  0.12659999999999999         -2.8804970935011980     
  0.12690000000000001         -3.0735661299140844     
  0.12719999999999998         -3.1431132984924517     
  0.12750000000000000         -3.0869860146868859     
  0.12780000000000002         -2.9109434901258453     
  0.12809999999999999         -2.6280495415270337     
  0.12840000000000001         -2.2574180993868680     
  0.12869999999999998         -1.8230859139214601     
  0.12900000000000000         -1.3522087291159934     
  0.12930000000000003        -0.87296811510718086     
  0.12959999999999999        -0.41207430483730523     
  0.12990000000000002          7.0344625578178110E-003
  0.13019999999999998         0.36578632067259420     
  0.13050000000000000         0.65126347445972854     
  0.13080000000000003         0.85720990156088428     
  0.13109999999999999         0.98419526834404536     
  0.13140000000000002          1.0388894674946005     
  0.13169999999999998          1.0327987788504291     
  0.13200000000000001         0.98126493168254925     
  0.13229999999999997         0.90194849774579922     
  0.13260000000000000         0.81327724671984658     
  0.13290000000000002         0.73236568631851018     
  0.13319999999999999         0.67377826715773348     
  0.13350000000000001         0.64881067449210850     
  0.13380000000000003         0.66372746073901645     
  0.13410000000000000         0.71957377559481639     
  0.13440000000000002         0.81172958685484042     
  0.13469999999999999         0.93051463588111627     
  0.13500000000000001          1.0614045203823519     
  0.13529999999999998          1.1859015653172484     
  0.13560000000000000          1.2832341759260970     
  0.13590000000000002          1.3319171842833342     
  0.13619999999999999          1.3116897861888148     
  0.13650000000000001          1.2056352539533464     
  0.13680000000000003          1.0020433839056793     
  0.13710000000000000         0.69569586300187147     
  0.13740000000000002         0.29001918341046240     
  0.13769999999999999        -0.20301479482435880     
  0.13800000000000001        -0.76301226225028529     
  0.13829999999999998         -1.3620275694164761     
  0.13860000000000000         -1.9664891719164714     
  0.13890000000000002         -2.5393032619515550     
  0.13919999999999999         -3.0431166086898322     
  0.13950000000000001         -3.4436211519067683     
  0.13979999999999998         -3.7120431044874920     
  0.14010000000000000         -3.8277681652973286     
  0.14040000000000002         -3.7801823897232509     
  0.14069999999999999         -3.5695522783767046     
  0.14100000000000001         -3.2070260387943392     
  0.14130000000000004         -2.7126273675040267     
  0.14160000000000000         -2.1141688551510356     
  0.14189999999999997         -1.4441503500944464     
  0.14219999999999999        -0.73730993811170897     
  0.14250000000000002         -2.6945496222738896E-002
  0.14279999999999998         0.65716186680532473     
  0.14310000000000000          1.2904335110697787     
  0.14339999999999997          1.8546652184886927     
  0.14369999999999999          2.3386922425713426     
  0.14400000000000002          2.7382987482797176     
  0.14429999999999998          3.0542230908091881     
  0.14460000000000001          3.2911417747033340     
  0.14490000000000003          3.4558901712929213     
  0.14520000000000000          3.5562662957449760     
  0.14550000000000002          3.5993748510069992     
  0.14579999999999999          3.5905779884064799     
  0.14610000000000001          3.5332837483269799     
  0.14640000000000003          3.4290743203760314     
  0.14670000000000000          3.2782916163493212     
  0.14699999999999996          3.0802181973527354     
  0.14729999999999999          2.8352108759435168     
  0.14760000000000001          2.5450500430322478     
  0.14789999999999998          2.2133968681612401     
  0.14820000000000000          1.8468473104403884     