  -1.4999999999999999E-002     0.0000000000000000     
  -1.4700000000000000E-002     0.0000000000000000     
  -1.4400000000000000E-002     0.0000000000000000     
  -1.4100000000000000E-002     0.0000000000000000     
  -1.3800000000000000E-002     0.0000000000000000     
  -1.3500000000000000E-002     0.0000000000000000     
  -1.3200000000000000E-002     0.0000000000000000     
  -1.2899999999999998E-002     0.0000000000000000     
  -1.2600000000000000E-002     0.0000000000000000     
  -1.2299999999999998E-002     0.0000000000000000     
  -1.2000000000000000E-002     0.0000000000000000     
  -1.1699999999999999E-002     0.0000000000000000     
  -1.1399999999999999E-002     0.0000000000000000     
  -1.1099999999999999E-002     0.0000000000000000     
  -1.0799999999999999E-002     0.0000000000000000     
  -1.0499999999999999E-002     0.0000000000000000     
  -1.0199999999999999E-002     0.0000000000000000     
  -9.8999999999999991E-003     0.0000000000000000     
  -9.5999999999999992E-003     0.0000000000000000     
  -9.2999999999999992E-003     0.0000000000000000     
  -8.9999999999999993E-003     0.0000000000000000     
  -8.6999999999999994E-003     0.0000000000000000     
  -8.3999999999999995E-003     0.0000000000000000     
  -8.0999999999999996E-003     0.0000000000000000     
  -7.7999999999999988E-003     0.0000000000000000     
  -7.4999999999999997E-003     0.0000000000000000     
  -7.1999999999999998E-003     0.0000000000000000     
  -6.8999999999999981E-003     0.0000000000000000     
  -6.5999999999999982E-003     0.0000000000000000     
  -6.3000000000000000E-003     0.0000000000000000     
  -6.0000000000000001E-003     0.0000000000000000     
  -5.6999999999999985E-003     0.0000000000000000     
  -5.3999999999999986E-003     0.0000000000000000     
  -5.1000000000000004E-003     0.0000000000000000     
  -4.7999999999999987E-003     0.0000000000000000     
  -4.5000000000000005E-003     0.0000000000000000     
  -4.1999999999999989E-003     0.0000000000000000     
  -3.8999999999999990E-003     0.0000000000000000     
  -3.5999999999999990E-003     0.0000000000000000     
  -3.2999999999999991E-003     0.0000000000000000     
  -2.9999999999999992E-003     0.0000000000000000     
  -2.6999999999999993E-003     0.0000000000000000     
  -2.3999999999999994E-003     0.0000000000000000     
  -2.0999999999999977E-003     0.0000000000000000     
  -1.7999999999999995E-003     0.0000000000000000     
  -1.4999999999999979E-003     0.0000000000000000     
  -1.1999999999999997E-003     0.0000000000000000     
  -8.9999999999999976E-004     0.0000000000000000     
  -5.9999999999999810E-004     0.0000000000000000     
  -2.9999999999999992E-004     0.0000000000000000     
   0.0000000000000000          0.0000000000000000     
   3.0000000000000165E-004     0.0000000000000000     
   5.9999999999999984E-004     0.0000000000000000     
   9.0000000000000149E-004     0.0000000000000000     
   1.2000000000000031E-003     0.0000000000000000     
   1.5000000000000013E-003     0.0000000000000000     
   1.8000000000000030E-003     0.0000000000000000     
   2.1000000000000012E-003     0.0000000000000000     
   2.3999999999999994E-003     0.0000000000000000     
   2.7000000000000010E-003     0.0000000000000000     
   2.9999999999999992E-003     0.0000000000000000     
   3.3000000000000008E-003     0.0000000000000000     
   3.6000000000000025E-003     0.0000000000000000     
   3.9000000000000007E-003     0.0000000000000000     
   4.2000000000000023E-003     0.0000000000000000     
   4.5000000000000005E-003     0.0000000000000000     
   4.7999999999999987E-003     0.0000000000000000     
   5.1000000000000004E-003     0.0000000000000000     
   5.4000000000000020E-003     0.0000000000000000     
   5.7000000000000037E-003     0.0000000000000000     
   5.9999999999999984E-003     0.0000000000000000     
   6.3000000000000000E-003     0.0000000000000000     
   6.6000000000000017E-003     0.0000000000000000     
   6.9000000000000034E-003     0.0000000000000000     
   7.2000000000000015E-003     0.0000000000000000     
   7.5000000000000032E-003     0.0000000000000000     
   7.8000000000000014E-003     0.0000000000000000     
   8.0999999999999996E-003     0.0000000000000000     
   8.4000000000000012E-003     0.0000000000000000     
   8.7000000000000029E-003     0.0000000000000000     
   9.0000000000000011E-003     0.0000000000000000     
   9.2999999999999992E-003     0.0000000000000000     
   9.6000000000000009E-003     0.0000000000000000     
   9.8999999999999991E-003     0.0000000000000000     
   1.0200000000000001E-002     0.0000000000000000     
   1.0500000000000002E-002     0.0000000000000000     
   1.0800000000000004E-002     0.0000000000000000     
   1.1099999999999999E-002     0.0000000000000000     
   1.1400000000000000E-002     0.0000000000000000     
   1.1700000000000002E-002     0.0000000000000000     
   1.2000000000000004E-002     0.0000000000000000     
   1.2300000000000002E-002     0.0000000000000000     
   1.2600000000000000E-002     0.0000000000000000     
   1.2900000000000002E-002     0.0000000000000000     
   1.3200000000000000E-002     0.0000000000000000     
   1.3500000000000002E-002     0.0000000000000000     
   1.3800000000000003E-002     0.0000000000000000     
   1.4100000000000001E-002     0.0000000000000000     
   1.4400000000000000E-002     0.0000000000000000     
   1.4700000000000001E-002     0.0000000000000000     
   1.4999999999999999E-002     0.0000000000000000     
   1.5300000000000001E-002     0.0000000000000000     
   1.5600000000000003E-002     0.0000000000000000     
   1.5899999999999997E-002     0.0000000000000000     
   1.6199999999999999E-002     0.0000000000000000     
   1.6500000000000001E-002     0.0000000000000000     
   1.6800000000000002E-002     0.0000000000000000     
   1.7100000000000004E-002     0.0000000000000000     
   1.7400000000000006E-002     0.0000000000000000     
   1.7700000000000000E-002     0.0000000000000000     
   1.8000000000000002E-002     0.0000000000000000     
   1.8300000000000004E-002     0.0000000000000000     
   1.8600000000000005E-002     0.0000000000000000     
   1.8900000000000000E-002     0.0000000000000000     
   1.9200000000000002E-002     0.0000000000000000     
   1.9500000000000003E-002     0.0000000000000000     
   1.9799999999999998E-002     0.0000000000000000     
   2.0100000000000000E-002     0.0000000000000000     
   2.0400000000000001E-002     0.0000000000000000     
   2.0700000000000003E-002     0.0000000000000000     
   2.0999999999999998E-002     0.0000000000000000     
   2.1299999999999999E-002     0.0000000000000000     
   2.1600000000000001E-002     0.0000000000000000     
   2.1900000000000003E-002     0.0000000000000000     
   2.2200000000000004E-002     0.0000000000000000     
   2.2500000000000006E-002     0.0000000000000000     
   2.2800000000000001E-002     0.0000000000000000     
   2.3100000000000002E-002     0.0000000000000000     
   2.3400000000000004E-002     0.0000000000000000     
   2.3699999999999999E-002     0.0000000000000000     
   2.4000000000000000E-002     0.0000000000000000     
   2.4300000000000002E-002     0.0000000000000000     
   2.4599999999999997E-002     0.0000000000000000     
   2.4900000000000005E-002     0.0000000000000000     
   2.5200000000000000E-002     0.0000000000000000     
   2.5499999999999995E-002     0.0000000000000000     
   2.5800000000000003E-002     0.0000000000000000     
   2.6099999999999998E-002     0.0000000000000000     
   2.6400000000000007E-002     0.0000000000000000     
   2.6700000000000002E-002     0.0000000000000000     
   2.6999999999999996E-002     0.0000000000000000     
   2.7300000000000005E-002     0.0000000000000000     
   2.7600000000000000E-002     0.0000000000000000     
   2.7900000000000008E-002     0.0000000000000000     
   2.8200000000000003E-002     0.0000000000000000     
   2.8499999999999998E-002     0.0000000000000000     
   2.8800000000000006E-002     0.0000000000000000     
   2.9100000000000001E-002     0.0000000000000000     
   2.9400000000000003E-002     0.0000000000000000     
   2.9700000000000004E-002     0.0000000000000000     
   3.0000000000000006E-002     0.0000000000000000     
   3.0300000000000001E-002     0.0000000000000000     
   3.0600000000000002E-002     0.0000000000000000     
   3.0900000000000004E-002     0.0000000000000000     
   3.1199999999999999E-002     0.0000000000000000     
   3.1500000000000007E-002     0.0000000000000000     
   3.1800000000000002E-002     0.0000000000000000     
   3.2099999999999997E-002     0.0000000000000000     
   3.2400000000000005E-002     0.0000000000000000     
   3.2700000000000000E-002     0.0000000000000000     
   3.3000000000000002E-002     0.0000000000000000     
   3.3300000000000003E-002     0.0000000000000000     
   3.3599999999999998E-002     0.0000000000000000     
   3.3900000000000000E-002    -8.0774276664920052E-039
   3.4200000000000001E-002     1.8572154038479821E-037
   3.4500000000000003E-002    -2.1759919385118679E-036
   3.4799999999999998E-002     9.6857331281388582E-036
   3.5099999999999999E-002    -1.0575892108810956E-034
   3.5400000000000001E-002     1.1682037456925051E-034
   3.5699999999999996E-002     2.9764588220164307E-033
   3.6000000000000004E-002    -1.2681292088179604E-032
   3.6299999999999999E-002     3.2871091123865750E-032
   3.6600000000000008E-002    -7.0696539485412305E-032
   3.6900000000000002E-002     9.2216957333025085E-032
   3.7199999999999997E-002     2.4271448627546235E-031
   3.7500000000000006E-002    -2.9514959349017180E-030
   3.7800000000000000E-002     1.7803257851194943E-029
   3.8100000000000009E-002    -8.6629916302934285E-029
   3.8400000000000004E-002     3.7177978228193113E-028
   3.8699999999999998E-002    -1.4479819300194951E-027
   3.9000000000000007E-002     5.1704809217112135E-027
   3.9300000000000002E-002    -1.6975522028389077E-026
   3.9600000000000003E-002     5.1204535827554920E-026
   3.9900000000000005E-002    -1.4148763582671890E-025
   4.0200000000000000E-002     3.5650260473868113E-025
   4.0500000000000001E-002    -8.1362877532524699E-025
   4.0800000000000003E-002     1.6609279277654711E-024
   4.1100000000000005E-002    -2.9206324277413108E-024
   4.1399999999999999E-002     3.6907695131372996E-024
   4.1700000000000008E-002     1.8610405723922589E-024
   4.2000000000000003E-002    -4.3349574554452173E-023
   4.2299999999999997E-002     2.5254873252717905E-022
   4.2600000000000006E-002    -1.1460062981793153E-021
   4.2900000000000001E-002     4.5055884048671230E-021
   4.3200000000000002E-002    -1.5728949640182781E-020
   4.3500000000000004E-002     4.9030021710098050E-020
   4.3799999999999999E-002    -1.3583897664657805E-019
   4.4100000000000000E-002     3.2762184944572574E-019
   4.4400000000000002E-002    -6.4452948650175653E-019
   4.4700000000000004E-002     7.8321715328981173E-019
   4.4999999999999998E-002     1.0032103259526105E-018
   4.5300000000000000E-002    -1.1335892141601536E-017
   4.5600000000000002E-002     4.9905145976960393E-017
   4.5899999999999996E-002    -1.6133228641917574E-016
   4.6200000000000005E-002     4.0240144474829275E-016
   4.6500000000000000E-002    -6.7686773667153621E-016
   4.6799999999999994E-002     7.0010314911911522E-017
   4.7100000000000003E-002     4.7810930407324731E-015
   4.7399999999999998E-002    -2.1370396950656674E-014
   4.7700000000000006E-002     5.5479968046546668E-014
   4.8000000000000001E-002    -7.4823912452007687E-014
   4.8300000000000010E-002    -8.6877471555653136E-014
   4.8600000000000004E-002     8.1688918142417392E-013
   4.8899999999999999E-002    -2.3422034537595187E-012
   4.9200000000000008E-002     2.8294892587785373E-012
   4.9500000000000002E-002     5.1194024510120425E-012
   4.9800000000000011E-002    -3.2407202961624651E-011
   5.0100000000000006E-002     6.4273506849828271E-011
   5.0400000000000000E-002     6.4103676703421461E-012
   5.0700000000000009E-002    -3.6522403327960370E-010
   5.1000000000000004E-002     8.2521291940729910E-010
   5.1299999999999998E-002     8.8492955442537081E-011
   5.1600000000000007E-002    -4.2575460496248199E-009
   5.1900000000000002E-002     6.8926443873689455E-009
   5.2200000000000010E-002     9.7279693064225459E-009
   5.2500000000000005E-002    -4.3036840759250442E-008
   5.2800000000000000E-002    -6.8411834213743044E-009
   5.3099999999999994E-002     1.8858568139876768E-007
   5.3400000000000003E-002    -3.6844659694167764E-008
   5.3699999999999998E-002    -1.0290295092920638E-006
   5.4000000000000006E-002     2.2402990662530572E-007
   5.4300000000000001E-002     1.2786839863759908E-005
   5.4599999999999996E-002     4.4496980416745661E-005
   5.4900000000000004E-002     8.4475377464852865E-005
   5.5199999999999999E-002     1.0980450024856286E-004
   5.5499999999999994E-002     1.2673302657419463E-004
   5.5800000000000002E-002     1.7594303101497143E-004
   5.6099999999999997E-002     2.8183553248188782E-004
   5.6400000000000006E-002     4.3983026955381199E-004
   5.6700000000000000E-002     6.5612805596610736E-004
   5.6999999999999995E-002     9.5933346831191327E-004
   5.7300000000000004E-002     1.3861784256146946E-003
   5.7599999999999998E-002     1.9755012432701377E-003
   5.7900000000000007E-002     2.7678415410115897E-003
   5.8200000000000002E-002     3.8124469323652516E-003
   5.8499999999999996E-002     5.1545299096984326E-003
   5.8800000000000005E-002     6.8174047284319528E-003
   5.9100000000000000E-002     8.8211926384678396E-003
   5.9400000000000008E-002     1.1165037610473105E-002
   5.9700000000000003E-002     1.3772034152805979E-002
   6.0000000000000012E-002     1.6495684870483251E-002
   6.0300000000000006E-002     1.9114305978265023E-002
   6.0600000000000001E-002     2.1268616540282448E-002
   6.0900000000000010E-002     2.2442080914707230E-002
   6.1200000000000004E-002     2.1958998746778757E-002
   6.1500000000000013E-002     1.8980650526391085E-002
   6.1800000000000008E-002     1.2532419861182809E-002
   6.2100000000000002E-002     1.5293028064537161E-003
   6.2399999999999997E-002    -1.5150851374461524E-002
   6.2700000000000006E-002    -3.8526563088655041E-002
   6.3000000000000000E-002    -6.9389311755408745E-002
   6.3300000000000009E-002   -0.10812309315082880     
   6.3600000000000004E-002   -0.15447021068828404     
   6.3899999999999998E-002   -0.20736801370819435     
   6.4199999999999993E-002   -0.26477520179351099     
   6.4500000000000002E-002   -0.32350236610102101     
   6.4800000000000010E-002   -0.37919586746982681     
   6.5100000000000005E-002   -0.42641802481682056     
   6.5400000000000000E-002   -0.45887240628317194     
   6.5700000000000008E-002   -0.46980710840080242     
   6.5999999999999989E-002   -0.45250598654408591     
   6.6299999999999998E-002   -0.40088712220040179     
   6.6600000000000006E-002   -0.31032741456403201     
   6.6900000000000001E-002   -0.17839745737742962     
   6.7199999999999996E-002    -5.4189554344978852E-003
   6.7500000000000004E-002    0.20487685160308344     
   6.7800000000000013E-002    0.44519849520548149     
   6.8099999999999994E-002    0.70467465791597483     
   6.8400000000000002E-002    0.96926433625177921     
   6.8700000000000011E-002     1.2226752501065157     
   6.8999999999999992E-002     1.4472910573390791     
   6.9300000000000000E-002     1.6255921088674086     
   6.9600000000000009E-002     1.7417057924939101     
   6.9900000000000004E-002     1.7827212637294494     
   7.0199999999999999E-002     1.7400849120074824     
   7.0500000000000007E-002     1.6106319377686376     
   7.0800000000000016E-002     1.3969746023448408     
   7.1099999999999997E-002     1.1076387893511281     
   7.1400000000000005E-002    0.75651852135677444     
   7.1700000000000000E-002    0.36182195208281875     
   7.1999999999999995E-002    -5.5131066992809341E-002
   7.2300000000000003E-002   -0.47180214838882895     
   7.2600000000000012E-002   -0.86609845372914052     
   7.2900000000000006E-002    -1.2179334739849494     
   7.3200000000000001E-002    -1.5108909748012849     
   7.3499999999999996E-002    -1.7331391745820071     
   7.3800000000000004E-002    -1.8780153326577107     
   7.4099999999999999E-002    -1.9444044029309353     
   7.4400000000000008E-002    -1.9360735993351881     
   7.4700000000000003E-002    -1.8611942583433816     
   7.5000000000000011E-002    -1.7312445122471800     
   7.5299999999999992E-002    -1.5597652453020459     
   7.5600000000000001E-002    -1.3612090169964688     
   7.5900000000000009E-002    -1.1496724648086456     
   7.6200000000000004E-002   -0.93793033770444012     
   7.6499999999999999E-002   -0.73673324848198263     
   7.6800000000000007E-002   -0.55415421110571472     
   7.7099999999999988E-002   -0.39551533419801110     
   7.7399999999999997E-002   -0.26340056481132557     
   7.7700000000000005E-002   -0.15771085082480507     
   7.8000000000000014E-002    -7.6406325497997196E-002
   7.8299999999999995E-002    -1.5752552551565407E-002
   7.8600000000000003E-002     2.9109929959874048E-002
   7.8900000000000012E-002     6.3459753853171819E-002
   7.9199999999999993E-002     9.2561548669973570E-002
   7.9500000000000001E-002    0.12139465527119120     
   7.9800000000000010E-002    0.15409318843799547     
   8.0100000000000018E-002    0.19365055914220042     
   8.0399999999999999E-002    0.24205232593529580     
   8.0700000000000008E-002    0.29998764791691634     
   8.1000000000000003E-002    0.36675644668262386     
   8.1299999999999997E-002    0.44080609873854826     
   8.1600000000000006E-002    0.51946913667260475     
   8.1900000000000014E-002    0.59927631751371990     
   8.2199999999999995E-002    0.67655412671727078     
   8.2500000000000004E-002    0.74725086909069205     
   8.2799999999999999E-002    0.80742002901115839     
   8.3100000000000007E-002    0.85382963341437090     
   8.3400000000000002E-002    0.88377161874069543     
   8.3700000000000011E-002    0.89539842945675829     
   8.4000000000000005E-002    0.88811130405765581     
   8.4300000000000000E-002    0.86225609824494498     
   8.4599999999999995E-002    0.81938795528941100     
   8.4900000000000003E-002    0.76204378669743633     
   8.5199999999999998E-002    0.69322851715758205     
   8.5500000000000007E-002    0.61666775178496636     
   8.5800000000000001E-002    0.53618471477579632     
   8.6100000000000010E-002    0.45513377495317364     
   8.6399999999999991E-002    0.37668808150441357     
   8.6699999999999999E-002    0.30318625761402274     
   8.7000000000000008E-002    0.23588594577636446     
   8.7300000000000003E-002    0.17536819617557597     
   8.7599999999999997E-002    0.12119086441729809     
   8.7900000000000006E-002     7.2139853963736567E-002
   8.8200000000000014E-002     2.6717609339255155E-002
   8.8499999999999995E-002    -1.6995608827311465E-002
   8.8800000000000004E-002    -6.0665811664212477E-002
   8.9100000000000013E-002   -0.10535319856395420     
   8.9399999999999993E-002   -0.15170896266946343     
   8.9700000000000002E-002   -0.19939800719162459     
   9.0000000000000011E-002   -0.24710444942735776     
   9.0299999999999991E-002   -0.29296895657070454     
   9.0600000000000000E-002   -0.33439505041972595     
   9.0900000000000009E-002   -0.36838418575983489     
   9.1200000000000017E-002   -0.39235585085773472     
   9.1499999999999998E-002   -0.40404352412966205     
   9.1800000000000007E-002   -0.40192157137376938     
   9.2100000000000001E-002   -0.38582162357179861     
   9.2399999999999996E-002   -0.35682570111530154     
   9.2700000000000005E-002   -0.31719850870935851     
   9.3000000000000013E-002   -0.27042908970857837     
   9.3300000000000008E-002   -0.22080248474447650     
   9.3600000000000003E-002   -0.17291281335827691     
   9.3899999999999997E-002   -0.13131156257878329     
   9.4200000000000006E-002    -9.9980528064515628E-002
   9.4500000000000001E-002    -8.1645828509370855E-002
   9.4800000000000009E-002    -7.7725529831575546E-002
   9.5100000000000004E-002    -8.8145136602498120E-002
   9.5399999999999999E-002   -0.11112251265615791     
   9.5699999999999993E-002   -0.14371283203385454     
   9.6000000000000002E-002   -0.18197218872688214     
   9.6300000000000011E-002   -0.22133898798192497     
   9.6600000000000005E-002   -0.25753168701838458     
   9.6900000000000000E-002   -0.28680034645330998     
   9.7200000000000009E-002   -0.30614502171694014     
   9.7499999999999989E-002   -0.31417200033883219     
   9.7799999999999998E-002   -0.31071468170883776     
   9.8100000000000007E-002   -0.29682394704553161     
   9.8400000000000015E-002   -0.27488736210267994     
   9.8699999999999996E-002   -0.24782952256907276     
   9.9000000000000005E-002   -0.21891517669573446     
   9.9300000000000013E-002   -0.19138358879801309     
   9.9599999999999994E-002   -0.16761414877140535     
   9.9900000000000003E-002   -0.14916587490112310     
  0.10020000000000001        -0.13652735080242628     
  0.10049999999999999        -0.12866293452304900     
  0.10080000000000000        -0.12358632717035256     
  0.10110000000000001        -0.11825752746479079     
  0.10140000000000000        -0.10883562757187981     
  0.10170000000000000         -9.1403243024171132E-002
  0.10200000000000001         -6.2192562260958706E-002
  0.10230000000000002         -1.7948850817849749E-002
  0.10260000000000000          4.3357120051992215E-002
  0.10290000000000001         0.12242454282511561     
  0.10320000000000000         0.21844847786078675     
  0.10350000000000001         0.32889163906964480     
  0.10380000000000000         0.44960838870925901     
  0.10410000000000001         0.57517886993941580     
  0.10440000000000001         0.69912345745625082     
  0.10470000000000000         0.81437452530941101     
  0.10500000000000000         0.91391221751420559     
  0.10530000000000000         0.99112330531288961     
  0.10560000000000000          1.0402443286628476     
  0.10590000000000001          1.0570679893093313     
  0.10620000000000000          1.0389591389274742     
  0.10650000000000001         0.98492672433567208     
  0.10679999999999999         0.89588649504456086     
  0.10710000000000000         0.77420810080325353     
  0.10740000000000001         0.62358477599438800     
  0.10770000000000000         0.44889990467197549     
  0.10800000000000000         0.25533220027091375     
  0.10830000000000001          4.8477288723552392E-002
  0.10859999999999999        -0.16574276784856323     
  0.10890000000000000        -0.38176474353584489     
  0.10920000000000001        -0.59390766910034820     
  0.10950000000000001        -0.79653050277227955     
  0.10979999999999999        -0.98392901953087275     
  0.11009999999999999         -1.1499256875870358     
  0.11040000000000001         -1.2882081974113007     
  0.11070000000000001         -1.3923250501141453     
  0.11100000000000000         -1.4554328735124997     
  0.11130000000000000         -1.4712702623237348     
  0.11160000000000002         -1.4347263332604072     
  0.11190000000000001         -1.3418974328485831     
  0.11220000000000001         -1.1912278644559322     
  0.11250000000000000        -0.98434175858486483     
  0.11280000000000000        -0.72610827982240522     
  0.11309999999999999        -0.42510407475594647     
  0.11340000000000001         -9.3365840057009319E-002
  0.11369999999999998         0.25401317537749435     
  0.11400000000000000         0.59967139298209737     
  0.11430000000000000         0.92533334748954665     
  0.11460000000000002          1.2130250808756031     
  0.11489999999999999          1.4463177302158599     
  0.11520000000000001          1.6121308462061137     
  0.11550000000000001          1.7015280966676443     
  0.11580000000000000          1.7103289098142369     
  0.11609999999999999          1.6399406828608036     
  0.11640000000000002          1.4967845098261066     
  0.11670000000000001          1.2916571143018700     
  0.11700000000000001          1.0390457352156233     
  0.11730000000000000         0.75553876149312060     
  0.11760000000000000         0.45836408493794778     
  0.11789999999999999         0.16420389644235200     
  0.11820000000000001        -0.11234113773678711     
  0.11850000000000001        -0.35951175723724305     
  0.11880000000000000        -0.56908181428950000     
  0.11910000000000000        -0.73680574036097468     
  0.11940000000000002        -0.86179559670758188     
  0.11970000000000001        -0.94633852441620903     
  0.12000000000000001        -0.99524527070798285     
  0.12030000000000000         -1.0146923077804288     
  0.12060000000000000         -1.0114215336981403     
  0.12089999999999999        -0.99196998852972840     
  0.12119999999999999        -0.96200454735026852     
  0.12150000000000001        -0.92581607429225699     
  0.12180000000000001        -0.88607569613490966     
  0.12210000000000000        -0.84397445602333221     
  0.12239999999999999        -0.79931230143636611     
  0.12270000000000002        -0.75082775516016653     
  0.12300000000000001        -0.69691699266383367     
  0.12330000000000001        -0.63569323980919634     
  0.12360000000000000        -0.56560364288724330     
  0.12390000000000000        -0.48604706473669523     
  0.12419999999999999        -0.39704368862092210     
  0.12450000000000001        -0.29964599448756779     
  0.12480000000000001        -0.19608665928961333     
  0.12509999999999999         -8.9431323165160892E-002
  0.12540000000000001          1.6687362250938254E-002
  0.12570000000000003         0.11807207835700151     
  0.12600000000000000         0.21055707047153988     
  0.12630000000000002         0.29003891080090538     
  0.12659999999999999         0.35285533889494580     
  0.12690000000000001         0.39626037246419799     
  0.12719999999999998         0.41824266799120124     
  0.12750000000000000         0.41796868462299663     
  0.12780000000000002         0.39605502789385483     
  0.12809999999999999         0.35414349923879307     
  0.12840000000000001         0.29515109025525987     
  0.12869999999999998         0.22344835206679736     
  0.12900000000000000         0.14405067079166711     
  0.12930000000000003          6.2901668791879750E-002
  0.12959999999999999         -1.3556678058425309E-002
  0.12990000000000002         -7.9332812676189413E-002
  0.13019999999999998        -0.12852671018393180     
  0.13050000000000000        -0.15580220405353606     
  0.13080000000000003        -0.15761129889656722     
  0.13109999999999999        -0.13147001286377513     
  0.13140000000000002         -7.6672473960611498E-002
  0.13169999999999998          5.2905960908531391E-003
  0.13200000000000001         0.11147735107451506     
  0.13229999999999997         0.23708655278045754     
  0.13260000000000000         0.37549102358596409     
  0.13290000000000002         0.51937869566994177     
  0.13319999999999999         0.66036741128550958     
  0.13350000000000001         0.78975186506943551     
  0.13380000000000003         0.89946921731153395     
  0.13410000000000000         0.98183519955584231     
  0.13440000000000002          1.0308068577416094     
  0.13469999999999999          1.0424696183620981     
  0.13500000000000001          1.0145185276111057     
  0.13529999999999998         0.94755613613734013     
  0.13560000000000000         0.84509051463086848     
  0.13590000000000002         0.71264363519813756     
  0.13619999999999999         0.55830700803865874     
  0.13650000000000001         0.39199016023735034     
  0.13680000000000003         0.22429238976161869     
  0.13710000000000000          6.6415448162576163E-002
  0.13740000000000002         -7.1149580310104987E-002
  0.13769999999999999        -0.17973104978047960     
  0.13800000000000001        -0.25242218591931764     
  0.13829999999999998        -0.28537658286005918     
  0.13860000000000000        -0.27809033590090060     
  0.13890000000000002        -0.23275734146330773     
  0.13919999999999999        -0.15466664218104809     
  0.13950000000000001         -5.1767577308538926E-002
  0.13979999999999998          6.6615070100430884E-002
  0.14010000000000000         0.19016596775583405     
  0.14040000000000002         0.30838053725696568     
  0.14069999999999999         0.41187125023339410     
  0.14100000000000001         0.49228127332161353     
  0.14130000000000004         0.54312072882519224     
  0.14160000000000000         0.56041519219638580     
  0.14189999999999997         0.54196488219670336     
  0.14219999999999999         0.48765346513790675     
  0.14250000000000002         0.39962520226622367     
  0.14279999999999998         0.28086601622896801     
  0.14310000000000000         0.13583995456580045     
  0.14339999999999997         -3.0018796565092210E-002
  0.14369999999999999        -0.21108347802408467     
  0.14400000000000002        -0.40091757564970720     
  0.14429999999999998        -0.59290169199355747     
  0.14460000000000001        -0.78055923226501633     
  0.14490000000000003        -0.95677750459685740     
  0.14520000000000000         -1.1147911490398847     
  0.14550000000000002         -1.2481240777212932     
  0.14579999999999999         -1.3503065269899679     
  0.14610000000000001         -1.4160696171883487     
  0.14640000000000003         -1.4412062055355008     
  0.14670000000000000         -1.4227436405355007     
  0.14699999999999996         -1.3600046277703584     
  0.14729999999999999         -1.2543004140870266     
  0.14760000000000001         -1.1091889736927598     
  0.14789999999999998        -0.93078458161307509     
  0.14820000000000000        -0.72699984224411196     