  -1.4999999999999999E-002     0.0000000000000000     
  -1.4700000000000000E-002     0.0000000000000000     
  -1.4400000000000000E-002     0.0000000000000000     
  -1.4100000000000000E-002     0.0000000000000000     
  -1.3800000000000000E-002     0.0000000000000000     
  -1.3500000000000000E-002     0.0000000000000000     
  -1.3200000000000000E-002     0.0000000000000000     
  -1.2899999999999998E-002     0.0000000000000000     
  -1.2600000000000000E-002     0.0000000000000000     
  -1.2299999999999998E-002     0.0000000000000000     
  -1.2000000000000000E-002     0.0000000000000000     
  -1.1699999999999999E-002     0.0000000000000000     
  -1.1399999999999999E-002     0.0000000000000000     
  -1.1099999999999999E-002     0.0000000000000000     
  -1.0799999999999999E-002     0.0000000000000000     
  -1.0499999999999999E-002     0.0000000000000000     
  -1.0199999999999999E-002     0.0000000000000000     
  -9.8999999999999991E-003     0.0000000000000000     
  -9.5999999999999992E-003     0.0000000000000000     
  -9.2999999999999992E-003     0.0000000000000000     
  -8.9999999999999993E-003     0.0000000000000000     
  -8.6999999999999994E-003     0.0000000000000000     
  -8.3999999999999995E-003     0.0000000000000000     
  -8.0999999999999996E-003     0.0000000000000000     
  -7.7999999999999988E-003     0.0000000000000000     
  -7.4999999999999997E-003     0.0000000000000000     
  -7.1999999999999998E-003     0.0000000000000000     
  -6.8999999999999981E-003     0.0000000000000000     
  -6.5999999999999982E-003     0.0000000000000000     
  -6.3000000000000000E-003     0.0000000000000000     
  -6.0000000000000001E-003     0.0000000000000000     
  -5.6999999999999985E-003     0.0000000000000000     
  -5.3999999999999986E-003     0.0000000000000000     
  -5.1000000000000004E-003     0.0000000000000000     
  -4.7999999999999987E-003     0.0000000000000000     
  -4.5000000000000005E-003     0.0000000000000000     
  -4.1999999999999989E-003     0.0000000000000000     
  -3.8999999999999990E-003     0.0000000000000000     
  -3.5999999999999990E-003     0.0000000000000000     
  -3.2999999999999991E-003     0.0000000000000000     
  -2.9999999999999992E-003     0.0000000000000000     
  -2.6999999999999993E-003     0.0000000000000000     
  -2.3999999999999994E-003     0.0000000000000000     
  -2.0999999999999977E-003     0.0000000000000000     
  -1.7999999999999995E-003     0.0000000000000000     
  -1.4999999999999979E-003     0.0000000000000000     
  -1.1999999999999997E-003     0.0000000000000000     
  -8.9999999999999976E-004     0.0000000000000000     
  -5.9999999999999810E-004     0.0000000000000000     
  -2.9999999999999992E-004     0.0000000000000000     
   0.0000000000000000          0.0000000000000000     
   3.0000000000000165E-004     0.0000000000000000     
   5.9999999999999984E-004     0.0000000000000000     
   9.0000000000000149E-004     0.0000000000000000     
   1.2000000000000031E-003     0.0000000000000000     
   1.5000000000000013E-003     0.0000000000000000     
   1.8000000000000030E-003     0.0000000000000000     
   2.1000000000000012E-003     0.0000000000000000     
   2.3999999999999994E-003     0.0000000000000000     
   2.7000000000000010E-003     0.0000000000000000     
   2.9999999999999992E-003     0.0000000000000000     
   3.3000000000000008E-003     0.0000000000000000     
   3.6000000000000025E-003     0.0000000000000000     
   3.9000000000000007E-003     0.0000000000000000     
   4.2000000000000023E-003     0.0000000000000000     
   4.5000000000000005E-003     0.0000000000000000     
   4.7999999999999987E-003     0.0000000000000000     
   5.1000000000000004E-003     0.0000000000000000     
   5.4000000000000020E-003     0.0000000000000000     
   5.7000000000000037E-003     0.0000000000000000     
   5.9999999999999984E-003     0.0000000000000000     
   6.3000000000000000E-003     0.0000000000000000     
   6.6000000000000017E-003     0.0000000000000000     
   6.9000000000000034E-003     0.0000000000000000     
   7.2000000000000015E-003     0.0000000000000000     
   7.5000000000000032E-003     0.0000000000000000     
   7.8000000000000014E-003     0.0000000000000000     
   8.0999999999999996E-003     0.0000000000000000     
   8.4000000000000012E-003     0.0000000000000000     
   8.7000000000000029E-003     0.0000000000000000     
   9.0000000000000011E-003     0.0000000000000000     
   9.2999999999999992E-003     0.0000000000000000     
   9.6000000000000009E-003     0.0000000000000000     
   9.8999999999999991E-003     0.0000000000000000     
   1.0200000000000001E-002     0.0000000000000000     
   1.0500000000000002E-002     0.0000000000000000     
   1.0800000000000004E-002     0.0000000000000000     
   1.1099999999999999E-002     0.0000000000000000     
   1.1400000000000000E-002     0.0000000000000000     
   1.1700000000000002E-002     0.0000000000000000     
   1.2000000000000004E-002     0.0000000000000000     
   1.2300000000000002E-002     0.0000000000000000     
   1.2600000000000000E-002     0.0000000000000000     
   1.2900000000000002E-002     0.0000000000000000     
   1.3200000000000000E-002     0.0000000000000000     
   1.3500000000000002E-002     0.0000000000000000     
   1.3800000000000003E-002     0.0000000000000000     
   1.4100000000000001E-002     0.0000000000000000     
   1.4400000000000000E-002     0.0000000000000000     
   1.4700000000000001E-002     0.0000000000000000     
   1.4999999999999999E-002     0.0000000000000000     
   1.5300000000000001E-002     0.0000000000000000     
   1.5600000000000003E-002     0.0000000000000000     
   1.5899999999999997E-002     0.0000000000000000     
   1.6199999999999999E-002     0.0000000000000000     
   1.6500000000000001E-002     0.0000000000000000     
   1.6800000000000002E-002     0.0000000000000000     
   1.7100000000000004E-002     0.0000000000000000     
   1.7400000000000006E-002     0.0000000000000000     
   1.7700000000000000E-002     0.0000000000000000     
   1.8000000000000002E-002     0.0000000000000000     
   1.8300000000000004E-002     0.0000000000000000     
   1.8600000000000005E-002     0.0000000000000000     
   1.8900000000000000E-002     0.0000000000000000     
   1.9200000000000002E-002     0.0000000000000000     
   1.9500000000000003E-002     0.0000000000000000     
   1.9799999999999998E-002     0.0000000000000000     
   2.0100000000000000E-002     0.0000000000000000     
   2.0400000000000001E-002     0.0000000000000000     
   2.0700000000000003E-002     0.0000000000000000     
   2.0999999999999998E-002     0.0000000000000000     
   2.1299999999999999E-002     0.0000000000000000     
   2.1600000000000001E-002     0.0000000000000000     
   2.1900000000000003E-002     0.0000000000000000     
   2.2200000000000004E-002     0.0000000000000000     
   2.2500000000000006E-002     0.0000000000000000     
   2.2800000000000001E-002     0.0000000000000000     
   2.3100000000000002E-002     0.0000000000000000     
   2.3400000000000004E-002     0.0000000000000000     
   2.3699999999999999E-002     0.0000000000000000     
   2.4000000000000000E-002     0.0000000000000000     
   2.4300000000000002E-002     0.0000000000000000     
   2.4599999999999997E-002     0.0000000000000000     
   2.4900000000000005E-002     0.0000000000000000     
   2.5200000000000000E-002     0.0000000000000000     
   2.5499999999999995E-002     0.0000000000000000     
   2.5800000000000003E-002     0.0000000000000000     
   2.6099999999999998E-002     0.0000000000000000     
   2.6400000000000007E-002     0.0000000000000000     
   2.6700000000000002E-002     0.0000000000000000     
   2.6999999999999996E-002     0.0000000000000000     
   2.7300000000000005E-002     0.0000000000000000     
   2.7600000000000000E-002     0.0000000000000000     
   2.7900000000000008E-002     0.0000000000000000     
   2.8200000000000003E-002     0.0000000000000000     
   2.8499999999999998E-002     0.0000000000000000     
   2.8800000000000006E-002     0.0000000000000000     
   2.9100000000000001E-002     0.0000000000000000     
   2.9400000000000003E-002     0.0000000000000000     
   2.9700000000000004E-002     0.0000000000000000     
   3.0000000000000006E-002     0.0000000000000000     
   3.0300000000000001E-002     0.0000000000000000     
   3.0600000000000002E-002     0.0000000000000000     
   3.0900000000000004E-002     0.0000000000000000     
   3.1199999999999999E-002     0.0000000000000000     
   3.1500000000000007E-002     0.0000000000000000     
   3.1800000000000002E-002     0.0000000000000000     
   3.2099999999999997E-002     0.0000000000000000     
   3.2400000000000005E-002     0.0000000000000000     
   3.2700000000000000E-002     0.0000000000000000     
   3.3000000000000002E-002     0.0000000000000000     
   3.3300000000000003E-002     1.9167737947526732E-036
   3.3599999999999998E-002    -1.1200208323821274E-035
   3.3900000000000000E-002    -1.5178926667540400E-034
   3.4200000000000001E-002     1.9534310020667079E-033
   3.4500000000000003E-002    -9.9586816109908765E-033
   3.4799999999999998E-002     3.9803158543172173E-032
   3.5099999999999999E-002    -1.4386985856182954E-031
   3.5400000000000001E-002     4.8451013636656088E-031
   3.5699999999999996E-002    -1.5225347016596189E-030
   3.6000000000000004E-002     4.5439597414086768E-030
   3.6299999999999999E-002    -1.3758714124284274E-029
   3.6600000000000008E-002     4.8043255335056411E-029
   3.6900000000000002E-002    -2.0840603484010942E-028
   3.7199999999999997E-002     1.0220606880896820E-027
   3.7500000000000006E-002    -4.9570998541217857E-027
   3.7800000000000000E-002     2.2160377022909428E-026
   3.8100000000000009E-002    -8.8981864594385647E-026
   3.8400000000000004E-002     3.1714049887060300E-025
   3.8699999999999998E-002    -9.8868361264085966E-025
   3.9000000000000007E-002     2.6110203390461760E-024
   3.9300000000000002E-002    -5.3572257992678137E-024
   3.9600000000000003E-002     5.7985678377595501E-024
   3.9900000000000005E-002     1.4159201278939523E-023
   4.0200000000000000E-002    -1.1200803752582650E-022
   4.0500000000000001E-002     4.0639385009343188E-022
   4.0800000000000003E-002    -9.7047137734838756E-022
   4.1100000000000005E-002     1.1803903691842218E-021
   4.1399999999999999E-002     2.2488080291893964E-021
   4.1700000000000008E-002    -1.8372998108316867E-020
   4.2000000000000003E-002     5.9094028530032649E-020
   4.2299999999999997E-002    -1.0018984770183024E-019
   4.2600000000000006E-002    -6.7325897341613100E-020
   4.2900000000000001E-002     1.1875816544787333E-018
   4.3200000000000002E-002    -4.9741922973544469E-018
   4.3500000000000004E-002     1.3611327289912137E-017
   4.3799999999999999E-002    -2.5226887791776758E-017
   4.4100000000000000E-002     1.9677508424448357E-017
   4.4400000000000002E-002     6.9814811323083985E-017
   4.4700000000000004E-002    -3.8997195721263015E-016
   4.4999999999999998E-002     1.1675423794405655E-015
   4.5300000000000000E-002    -2.6362636286616321E-015
   4.5600000000000002E-002     5.0392814887037420E-015
   4.5899999999999996E-002    -9.4991407724757601E-015
   4.6200000000000005E-002     2.1163604384060418E-014
   4.6500000000000000E-002    -5.1309972844961957E-014
   4.6799999999999994E-002     8.3835343452510341E-014
   4.7100000000000003E-002     1.3252932280251317E-013
   4.7399999999999998E-002    -1.7809850816341566E-012
   4.7700000000000006E-002     8.2608737558831358E-012
   4.8000000000000001E-002    -2.4533562681394727E-011
   4.8300000000000010E-002     4.2828615653967006E-011
   4.8600000000000004E-002     1.1146387632332555E-011
   4.8899999999999999E-002    -3.7321390422562217E-010
   4.9200000000000008E-002     1.3674145149522587E-009
   4.9500000000000002E-002    -2.4008861565505413E-009
   4.9800000000000011E-002    -8.5963647311615432E-010
   5.0100000000000006E-002     1.7845820821094094E-008
   5.0400000000000000E-002    -4.6084625893172415E-008
   5.0700000000000009E-002     1.5835901479022141E-008
   5.1000000000000004E-002     2.1227077695584740E-007
   5.1299999999999998E-002    -4.9835870186143438E-007
   5.1600000000000007E-002    -3.9416363506461494E-007
   5.1900000000000002E-002     3.3877315672725672E-006
   5.2200000000000010E-002     8.0235213317791931E-006
   5.2500000000000005E-002     1.4800105418544263E-005
   5.2800000000000000E-002     2.8188906071591191E-005
   5.3099999999999994E-002     4.0617953345645219E-005
   5.3400000000000003E-002     5.0601167458808050E-005
   5.3699999999999998E-002     7.0510053774341941E-005
   5.4000000000000006E-002     1.0704388841986656E-004
   5.4300000000000001E-002     1.6463483916595578E-004
   5.4599999999999996E-002     2.4891350767575204E-004
   5.4900000000000004E-002     3.6672668647952378E-004
   5.5199999999999999E-002     5.3386425133794546E-004
   5.5499999999999994E-002     7.6765991980209947E-004
   5.5800000000000002E-002     1.0740330908447504E-003
   5.6099999999999997E-002     1.4634028775617480E-003
   5.6400000000000006E-002     1.9679288379848003E-003
   5.6700000000000000E-002     2.6056992355734110E-003
   5.6999999999999995E-002     3.3734238240867853E-003
   5.7300000000000004E-002     4.2786668054759502E-003
   5.7599999999999998E-002     5.3160609677433968E-003
   5.7900000000000007E-002     6.4429710619151592E-003
   5.8200000000000002E-002     7.5830728746950626E-003
   5.8499999999999996E-002     8.6289765313267708E-003
   5.8800000000000005E-002     9.4221970066428185E-003
   5.9100000000000000E-002     9.7418706864118576E-003
   5.9400000000000008E-002     9.3452418223023415E-003
   5.9700000000000003E-002     7.9212952405214310E-003
   6.0000000000000012E-002     5.0761974416673183E-003
   6.0300000000000006E-002     4.3471765820868313E-004
   6.0600000000000001E-002    -6.3631222583353519E-003
   6.0900000000000010E-002    -1.5676459297537804E-002
   6.1200000000000004E-002    -2.7787756174802780E-002
   6.1500000000000013E-002    -4.2806845158338547E-002
   6.1800000000000008E-002    -6.0660522431135178E-002
   6.2100000000000002E-002    -8.1088587641716003E-002
   6.2399999999999997E-002   -0.10356236249208450     
   6.2700000000000006E-002   -0.12728512287139893     
   6.3000000000000000E-002   -0.15120959281921387     
   6.3300000000000009E-002   -0.17405974864959717     
   6.3600000000000004E-002   -0.19442042708396912     
   6.3899999999999998E-002   -0.21085460484027863     
   6.4199999999999993E-002   -0.22199159860610962     
   6.4500000000000002E-002   -0.22663325071334839     
   6.4800000000000010E-002   -0.22384715080261230     
   6.5100000000000005E-002   -0.21313592791557312     
   6.5400000000000000E-002   -0.19442549347877502     
   6.5700000000000008E-002   -0.16813263297080994     
   6.5999999999999989E-002   -0.13508862257003784     
   6.6299999999999998E-002    -9.6504881978034973E-002
   6.6600000000000006E-002    -5.3804710507392883E-002
   6.6900000000000001E-002    -8.6125470697879791E-003
   6.7199999999999996E-002     3.7496581673622131E-002
   6.7500000000000004E-002     8.3009675145149231E-002
   6.7800000000000013E-002    0.12662790715694427     
   6.8099999999999994E-002    0.16720640659332275     
   6.8400000000000002E-002    0.20379206538200378     
   6.8700000000000011E-002    0.23552145063877106     
   6.8999999999999992E-002    0.26157540082931519     
   6.9300000000000000E-002    0.28112012147903442     
   6.9600000000000009E-002    0.29320248961448669     
   6.9900000000000004E-002    0.29681283235549927     
   7.0199999999999999E-002    0.29090064764022827     
   7.0500000000000007E-002    0.27453383803367615     
   7.0800000000000016E-002    0.24706549942493439     
   7.1099999999999997E-002    0.20835274457931519     
   7.1400000000000005E-002    0.15898610651493073     
   7.1700000000000000E-002    0.10049188137054443     
   7.1999999999999995E-002     3.5404656082391739E-002
   7.2300000000000003E-002    -3.2703019678592682E-002
   7.2600000000000012E-002    -9.9386505782604218E-002
   7.2900000000000006E-002   -0.15954099595546722     
   7.3200000000000001E-002   -0.20772983133792877     
   7.3499999999999996E-002   -0.23872569203376770     
   7.3800000000000004E-002   -0.24793313443660736     
   7.4099999999999999E-002   -0.23187097907066345     
   7.4400000000000008E-002   -0.18855375051498413     
   7.4700000000000003E-002   -0.11779157817363739     
   7.5000000000000011E-002    -2.1391086280345917E-002
   7.5299999999999992E-002     9.6948653459548950E-002
   7.5600000000000001E-002    0.23176491260528564     
   7.5900000000000009E-002    0.37628412246704102     
   7.6200000000000004E-002    0.52275907993316650     
   7.6499999999999999E-002    0.66301822662353516     
   7.6800000000000007E-002    0.78910779953002930     
   7.7099999999999988E-002    0.89375483989715576     
   7.7399999999999997E-002    0.97086560726165771     
   7.7700000000000005E-002     1.0157771110534668     
   7.8000000000000014E-002     1.0255914926528931     
   7.8299999999999995E-002    0.99921697378158569     
   7.8600000000000003E-002    0.93732243776321411     
   7.8900000000000012E-002    0.84223228693008423     
   7.9199999999999993E-002    0.71767061948776245     
   7.9500000000000001E-002    0.56846719980239868     
   7.9800000000000010E-002    0.40025618672370911     
   8.0100000000000018E-002    0.21923664212226868     
   8.0399999999999999E-002     3.1682498753070831E-002
   8.0700000000000008E-002   -0.15612602233886719     
   8.1000000000000003E-002   -0.33842092752456665     
   8.1299999999999997E-002   -0.50989788770675659     
   8.1600000000000006E-002   -0.66620886325836182     
   8.1900000000000014E-002   -0.80377113819122314     
   8.2199999999999995E-002   -0.92020738124847412     
   8.2500000000000004E-002    -1.0140740871429443     
   8.2799999999999999E-002    -1.0851104259490967     
   8.3100000000000007E-002    -1.1338688135147095     
   8.3400000000000002E-002    -1.1617535352706909     
   8.3700000000000011E-002    -1.1707464456558228     
   8.4000000000000005E-002    -1.1630724668502808     
   8.4300000000000000E-002    -1.1410323381423950     
   8.4599999999999995E-002    -1.1067612171173096     
   8.4900000000000003E-002    -1.0619722604751587     
   8.5199999999999998E-002    -1.0079119205474854     
   8.5500000000000007E-002   -0.94523495435714722     
   8.5800000000000001E-002   -0.87426203489303589     
   8.6100000000000010E-002   -0.79484766721725464     
   8.6399999999999991E-002   -0.70689284801483154     
   8.6699999999999999E-002   -0.61018300056457520     
   8.7000000000000008E-002   -0.50500619411468506     
   8.7300000000000003E-002   -0.39190456271171570     
   8.7599999999999997E-002   -0.27196598052978516     
   8.7900000000000006E-002   -0.14677332341670990     
   8.8200000000000014E-002    -1.8144845962524414E-002
   8.8499999999999995E-002    0.11171577870845795     
   8.8800000000000004E-002    0.24083614349365234     
   8.9100000000000013E-002    0.36687016487121582     
   8.9399999999999993E-002    0.48827022314071655     
   8.9700000000000002E-002    0.60296797752380371     
   9.0000000000000011E-002    0.70974689722061157     
   9.0299999999999991E-002    0.80652642250061035     
   9.0600000000000000E-002    0.89189630746841431     
   9.0900000000000009E-002    0.96312797069549561     
   9.1200000000000017E-002     1.0178496837615967     
   9.1499999999999998E-002     1.0525075197219849     
   9.1800000000000007E-002     1.0638197660446167     
   9.2100000000000001E-002     1.0479806661605835     
   9.2399999999999996E-002     1.0019786357879639     
   9.2700000000000005E-002    0.92357021570205688     
   9.3000000000000013E-002    0.81196343898773193     
   9.3300000000000008E-002    0.66852885484695435     
   9.3600000000000003E-002    0.49650001525878906     
   9.3899999999999997E-002    0.30190157890319824     
   9.4200000000000006E-002     9.2420771718025208E-002
   9.4500000000000001E-002   -0.12210258841514587     
   9.4800000000000009E-002   -0.33129581809043884     
   9.5100000000000004E-002   -0.52427333593368530     
   9.5399999999999999E-002   -0.69131237268447876     
   9.5699999999999993E-002   -0.82420152425765991     
   9.6000000000000002E-002   -0.91738122701644897     
   9.6300000000000011E-002   -0.96829694509506226     
   9.6600000000000005E-002   -0.97745263576507568     
   9.6900000000000000E-002   -0.94842129945755005     
   9.7200000000000009E-002   -0.88717758655548096     
   9.7499999999999989E-002   -0.80150097608566284     
   9.7799999999999998E-002   -0.69989269971847534     
   9.8100000000000007E-002   -0.59053027629852295     
   9.8400000000000015E-002   -0.48062399029731750     
   9.8699999999999996E-002   -0.37546274065971375     
   9.9000000000000005E-002   -0.27826422452926636     
   9.9300000000000013E-002   -0.18988817930221558     
   9.9599999999999994E-002   -0.10934591293334961     
   9.9900000000000003E-002    -3.4001722931861877E-002
  0.10020000000000001          3.9266936480998993E-002
  0.10049999999999999         0.11368073523044586     
  0.10080000000000000         0.19152395427227020     
  0.10110000000000001         0.27377969026565552     
  0.10140000000000000         0.35953566431999207     
  0.10170000000000000         0.44619446992874146     
  0.10200000000000001         0.52963358163833618     
  0.10230000000000002         0.60451912879943848     
  0.10260000000000000         0.66544866561889648     
  0.10290000000000001         0.70717614889144897     
  0.10320000000000000         0.72598373889923096     
  0.10350000000000001         0.71967244148254395     
  0.10380000000000000         0.68848896026611328     
  0.10410000000000001         0.63496315479278564     
  0.10440000000000001         0.56397885084152222     
  0.10470000000000000         0.48224744200706482     
  0.10500000000000000         0.39760160446166992     
  0.10530000000000000         0.31845346093177795     
  0.10560000000000000         0.25282329320907593     
  0.10590000000000001         0.20771589875221252     
  0.10620000000000000         0.18818196654319763     
  0.10650000000000001         0.19720616936683655     
  0.10679999999999999         0.23511210083961487     
  0.10710000000000000         0.29991823434829712     
  0.10740000000000001         0.38716837763786316     
  0.10770000000000000         0.49063512682914734     
  0.10800000000000000         0.60254782438278198     
  0.10830000000000001         0.71451455354690552     
  0.10859999999999999         0.81779670715332031     
  0.10890000000000000         0.90402936935424805     
  0.10920000000000001         0.96577197313308716     
  0.10950000000000001         0.99667602777481079     
  0.10979999999999999         0.99189734458923340     
  0.11009999999999999         0.94813430309295654     
  0.11040000000000001         0.86374503374099731     
  0.11070000000000001         0.73861843347549438     
  0.11100000000000000         0.57434010505676270     
  0.11130000000000000         0.37409064173698425     
  0.11160000000000002         0.14225472509860992     
  0.11190000000000001        -0.11495502293109894     
  0.11220000000000001        -0.39026287198066711     
  0.11250000000000000        -0.67457240819931030     
  0.11280000000000000        -0.95797228813171387     
  0.11309999999999999         -1.2290892601013184     
  0.11340000000000001         -1.4762899875640869     
  0.11369999999999998         -1.6873062849044800     
  0.11400000000000000         -1.8507492542266846     
  0.11430000000000000         -1.9559329748153687     
  0.11460000000000002         -1.9946810007095337     
  0.11489999999999999         -1.9615203142166138     
  0.11520000000000001         -1.8545928001403809     
  0.11550000000000001         -1.6763119697570801     
  0.11580000000000000         -1.4335093498229980     
  0.11609999999999999         -1.1376439332962036     
  0.11640000000000002        -0.80368977785110474     
  0.11670000000000001        -0.45036849379539490     
  0.11700000000000001         -9.7699239850044250E-002
  0.11730000000000000         0.23313893377780914     
  0.11760000000000000         0.52281874418258667     
  0.11789999999999999         0.75388151407241821     
  0.11820000000000001         0.91351401805877686     
  0.11850000000000001         0.99369591474533081     
  0.11880000000000000         0.99231392145156860     
  0.11910000000000000         0.91327625513076782     
  0.11940000000000002         0.76589030027389526     
  0.11970000000000001         0.56470894813537598     
  0.12000000000000001         0.32721805572509766     
  0.12030000000000000          7.3701150715351105E-002
  0.12060000000000000        -0.17605400085449219     
  0.12089999999999999        -0.40268424153327942     
  0.12119999999999999        -0.59045934677124023     
  0.12150000000000001        -0.72662758827209473     
  0.12180000000000001        -0.80422312021255493     
  0.12210000000000000        -0.82022100687026978     
  0.12239999999999999        -0.77757793664932251     
  0.12270000000000002        -0.68265789747238159     
  0.12300000000000001        -0.54618763923645020     
  0.12330000000000001        -0.38041731715202332     
  0.12360000000000000        -0.19934493303298950     
  0.12390000000000000         -1.6446098685264587E-002
  0.12419999999999999         0.15599158406257629     
  0.12450000000000001         0.30787757039070129     
  0.12480000000000001         0.43194401264190674     
  0.12509999999999999         0.52398121356964111     
  0.12540000000000001         0.58307671546936035     
  0.12570000000000003         0.61102581024169922     
  0.12600000000000000         0.61213880777359009     
  0.12630000000000002         0.59215182065963745     
  0.12659999999999999         0.55810594558715820     
  0.12690000000000001         0.51690214872360229     
  0.12719999999999998         0.47525650262832642     
  0.12750000000000000         0.43855023384094238     
  0.12780000000000002         0.41096776723861694     
  0.12809999999999999         0.39470919966697693     
  0.12840000000000001         0.39037677645683289     
  0.12869999999999998         0.39671733975410461     
  0.12900000000000000         0.41086730360984802     
  0.12930000000000003         0.42884048819541931     
  0.12959999999999999         0.44570228457450867     
  0.12990000000000002         0.45628574490547180     
  0.13019999999999998         0.45531716942787170     
  0.13050000000000000         0.43838307261466980     
  0.13080000000000003         0.40181627869606018     
  0.13109999999999999         0.34379446506500244     
  0.13140000000000002         0.26370880007743835     
  0.13169999999999998         0.16340450942516327     
  0.13200000000000001          4.5917574316263199E-002
  0.13229999999999997         -8.3191506564617157E-002
  0.13260000000000000        -0.21782492101192474     
  0.13290000000000002        -0.35043632984161377     
  0.13319999999999999        -0.47362345457077026     
  0.13350000000000001        -0.57991760969161987     
  0.13380000000000003        -0.66321378946304321     
  0.13410000000000000        -0.71885597705841064     
  0.13440000000000002        -0.74407643079757690     
  0.13469999999999999        -0.73853546380996704     
  0.13500000000000001        -0.70402830839157104     
  0.13529999999999998        -0.64462381601333618     
  0.13560000000000000        -0.56590873003005981     
  0.13590000000000002        -0.47498902678489685     
  0.13619999999999999        -0.37935987114906311     
  0.13650000000000001        -0.28690916299819946     
  0.13680000000000003        -0.20450894534587860     
  0.13710000000000000        -0.13830749690532684     
  0.13740000000000002         -9.2700429260730743E-002
  0.13769999999999999         -7.0518486201763153E-002
  0.13800000000000001         -7.2419337928295135E-002
  0.13829999999999998         -9.7258023917675018E-002
  0.13860000000000000        -0.14205116033554077     
  0.13890000000000002        -0.20194077491760254     
  0.13919999999999999        -0.27072918415069580     
  0.13950000000000001        -0.34087055921554565     
  0.13979999999999998        -0.40396437048912048     
  0.14010000000000000        -0.45099970698356628     
  0.14040000000000002        -0.47302755713462830     
  0.14069999999999999        -0.46130418777465820     
  0.14100000000000001        -0.40822288393974304     
  0.14130000000000004        -0.30773344635963440     
  0.14160000000000000        -0.15628559887409210     
  0.14189999999999997          4.6948730945587158E-002
  0.14219999999999999         0.29912644624710083     
  0.14250000000000002         0.59389191865921021     
  0.14279999999999998         0.92094039916992188     
  0.14310000000000000          1.2661614418029785     
  0.14339999999999997          1.6126210689544678     
  0.14369999999999999          1.9408705234527588     
  0.14400000000000002          2.2309038639068604     
  0.14429999999999998          2.4625816345214844     
  0.14460000000000001          2.6180188655853271     
  0.14490000000000003          2.6823158264160156     
  0.14520000000000000          2.6454596519470215     
  0.14550000000000002          2.5028157234191895     
  0.14579999999999999          2.2563476562500000     
  0.14610000000000001          1.9140250682830811     
  0.14640000000000003          1.4903748035430908     
  0.14670000000000000          1.0047068595886230     
  0.14699999999999996         0.48077261447906494     
  0.14729999999999999         -5.5482707917690277E-002
  0.14760000000000001        -0.57735270261764526     
  0.14789999999999998         -1.0590931177139282     
  0.14820000000000000         -1.4780305624008179     