  -1.4999999999999999E-002     0.0000000000000000     
  -1.4700000000000000E-002     0.0000000000000000     
  -1.4400000000000000E-002     0.0000000000000000     
  -1.4100000000000000E-002     0.0000000000000000     
  -1.3800000000000000E-002     0.0000000000000000     
  -1.3500000000000000E-002     0.0000000000000000     
  -1.3200000000000000E-002     0.0000000000000000     
  -1.2899999999999998E-002     0.0000000000000000     
  -1.2600000000000000E-002     0.0000000000000000     
  -1.2299999999999998E-002     0.0000000000000000     
  -1.2000000000000000E-002     0.0000000000000000     
  -1.1699999999999999E-002     0.0000000000000000     
  -1.1399999999999999E-002     0.0000000000000000     
  -1.1099999999999999E-002     0.0000000000000000     
  -1.0799999999999999E-002     0.0000000000000000     
  -1.0499999999999999E-002     0.0000000000000000     
  -1.0199999999999999E-002     0.0000000000000000     
  -9.8999999999999991E-003     0.0000000000000000     
  -9.5999999999999992E-003     0.0000000000000000     
  -9.2999999999999992E-003     0.0000000000000000     
  -8.9999999999999993E-003     0.0000000000000000     
  -8.6999999999999994E-003     0.0000000000000000     
  -8.3999999999999995E-003     0.0000000000000000     
  -8.0999999999999996E-003     0.0000000000000000     
  -7.7999999999999988E-003     0.0000000000000000     
  -7.4999999999999997E-003     0.0000000000000000     
  -7.1999999999999998E-003     0.0000000000000000     
  -6.8999999999999981E-003     0.0000000000000000     
  -6.5999999999999982E-003     0.0000000000000000     
  -6.3000000000000000E-003     0.0000000000000000     
  -6.0000000000000001E-003     0.0000000000000000     
  -5.6999999999999985E-003     0.0000000000000000     
  -5.3999999999999986E-003     0.0000000000000000     
  -5.1000000000000004E-003     0.0000000000000000     
  -4.7999999999999987E-003     0.0000000000000000     
  -4.5000000000000005E-003     0.0000000000000000     
  -4.1999999999999989E-003     0.0000000000000000     
  -3.8999999999999990E-003     0.0000000000000000     
  -3.5999999999999990E-003     0.0000000000000000     
  -3.2999999999999991E-003     0.0000000000000000     
  -2.9999999999999992E-003    -2.7558511813340383E-037
  -2.6999999999999993E-003    -9.9016838242046416E-036
  -2.3999999999999994E-003     2.4436708062827727E-035
  -2.0999999999999977E-003     6.5094646975996505E-035
  -1.7999999999999995E-003    -3.6024923079832067E-034
  -1.4999999999999979E-003     2.2092580620689856E-033
  -1.1999999999999997E-003    -5.5482334188613771E-033
  -8.9999999999999976E-004     8.3384257482235298E-033
  -5.9999999999999810E-004     5.6300485603625776E-035
  -2.9999999999999992E-004    -3.8896817133857665E-032
   0.0000000000000000          9.1990155949728900E-032
   3.0000000000000165E-004    -1.1507248040595006E-031
   5.9999999999999984E-004     9.3414772818320955E-032
   9.0000000000000149E-004     1.5958525412695585E-031
   1.2000000000000031E-003    -8.8655379568960241E-031
   1.5000000000000013E-003     1.1558707421692083E-030
   1.8000000000000030E-003     7.0348710150949071E-031
   2.1000000000000012E-003    -4.8249559295603126E-030
   2.3999999999999994E-003     1.1093564118992608E-029
   2.7000000000000010E-003    -8.0546287273146049E-030
   2.9999999999999992E-003    -4.7452924705180804E-029
   3.3000000000000008E-003     1.5135962877549493E-028
   3.6000000000000025E-003    -9.7637787055005978E-029
   3.9000000000000007E-003    -3.9221775169739941E-028
   4.2000000000000023E-003     1.1308727447561470E-027
   4.5000000000000005E-003    -7.8704436809746576E-028
   4.7999999999999987E-003    -2.8466099690938654E-027
   5.1000000000000004E-003     7.9993423202926066E-027
   5.4000000000000020E-003    -2.3524671899146325E-027
   5.7000000000000037E-003    -2.3579194205499950E-026
   5.9999999999999984E-003     3.9838957909346297E-026
   6.3000000000000000E-003     1.8175843672126009E-026
   6.6000000000000017E-003    -1.4206517156034680E-025
   6.9000000000000034E-003     1.2380957435885173E-025
   7.2000000000000015E-003     2.8797616329316246E-025
   7.5000000000000032E-003    -7.0743261182422276E-025
   7.8000000000000014E-003    -1.6148072709321113E-025
   8.0999999999999996E-003     2.3882225507998319E-024
   8.4000000000000012E-003    -1.8848348271754262E-024
   8.7000000000000029E-003    -5.6544910708908897E-024
   9.0000000000000011E-003     1.2015023696007258E-023
   9.2999999999999992E-003     5.8568114105442804E-024
   9.6000000000000009E-003    -4.8893314915672432E-023
   9.8999999999999991E-003     4.0063673689624169E-023
   1.0200000000000001E-002     1.2353711974877399E-022
   1.0500000000000002E-002    -3.1602946736890495E-022
   1.0800000000000004E-002     2.9681289144836801E-023
   1.1099999999999999E-002     1.0299373027275324E-021
   1.1400000000000000E-002    -1.6944635308919300E-021
   1.1700000000000002E-002    -6.4842124782018894E-022
   1.2000000000000004E-002     6.3421266384858259E-021
   1.2300000000000002E-002    -8.0916164613129637E-021
   1.2600000000000000E-002    -5.9589804561603848E-021
   1.2900000000000002E-002     3.2550154871201179E-020
   1.3200000000000000E-002    -3.4179943016000728E-020
   1.3500000000000002E-002    -3.5126699694681685E-020
   1.3800000000000003E-002     1.4375204804162248E-019
   1.4100000000000001E-002    -1.2778845742102352E-019
   1.4400000000000000E-002    -1.6694457683047548E-019
   1.4700000000000001E-002     5.5499233419787316E-019
   1.4999999999999999E-002    -4.1447288214071378E-019
   1.5300000000000001E-002    -6.6979843747412126E-019
   1.5600000000000003E-002     1.8643962379085293E-018
   1.5899999999999997E-002    -1.1716051779351544E-018
   1.6199999999999999E-002    -2.2548128725292170E-018
   1.6500000000000001E-002     5.4418599497669212E-018
   1.6800000000000002E-002    -3.0075497114943098E-018
   1.7100000000000004E-002    -6.1492962424855475E-018
   1.7400000000000006E-002     1.3835959765779488E-017
   1.7700000000000000E-002    -8.2083547551025591E-018
   1.8000000000000002E-002    -1.2401109941368467E-017
   1.8300000000000004E-002     3.2412466806682001E-017
   1.8600000000000005E-002    -2.8031728208768517E-017
   1.8900000000000000E-002    -1.4776878539739169E-017
   1.9200000000000002E-002     7.9641664060654750E-017
   1.9500000000000003E-002    -9.9572733121352662E-017
   1.9799999999999998E-002    -8.0434513369064377E-018
   2.0100000000000000E-002     1.8250087178246430E-016
   2.0400000000000001E-002    -1.5207294692291747E-016
   2.0700000000000003E-002    -4.2550653783205475E-017
   2.0999999999999998E-002    -5.2322178063963793E-016
   2.1299999999999999E-002     1.6701810477036871E-015
   2.1600000000000001E-002     1.8543850909848430E-015
   2.1900000000000003E-002    -1.3420262961355046E-014
   2.2200000000000004E-002     9.1540011044909976E-015
   2.2500000000000006E-002     4.8051765745658198E-014
   2.2800000000000001E-002    -7.2704246323416349E-014
   2.3100000000000002E-002    -1.7156363677807429E-013
   2.3400000000000004E-002     3.9801105120029767E-013
   2.3699999999999999E-002     8.2982866455097448E-013
   2.4000000000000000E-002    -2.9827817733113493E-012
   2.4300000000000002E-002    -2.2191306951746537E-012
   2.4599999999999997E-002     1.9080435148532970E-011
   2.4900000000000005E-002    -8.1097680654229620E-012
   2.5200000000000000E-002    -8.7433324469365914E-011
   2.5499999999999995E-002     1.2099896085082662E-010
   2.5800000000000003E-002     3.0245725368693854E-010
   2.6099999999999998E-002    -7.9038919853502421E-010
   2.6400000000000007E-002    -8.2179008042970736E-010
   2.6700000000000002E-002     4.1799701477884810E-009
   2.6999999999999996E-002     1.3439092061418023E-009
   2.7300000000000005E-002    -2.0650340104566567E-008
   2.7600000000000000E-002     2.7835154181587995E-009
   2.7900000000000008E-002     9.4010026430169091E-008
   2.8200000000000003E-002    -5.3717883474746486E-008
   2.8499999999999998E-002    -4.4261813059165434E-007
   2.8800000000000006E-002     5.5101452289818553E-007
   2.9100000000000001E-002     4.6033592298044823E-006
   2.9400000000000003E-002     1.0023501090472564E-005
   2.9700000000000004E-002     1.5287605492630973E-005
   3.0000000000000006E-002     2.5514991648378782E-005
   3.0300000000000001E-002     4.4934564357390627E-005
   3.0600000000000002E-002     6.7262037191540003E-005
   3.0900000000000004E-002     9.0451467258390039E-005
   3.1199999999999999E-002     1.2965021596755832E-004
   3.1500000000000007E-002     1.9611713651102036E-004
   3.1800000000000002E-002     2.8620724333450198E-004
   3.2099999999999997E-002     4.0736395749263465E-004
   3.2400000000000005E-002     5.8262509992346168E-004
   3.2700000000000000E-002     8.2510063657537103E-004
   3.3000000000000002E-002     1.1400795774534345E-003
   3.3300000000000003E-002     1.5390275511890650E-003
   3.3599999999999998E-002     2.0311598200351000E-003
   3.3900000000000000E-002     2.6213012170046568E-003
   3.4200000000000001E-002     3.3067371696233749E-003
   3.4500000000000003E-002     4.0508755482733250E-003
   3.4799999999999998E-002     4.7769672237336636E-003
   3.5099999999999999E-002     5.3797205910086632E-003
   3.5400000000000001E-002     5.7009342126548290E-003
   3.5699999999999996E-002     5.4946565069258213E-003
   3.6000000000000004E-002     4.4284891337156296E-003
   3.6299999999999999E-002     2.0934930071234703E-003
   3.6600000000000008E-002    -2.0164146553725004E-003
   3.6900000000000002E-002    -8.5246702656149864E-003
   3.7199999999999997E-002    -1.8125366419553757E-002
   3.7500000000000006E-002    -3.1507771462202072E-002
   3.7800000000000000E-002    -4.9327846616506577E-002
   3.8100000000000009E-002    -7.2166271507740021E-002
   3.8400000000000004E-002   -0.10039661079645157     
   3.8699999999999998E-002   -0.13402907550334930     
   3.9000000000000007E-002   -0.17258669435977936     
   3.9300000000000002E-002   -0.21500420570373535     
   3.9600000000000003E-002   -0.25949901342391968     
   3.9900000000000005E-002   -0.30347070097923279     
   4.0200000000000000E-002   -0.34349143505096436     
   4.0500000000000001E-002   -0.37538820505142212     
   4.0800000000000003E-002   -0.39434057474136353     
   4.1100000000000005E-002   -0.39510539174079895     
   4.1399999999999999E-002   -0.37237396836280823     
   4.1700000000000008E-002   -0.32126232981681824     
   4.2000000000000003E-002   -0.23774822056293488     
   4.2299999999999997E-002   -0.11917289346456528     
   4.2600000000000006E-002     3.5154201090335846E-002
   4.2900000000000001E-002    0.22361640632152557     
   4.3200000000000002E-002    0.44194534420967102     
   4.3500000000000004E-002    0.68303990364074707     
   4.3799999999999999E-002    0.93716758489608765     
   4.4100000000000000E-002     1.1922373771667480     
   4.4400000000000002E-002     1.4343343973159790     
   4.4700000000000004E-002     1.6485981941223145     
   4.4999999999999998E-002     1.8201253414154053     
   4.5300000000000000E-002     1.9350345134735107     
   4.5600000000000002E-002     1.9815613031387329     
   4.5899999999999996E-002     1.9508976936340332     
   4.6200000000000005E-002     1.8381371498107910     
   4.6500000000000000E-002     1.6425573825836182     
   4.6799999999999994E-002     1.3681001663208008     
   4.7100000000000003E-002     1.0230307579040527     
   4.7399999999999998E-002    0.61952316761016846     
   4.7700000000000006E-002    0.17303927242755890     
   4.8000000000000001E-002   -0.29892545938491821     
   4.8300000000000010E-002   -0.77758741378784180     
   4.8600000000000004E-002    -1.2441191673278809     
   4.8899999999999999E-002    -1.6809012889862061     
   4.9200000000000008E-002    -2.0718584060668945     
   4.9500000000000002E-002    -2.4036262035369873     
   4.9800000000000011E-002    -2.6658477783203125     
   5.0100000000000006E-002    -2.8510603904724121     
   5.0400000000000000E-002    -2.9551298618316650     
   5.0700000000000009E-002    -2.9766061305999756     
   5.1000000000000004E-002    -2.9167373180389404     
   5.1299999999999998E-002    -2.7790501117706299     
   5.1600000000000007E-002    -2.5689284801483154     
   5.1900000000000002E-002    -2.2936711311340332     
   5.2200000000000010E-002    -1.9618657827377319     
   5.2500000000000005E-002    -1.5834156274795532     
   5.2800000000000000E-002    -1.1697708368301392     
   5.3099999999999994E-002   -0.73320376873016357     
   5.3400000000000003E-002   -0.28704756498336792     
   5.3699999999999998E-002    0.15462012588977814     
   5.4000000000000006E-002    0.57780396938323975     
   5.4300000000000001E-002    0.96849185228347778     
   5.4599999999999996E-002     1.3135521411895752     
   5.4900000000000004E-002     1.6019177436828613     
   5.5199999999999999E-002     1.8242187500000000     
   5.5499999999999994E-002     1.9742251634597778     
   5.5800000000000002E-002     2.0494048595428467     
   5.6099999999999997E-002     2.0501084327697754     
   5.6400000000000006E-002     1.9810657501220703     
   5.6700000000000000E-002     1.8501604795455933     
   5.6999999999999995E-002     1.6677858829498291     
   5.7300000000000004E-002     1.4474064111709595     
   5.7599999999999998E-002     1.2030771970748901     
   5.7900000000000007E-002    0.94915395975112915     
   5.8200000000000002E-002    0.70008552074432373     
   5.8499999999999996E-002    0.46752503514289856     
   5.8800000000000005E-002    0.26121792197227478     
   5.9100000000000000E-002     8.8062718510627747E-002
   5.9400000000000008E-002    -4.9421738833189011E-002
   5.9700000000000003E-002   -0.15142437815666199     
   6.0000000000000012E-002   -0.22146810591220856     
   6.0300000000000006E-002   -0.26635542511940002     
   6.0600000000000001E-002   -0.29364654421806335     
   6.0900000000000010E-002   -0.31226587295532227     
   6.1200000000000004E-002   -0.33092418313026428     
   6.1500000000000013E-002   -0.35600093007087708     
   6.1800000000000008E-002   -0.39236333966255188     
   6.2100000000000002E-002   -0.44149801135063171     
   6.2399999999999997E-002   -0.50122958421707153     
   6.2700000000000006E-002   -0.56703948974609375     
   6.3000000000000000E-002   -0.63112848997116089     
   6.3300000000000009E-002   -0.68407517671585083     
   6.3600000000000004E-002   -0.71656727790832520     
   6.3899999999999998E-002   -0.71955341100692749     
   6.4199999999999993E-002   -0.68654489517211914     
   6.4500000000000002E-002   -0.61443489789962769     
   6.4800000000000010E-002   -0.50361746549606323     
   6.5100000000000005E-002   -0.35940468311309814     
   6.5400000000000000E-002   -0.19069960713386536     
   6.5700000000000008E-002    -9.3810399994254112E-003
   6.5999999999999989E-002    0.17021514475345612     
   6.6299999999999998E-002    0.33384042978286743     
   6.6600000000000006E-002    0.46826276183128357     
   6.6900000000000001E-002    0.56271922588348389     
   6.7199999999999996E-002    0.61077117919921875     
   6.7500000000000004E-002    0.61022096872329712     
   6.7800000000000013E-002    0.56368970870971680     
   6.8099999999999994E-002    0.47862520813941956     
   6.8400000000000002E-002    0.36570405960083008     
   6.8700000000000011E-002    0.23823764920234680     
   6.8999999999999992E-002    0.11060439050197601     
   6.9300000000000000E-002    -3.4424597397446632E-003
   6.9600000000000009E-002    -9.1766662895679474E-002
   6.9900000000000004E-002   -0.14520291984081268     
   7.0199999999999999E-002   -0.15810297429561615     
   7.0500000000000007E-002   -0.12849490344524384     
   7.0800000000000016E-002    -5.8376755565404892E-002
   7.1099999999999997E-002     4.7222699970006943E-002
   7.1400000000000005E-002    0.18061695992946625     
   7.1700000000000000E-002    0.33221006393432617     
   7.1999999999999995E-002    0.49158394336700439     
   7.2300000000000003E-002    0.64791631698608398     
   7.2600000000000012E-002    0.79082828760147095     
   7.2900000000000006E-002    0.91088449954986572     
   7.3200000000000001E-002    0.99966859817504883     
   7.3499999999999996E-002     1.0505614280700684     
   7.3800000000000004E-002     1.0585376024246216     
   7.4099999999999999E-002     1.0203510522842407     
   7.4400000000000008E-002    0.93521988391876221     
   7.4700000000000003E-002    0.80443322658538818     
   7.5000000000000011E-002    0.63177812099456787     
   7.5299999999999992E-002    0.42389070987701416     
   7.5600000000000001E-002    0.18972137570381165     
   7.5900000000000009E-002    -5.9169020503759384E-002
   7.6200000000000004E-002   -0.30914235115051270     
   7.6499999999999999E-002   -0.54545503854751587     
   7.6800000000000007E-002   -0.75238066911697388     
   7.7099999999999988E-002   -0.91475015878677368     
   7.7399999999999997E-002    -1.0190310478210449     
   7.7700000000000005E-002    -1.0539900064468384     
   7.8000000000000014E-002    -1.0119172334671021     
   7.8299999999999995E-002   -0.88939952850341797     
   7.8600000000000003E-002   -0.68762749433517456     
   7.8900000000000012E-002   -0.41279754042625427     
   7.9199999999999993E-002    -7.5950942933559418E-002
   7.9500000000000001E-002    0.30757623910903931     
   7.9800000000000010E-002    0.71853649616241455     
   8.0100000000000018E-002     1.1346535682678223     
   8.0399999999999999E-002     1.5317491292953491     
   8.0700000000000008E-002     1.8844652175903320     
   8.1000000000000003E-002     2.1673603057861328     
   8.1299999999999997E-002     2.3562605381011963     
   8.1600000000000006E-002     2.4290990829467773     
   8.1900000000000014E-002     2.3669397830963135     
   8.2199999999999995E-002     2.1557600498199463     
   8.2500000000000004E-002     1.7868815660476685     
   8.2799999999999999E-002     1.2585737705230713     
   8.3100000000000007E-002    0.57725113630294800     
   8.3400000000000002E-002   -0.24204222857952118     
   8.3700000000000011E-002    -1.1750611066818237     
   8.4000000000000005E-002    -2.1877717971801758     
   8.4300000000000000E-002    -3.2375812530517578     
   8.4599999999999995E-002    -4.2745103836059570     
   8.4900000000000003E-002    -5.2429170608520508     
   8.5199999999999998E-002    -6.0849885940551758     
   8.5500000000000007E-002    -6.7438969612121582     
   8.5800000000000001E-002    -7.1675448417663574     
   8.6100000000000010E-002    -7.3134236335754395     
   8.6399999999999991E-002    -7.1519589424133301     
   8.6699999999999999E-002    -6.6699528694152832     
   8.7000000000000008E-002    -5.8735609054565430     
   8.7300000000000003E-002    -4.7884631156921387     
   8.7599999999999997E-002    -3.4598569869995117     
   8.7900000000000006E-002    -1.9508690834045410     
   8.8200000000000014E-002   -0.33799648284912109     
   8.8499999999999995E-002     1.2934330701828003     
   8.8800000000000004E-002     2.8547761440277100     
   8.9100000000000013E-002     4.2613115310668945     
   8.9399999999999993E-002     5.4386930465698242     
   8.9700000000000002E-002     6.3279485702514648     
   9.0000000000000011E-002     6.8904929161071777     
   9.0299999999999991E-002     7.1112470626831055     
   9.0600000000000000E-002     6.9992017745971680     
   9.0900000000000009E-002     6.5866632461547852     
   9.1200000000000017E-002     5.9264869689941406     
   9.1499999999999998E-002     5.0868768692016602     
   9.1800000000000007E-002     4.1462025642395020     
   9.2100000000000001E-002     3.1866481304168701     
   9.2399999999999996E-002     2.2863030433654785     
   9.2700000000000005E-002     1.5150182247161865     
   9.3000000000000013E-002    0.92788344621658325     
   9.3300000000000008E-002    0.56143456697463989     
   9.3600000000000003E-002    0.43267631530761719     
   9.3899999999999997E-002    0.53722715377807617     
   9.4200000000000006E-002    0.85098868608474731     
   9.4500000000000001E-002     1.3332961797714233     
   9.4800000000000009E-002     1.9293218851089478     
   9.5100000000000004E-002     2.5754489898681641     
   9.5399999999999999E-002     3.2045888900756836     
   9.5699999999999993E-002     3.7493436336517334     
   9.6000000000000002E-002     4.1484713554382324     
   9.6300000000000011E-002     4.3502993583679199     
   9.6600000000000005E-002     4.3157634735107422     
   9.6900000000000000E-002     4.0214786529541016     
   9.7200000000000009E-002     3.4611580371856689     
   9.7499999999999989E-002     2.6455340385437012     
   9.7799999999999998E-002     1.6026523113250732     
   9.8100000000000007E-002    0.37569627165794373     
   9.8400000000000015E-002   -0.98049819469451904     
   9.8699999999999996E-002    -2.4005603790283203     
   9.9000000000000005E-002    -3.8147859573364258     
   9.9300000000000013E-002    -5.1531252861022949     
   9.9599999999999994E-002    -6.3479022979736328     
   9.9900000000000003E-002    -7.3412675857543945     
  0.10020000000000001         -8.0865068435668945     
  0.10049999999999999         -8.5510053634643555     
  0.10080000000000000         -8.7206096649169922     
  0.10110000000000001         -8.5976009368896484     
  0.10140000000000000         -8.2012701034545898     
  0.10170000000000000         -7.5674309730529785     
  0.10200000000000001         -6.7433018684387207     
  0.10230000000000002         -5.7852354049682617     
  0.10260000000000000         -4.7547750473022461     
  0.10290000000000001         -3.7125201225280762     
  0.10320000000000000         -2.7156119346618652     
  0.10350000000000001         -1.8129265308380127     
  0.10380000000000000         -1.0413939952850342     
  0.10410000000000001        -0.42568770051002502     
  0.10440000000000001          2.4283230304718018E-002
  0.10470000000000000         0.31253150105476379     
  0.10500000000000000         0.45346188545227051     
  0.10530000000000000         0.47099471092224121     
  0.10560000000000000         0.39419943094253540     
  0.10590000000000001         0.25205165147781372     
  0.10620000000000000          7.1031570434570312E-002
  0.10650000000000001        -0.12901838123798370     
  0.10679999999999999        -0.33729645609855652     
  0.10710000000000000        -0.55214250087738037     
  0.10740000000000001        -0.77988934516906738     
  0.10770000000000000         -1.0323157310485840     
  0.10800000000000000         -1.3211501836776733     
  0.10830000000000001         -1.6524043083190918     
  0.10859999999999999         -2.0209360122680664     
  0.10890000000000000         -2.4048206806182861     
  0.10920000000000001         -2.7611100673675537     
  0.10950000000000001         -3.0262584686279297     
  0.10979999999999999         -3.1180639266967773     
  0.11009999999999999         -2.9418213367462158     
  0.11040000000000001         -2.4014186859130859     
  0.11070000000000001         -1.4112930297851562     
  0.11100000000000000          8.9477166533470154E-002
  0.11130000000000000          2.1214742660522461     
  0.11160000000000002          4.6554827690124512     
  0.11190000000000001          7.6030945777893066     
  0.11220000000000001          10.814923286437988     
  0.11250000000000000          14.087840080261230     
  0.11280000000000000          17.174337387084961     
  0.11309999999999999          19.802438735961914     
  0.11340000000000001          21.701566696166992     
  0.11369999999999998          22.626054763793945     
  0.11400000000000000          22.382684707641602     
  0.11430000000000000          20.856563568115234     
  0.11460000000000002          18.024496078491211     
  0.11489999999999999          13.967285156250000     
  0.11520000000000001          8.8704862594604492     
  0.11550000000000001          3.0083193778991699     
  0.11580000000000000         -3.2683746814727783     
  0.11609999999999999         -9.5639209747314453     
  0.11640000000000002         -15.470782279968262     
  0.11670000000000001         -20.597440719604492     
  0.11700000000000001         -24.605703353881836     
  0.11730000000000000         -27.236400604248047     
  0.11760000000000000         -28.323701858520508     
  0.11789999999999999         -27.812835693359375     
  0.11820000000000001         -25.755739212036133     
  0.11850000000000001         -22.301700592041016     
  0.11880000000000000         -17.686208724975586     
  0.11910000000000000         -12.204211235046387     
  0.11940000000000002         -6.1861081123352051     
  0.11970000000000001          2.3994803428649902E-002
  0.12000000000000001          6.0956416130065918     
  0.12030000000000000          11.731013298034668     
  0.12060000000000000          16.675943374633789     
  0.12089999999999999          20.733097076416016     
  0.12119999999999999          23.764999389648438     
  0.12150000000000001          25.690353393554688     
  0.12180000000000001          26.484527587890625     
  0.12210000000000000          26.170921325683594     
  0.12239999999999999          24.811683654785156     
  0.12270000000000002          22.504261016845703     
  0.12300000000000001          19.371261596679688     
  0.12330000000000001          15.553132057189941     
  0.12360000000000000          11.205897331237793     
  0.12390000000000000          6.4930567741394043     
  0.12419999999999999          1.5802621841430664     
  0.12450000000000001         -3.3645410537719727     
  0.12480000000000001         -8.1817531585693359     
  0.12509999999999999         -12.721177101135254     
  0.12540000000000001         -16.844364166259766     
  0.12570000000000003         -20.435340881347656     
  0.12600000000000000         -23.398843765258789     
  0.12630000000000002         -25.662563323974609     
  0.12659999999999999         -27.185506820678711     
  0.12690000000000001         -27.950841903686523     
  0.12719999999999998         -27.967683792114258     
  0.12750000000000000         -27.272953033447266     
  0.12780000000000002         -25.920719146728516     
  0.12809999999999999         -23.982481002807617     
  0.12840000000000001         -21.544334411621094     
  0.12869999999999998         -18.695363998413086     
  0.12900000000000000         -15.529025077819824     
  0.12930000000000003         -12.137069702148438     
  0.12959999999999999         -8.6037731170654297     
  0.12990000000000002         -5.0066609382629395     
  0.13019999999999998         -1.4153822660446167     
  0.13050000000000000          2.1118550300598145     
  0.13080000000000003          5.5244040489196777     
  0.13109999999999999          8.7776069641113281     
  0.13140000000000002          11.832219123840332     
  0.13169999999999998          14.651675224304199     
  0.13200000000000001          17.199064254760742     
  0.13229999999999997          19.438415527343750     
  0.13260000000000000          21.330738067626953     
  0.13290000000000002          22.837135314941406     
  0.13319999999999999          23.920608520507812     
  0.13350000000000001          24.546392440795898     
  0.13380000000000003          24.687192916870117     
  0.13410000000000000          24.326421737670898     
  0.13440000000000002          23.459938049316406     
  0.13469999999999999          22.101039886474609     
  0.13500000000000001          20.280801773071289     
  0.13529999999999998          18.048391342163086     
  0.13560000000000000          15.471007347106934     
  0.13590000000000002          12.630866050720215     
  0.13619999999999999          9.6205272674560547     
  0.13650000000000001          6.5388121604919434     
  0.13680000000000003          3.4847910404205322     
  0.13710000000000000         0.55384695529937744     
  0.13740000000000002         -2.1724395751953125     
  0.13769999999999999         -4.6246876716613770     
  0.13800000000000001         -6.7528128623962402     
  0.13829999999999998         -8.5293970108032227     
  0.13860000000000000         -9.9437055587768555     
  0.13890000000000002         -11.006836891174316     
  0.13919999999999999         -11.749084472656250     
  0.13950000000000001         -12.209095954895020     
  0.13979999999999998         -12.438653945922852     
  0.14010000000000000         -12.493423461914062     
  0.14040000000000002         -12.424543380737305     
  0.14069999999999999         -12.283175468444824     
  0.14100000000000001         -12.109509468078613     
  0.14130000000000004         -11.928959846496582     
  0.14160000000000000         -11.759633064270020     
  0.14189999999999997         -11.601606369018555     
  0.14219999999999999         -11.439680099487305     
  0.14250000000000002         -11.254193305969238     
  0.14279999999999998         -11.010498046875000     
  0.14310000000000000         -10.669870376586914     
  0.14339999999999997         -10.198015213012695     
  0.14369999999999999         -9.5571842193603516     
  0.14400000000000002         -8.7199792861938477     
  0.14429999999999998         -7.6732349395751953     
  0.14460000000000001         -6.4109997749328613     
  0.14490000000000003         -4.9463944435119629     
  0.14520000000000000         -3.3094620704650879     
  0.14550000000000002         -1.5377264022827148     
  0.14579999999999999         0.31333747506141663     
  0.14610000000000001          2.1811664104461670     
  0.14640000000000003          4.0028371810913086     
  0.14670000000000000          5.7100343704223633     
  0.14699999999999996          7.2407307624816895     
  0.14729999999999999          8.5433721542358398     
  0.14760000000000001          9.5734186172485352     
  0.14789999999999998          10.301102638244629     
  0.14820000000000000          10.714124679565430     