  -1.4999999999999999E-002     0.0000000000000000     
  -1.4700000000000000E-002     1.5141583080102743E-006
  -1.4400000000000000E-002    -1.3819325110542313E-005
  -1.4100000000000000E-002    -1.2224373543242477E-005
  -1.3800000000000000E-002     1.7037119342120407E-005
  -1.3500000000000000E-002     5.7072299328864021E-005
  -1.3200000000000000E-002     2.1703162089434220E-005
  -1.2899999999999998E-002    -4.7775891068898039E-005
  -1.2600000000000000E-002    -9.4513437989273059E-005
  -1.2299999999999998E-002    -5.6714417945616673E-005
  -1.2000000000000000E-002     7.4518705858947227E-005
  -1.1699999999999999E-002     1.6317031967997241E-004
  -1.1399999999999999E-002     1.7657037764704300E-004
  -1.1099999999999999E-002     1.4782683357489438E-004
  -1.0799999999999999E-002     3.6792976675522043E-006
  -1.0499999999999999E-002    -1.1383790644539437E-004
  -1.0199999999999999E-002    -3.4335843370528890E-004
  -9.8999999999999991E-003    -7.8610498116023393E-004
  -9.5999999999999992E-003    -1.6490169886714829E-003
  -9.2999999999999992E-003    -2.8307393452654660E-003
  -8.9999999999999993E-003    -4.7727548321832170E-003
  -8.6999999999999994E-003    -7.5499819847243115E-003
  -8.3999999999999995E-003    -1.2081426424991827E-002
  -8.0999999999999996E-003    -1.8888043986767172E-002
  -7.7999999999999988E-003    -2.9705446592509923E-002
  -7.4999999999999997E-003    -4.5514487762517666E-002
  -7.1999999999999998E-003    -6.9037861692878566E-002
  -6.8999999999999981E-003   -0.10280313102247468     
  -6.5999999999999982E-003   -0.15089625681604441     
  -6.3000000000000000E-003   -0.21811441857569974     
  -6.0000000000000001E-003   -0.31022513250273964     
  -5.6999999999999985E-003   -0.43464166224446754     
  -5.3999999999999986E-003   -0.59911406820309865     
  -5.1000000000000004E-003   -0.81325526133718729     
  -4.7999999999999987E-003    -1.0862597906839291     
  -4.5000000000000005E-003    -1.4281465976097003     
  -4.1999999999999989E-003    -1.8467614850172698     
  -3.8999999999999990E-003    -2.3480793049036794     
  -3.5999999999999990E-003    -2.9338226819834592     
  -3.2999999999999991E-003    -3.5996166933120719     
  -2.9999999999999992E-003    -4.3335321001766829     
  -2.6999999999999993E-003    -5.1128509004186071     
  -2.3999999999999994E-003    -5.9037285013953280     
  -2.0999999999999977E-003    -6.6590017069566017     
  -1.7999999999999995E-003    -7.3184484627661988     
  -1.4999999999999979E-003    -7.8088027661280393     
  -1.1999999999999997E-003    -8.0475497181840865     
  -8.9999999999999976E-004    -7.9465023176651641     
  -5.9999999999999810E-004    -7.4179365363326326     
  -2.9999999999999992E-004    -6.3821852484814769     
   0.0000000000000000         -4.7764742819735488     
   3.0000000000000165E-004    -2.5649592406889443     
   5.9999999999999984E-004    0.25260461697737924     
   9.0000000000000149E-004     3.6327963591774903     
   1.2000000000000031E-003     7.4841384842333980     
   1.5000000000000013E-003     11.664221230479598     
   1.8000000000000030E-003     15.983551082367796     
   2.1000000000000012E-003     20.213319944980128     
   2.3999999999999994E-003     24.097541380199331     
   2.7000000000000010E-003     27.370020186149205     
   2.9999999999999992E-003     29.775356943107028     
   3.3000000000000008E-003     31.088591845579799     
   3.6000000000000025E-003     31.138189539256928     
   3.9000000000000007E-003     29.821488172584395     
   4.2000000000000023E-003     27.119117899827984     
   4.5000000000000005E-003     23.100786110882723     
   4.7999999999999987E-003     17.923304015018061     
   5.1000000000000004E-003     11.822539452677205     
   5.4000000000000020E-003     5.0968043162192345     
   5.7000000000000037E-003    -1.9166188337584913     
   5.9999999999999984E-003    -8.8637294959310111     
   6.3000000000000000E-003    -15.404943684346222     
   6.6000000000000017E-003    -21.232940615857046     
   6.9000000000000034E-003    -26.100548131336041     
   7.2000000000000015E-003    -29.827852261016290     
   7.5000000000000032E-003    -32.315462780021051     
   7.8000000000000014E-003    -33.539409084855890     
   8.0999999999999996E-003    -33.548816540647294     
   8.4000000000000012E-003    -32.448596383369704     
   8.7000000000000029E-003    -30.388426144059395     
   9.0000000000000011E-003    -27.543392655981847     
   9.2999999999999992E-003    -24.098969580082326     
   9.6000000000000009E-003    -20.234788522707277     
   9.8999999999999991E-003    -16.119236061317906     
   1.0200000000000001E-002    -11.897974117255615     
   1.0500000000000002E-002    -7.6966342529669873     
   1.0800000000000004E-002    -3.6183974961864536     
   1.1099999999999999E-002    0.25100834703445685     
   1.1400000000000000E-002     3.8374377895949863     
   1.1700000000000002E-002     7.0788692191204632     
   1.2000000000000004E-002     9.9156096730453100     
   1.2300000000000002E-002     12.297407281786832     
   1.2600000000000000E-002     14.176232673897047     
   1.2900000000000002E-002     15.516393811900997     
   1.3200000000000000E-002     16.290735679609497     
   1.3500000000000002E-002     16.493032101177448     
   1.3800000000000003E-002     16.134332529562528     
   1.4100000000000001E-002     15.250083294596891     
   1.4400000000000000E-002     13.899614701146106     
   1.4700000000000001E-002     12.163524498638935     
   1.4999999999999999E-002     10.139476220388701     
   1.5300000000000001E-002     7.9410904936301279     
   1.5600000000000003E-002     5.6821140625917224     
   1.5899999999999997E-002     3.4806976784215919     
   1.6199999999999999E-002     1.4394213481904359     
   1.6500000000000001E-002   -0.34917334624877583     
   1.6800000000000002E-002    -1.8188358905489821     
   1.7100000000000004E-002    -2.9225392630169296     
   1.7400000000000006E-002    -3.6423525585959950     
   1.7700000000000000E-002    -3.9824830117883510     
   1.8000000000000002E-002    -3.9706319325537294     
   1.8300000000000004E-002    -3.6537476922506684     
   1.8600000000000005E-002    -3.0912567970018330     
   1.8900000000000000E-002    -2.3535954878970671     
   1.9200000000000002E-002    -1.5136687339927519     
   1.9500000000000003E-002   -0.64536050265495959     
   1.9799999999999998E-002    0.18407293586206563     
   2.0100000000000000E-002    0.91443241922762653     
   2.0400000000000001E-002     1.4978649842731233     
   2.0700000000000003E-002     1.8988768099528812     
   2.0999999999999998E-002     2.0965387253529997     
   2.1299999999999999E-002     2.0852338861151338     
   2.1600000000000001E-002     1.8730548762774788     
   2.1900000000000003E-002     1.4804391888157866     
   2.2200000000000004E-002    0.94145187277787912     
   2.2500000000000006E-002    0.29535145210686853     
   2.2800000000000001E-002   -0.40852418217518860     
   2.3100000000000002E-002    -1.1223626658032870     
   2.3400000000000004E-002    -1.7956902098908802     
   2.3699999999999999E-002    -2.3851075556049324     
   2.4000000000000000E-002    -2.8508645694085573     
   2.4300000000000002E-002    -3.1671547680071512     
   2.4599999999999997E-002    -3.3143051675692590     
   2.4900000000000005E-002    -3.2894702202164439     
   2.5200000000000000E-002    -3.0981533655815809     
   2.5499999999999995E-002    -2.7587694613837357     
   2.5800000000000003E-002    -2.2983318789805907     
   2.6099999999999998E-002    -1.7505616473527184     
   2.6400000000000007E-002    -1.1532410851834705     
   2.6700000000000002E-002   -0.54573034467613724     
   2.6999999999999996E-002     3.5600528016462185E-002
   2.7300000000000005E-002    0.55647622125545837     
   2.7600000000000000E-002    0.99129752049039510     
   2.7900000000000008E-002     1.3192124179572178     
   2.8200000000000003E-002     1.5300425423544333     
   2.8499999999999998E-002     1.6197049449318470     
   2.8800000000000006E-002     1.5940772719354044     
   2.9100000000000001E-002     1.4639011943336016     
   2.9400000000000003E-002     1.2467685064213470     
   2.9700000000000004E-002    0.96403586165291699     
   3.0000000000000006E-002    0.63904827649441742     
   3.0300000000000001E-002    0.29798621947595105     
   3.0600000000000002E-002    -3.6581523106365310E-002
   3.0900000000000004E-002   -0.33934828037932796     
   3.1199999999999999E-002   -0.59356695309215546     
   3.1500000000000007E-002   -0.78115282586887780     
   3.1800000000000002E-002   -0.89274147813899773     
   3.2099999999999997E-002   -0.92125727948415914     
   3.2400000000000005E-002   -0.86788625220411220     
   3.2700000000000000E-002   -0.73654901586375843     
   3.3000000000000002E-002   -0.53828805324104678     
   3.3300000000000003E-002   -0.28741244562522272     
   3.3599999999999998E-002    -2.2291269056862184E-003
   3.3900000000000000E-002    0.29721529625879484     
   3.4200000000000001E-002    0.58910911626822049     
   3.4500000000000003E-002    0.85324551035021212     
   3.4799999999999998E-002     1.0706465810689156     
   3.5099999999999999E-002     1.2262882933425843     
   3.5400000000000001E-002     1.3097182921084425     
   3.5699999999999996E-002     1.3159837551369336     
   3.6000000000000004E-002     1.2456765767091724     
   3.6299999999999999E-002     1.1059048990317848     
   3.6600000000000008E-002    0.90747948357159558     
   3.6900000000000002E-002    0.66772614138740849     
   3.7199999999999997E-002    0.40330236190352942     
   3.7500000000000006E-002    0.13580299541279572     
   3.7800000000000000E-002   -0.11820653350517230     
   3.8100000000000009E-002   -0.34018612775848034     
   3.8400000000000004E-002   -0.51921741579422243     
   3.8699999999999998E-002   -0.64717492806065380     
   3.9000000000000007E-002   -0.72102393734075321     
   3.9300000000000002E-002   -0.74469025795259114     
   3.9600000000000003E-002   -0.72267510868710261     
   3.9900000000000005E-002   -0.66732352346099333     
   4.0200000000000000E-002   -0.58753280187980650     
   4.0500000000000001E-002   -0.49715832577123109     
   4.0800000000000003E-002   -0.40368358834313867     
   4.1100000000000005E-002   -0.31547546978121410     
   4.1399999999999999E-002   -0.23532595651406996     
   4.1700000000000008E-002   -0.16313948051526594     
   4.2000000000000003E-002    -9.6543472707737443E-002
   4.2299999999999997E-002    -3.0299830706326580E-002
   4.2600000000000006E-002     4.1454860142574823E-002
   4.2900000000000001E-002    0.12261691924410645     
   4.3200000000000002E-002    0.21572068486806373     
   4.3500000000000004E-002    0.31972319059068255     
   4.3799999999999999E-002    0.42986559268899605     
   4.4100000000000000E-002    0.53755597116064946     
   4.4400000000000002E-002    0.63238057421759919     
   4.4700000000000004E-002    0.70221049372772448     
   4.4999999999999998E-002    0.73485570980940196     
   4.5300000000000000E-002    0.72185188629874375     
   4.5600000000000002E-002    0.65660153345506345     
   4.5899999999999996E-002    0.53979760303378477     
   4.6200000000000005E-002    0.37523053787179439     
   4.6500000000000000E-002    0.17329558691233671     
   4.6799999999999994E-002    -5.1195210215827291E-002
   4.7100000000000003E-002   -0.28253467116638742     
   4.7399999999999998E-002   -0.50103423239257516     
   4.7700000000000006E-002   -0.69231409485601070     
   4.8000000000000001E-002   -0.84040093805090166     
   4.8300000000000010E-002   -0.93749463265435651     
   4.8600000000000004E-002   -0.97829116968085472     
   4.8899999999999999E-002   -0.96364229358838926     
   4.9200000000000008E-002   -0.90001107428822991     
   4.9500000000000002E-002   -0.79570561822855979     
   4.9800000000000011E-002   -0.66399611641321554     
   5.0100000000000006E-002   -0.51541919562963479     
   5.0400000000000000E-002   -0.36446152824327704     
   5.0700000000000009E-002   -0.21880265792642173     
   5.1000000000000004E-002    -8.7994528052336651E-002
   5.1299999999999998E-002     2.3846667595281978E-002
   5.1600000000000007E-002    0.11605455750579097     
   5.1900000000000002E-002    0.18780542456667604     
   5.2200000000000010E-002    0.24338969010807432     
   5.2500000000000005E-002    0.28537275744411694     
   5.2800000000000000E-002    0.31843399585774002     
   5.3099999999999994E-002    0.34601452675625666     
   5.3400000000000003E-002    0.37098129360158616     
   5.3699999999999998E-002    0.39518178687785444     
   5.4000000000000006E-002    0.41906550798744635     
   5.4300000000000001E-002    0.44284922703127183     
   5.4599999999999996E-002    0.46420403251546105     
   5.4900000000000004E-002    0.48243499342216367     
   5.5199999999999999E-002    0.49472186530655726     
   5.5499999999999994E-002    0.49884206991997360     
   5.5800000000000002E-002    0.49302842785534828     
   5.6099999999999997E-002    0.47477155442220997     
   5.6400000000000006E-002    0.44320211558965639     
   5.6700000000000000E-002    0.39675418113584371     
   5.6999999999999995E-002    0.33635715044797898     
   5.7300000000000004E-002    0.26177577949235342     
   5.7599999999999998E-002    0.17589776046634231     
   5.7900000000000007E-002     8.0387086503268979E-002
   5.8200000000000002E-002    -2.0081581754582079E-002
   5.8499999999999996E-002   -0.12182731292855387     
   5.8800000000000005E-002   -0.21919638865832347     
   5.9100000000000000E-002   -0.30796138069666767     
   5.9400000000000008E-002   -0.38308901035974130     
   5.9700000000000003E-002   -0.44073633523965672     
   6.0000000000000012E-002   -0.47850601888450850     
   6.0300000000000006E-002   -0.49487219931966031     
   6.0600000000000001E-002   -0.49007450694175958     
   6.0900000000000010E-002   -0.46531116264818984     
   6.1200000000000004E-002   -0.42387445240803068     
   6.1500000000000013E-002   -0.36877091616067759     
   6.1800000000000008E-002   -0.30448740882593484     
   6.2100000000000002E-002   -0.23515814097810583     
   6.2399999999999997E-002   -0.16501574749736658     
   6.2700000000000006E-002    -9.7561877424254817E-002
   6.3000000000000000E-002    -3.6026879180597327E-002
   6.3300000000000009E-002     1.7407251944328461E-002
   6.3600000000000004E-002     6.0401192653374736E-002
   6.3899999999999998E-002     9.2894694911093811E-002
   6.4199999999999993E-002    0.11359758624258065     
   6.4500000000000002E-002    0.12340245031635377     
   6.4800000000000010E-002    0.12258787987299813     
   6.5100000000000005E-002    0.11307028840050704     
   6.5400000000000000E-002     9.5631423389587689E-002
   6.5700000000000008E-002     7.3491287463582355E-002
   6.5999999999999989E-002     4.8155440032506491E-002
   6.6299999999999998E-002     2.2683107542831926E-002
   6.6600000000000006E-002    -5.2108322032035082E-004
   6.6900000000000001E-002    -1.9036933886505014E-002
   6.7199999999999996E-002    -3.1089437979450407E-002
   6.7500000000000004E-002    -3.5493314284194222E-002
   6.7800000000000013E-002    -3.1682703956123159E-002
   6.8099999999999994E-002    -1.9325639198709443E-002
   6.8400000000000002E-002    -4.7869817508275347E-004
   6.8700000000000011E-002     2.4897199802840775E-002
   6.8999999999999992E-002     5.3193722416356004E-002
   6.9300000000000000E-002     8.3444283200338365E-002
   6.9600000000000009E-002    0.11266225953935194     
   6.9900000000000004E-002    0.13898128596696324     
   7.0199999999999999E-002    0.16051592667460213     
   7.0500000000000007E-002    0.17603217270886118     
   7.0800000000000016E-002    0.18436149270006563     
   7.1099999999999997E-002    0.18478966671505059     
   7.1400000000000005E-002    0.17801318999481186     
   7.1700000000000000E-002    0.16275241716889699     
   7.1999999999999995E-002    0.14158086659785152     
   7.2300000000000003E-002    0.11398084327716962     
   7.2600000000000012E-002     8.2617023809296253E-002
   7.2900000000000006E-002     4.7444887935847779E-002
   7.3200000000000001E-002     1.2047215863395744E-002
   7.3499999999999996E-002    -2.3472509987178869E-002
   7.3800000000000004E-002    -5.5433249130702578E-002
   7.4099999999999999E-002    -8.3847918807969934E-002
   7.4400000000000008E-002   -0.10566816612666641     
   7.4700000000000003E-002   -0.12138865906242113     
   7.5000000000000011E-002   -0.12908747405825993     
   7.5299999999999992E-002   -0.12956605583375658     
   7.5600000000000001E-002   -0.12299808424476888     
   7.5900000000000009E-002   -0.11022533532028023     
   7.6200000000000004E-002    -9.3744589687024149E-002
   7.6499999999999999E-002    -7.3638929114558493E-002
   7.6800000000000007E-002    -5.3259579184098405E-002
   7.7099999999999988E-002    -3.3090230040446977E-002
   7.7399999999999997E-002    -1.5554549420143338E-002
   7.7700000000000005E-002    -1.0137128888527275E-003
   7.8000000000000014E-002     9.3763159724720713E-003
   7.8299999999999995E-002     1.5412566583122400E-002
   7.8600000000000003E-002     1.7113419544839803E-002
   7.8900000000000012E-002     1.4640596500915426E-002
   7.9199999999999993E-002     8.7617945587574186E-003
   7.9500000000000001E-002     1.4987036365557427E-004
   7.9800000000000010E-002    -1.0160129031428572E-002
   8.0100000000000018E-002    -2.2039379191431951E-002
   8.0399999999999999E-002    -3.3686387687663522E-002
   8.0700000000000008E-002    -4.4616171378141223E-002
   8.1000000000000003E-002    -5.3980408672382962E-002
   8.1299999999999997E-002    -6.0686925855085949E-002
   8.1600000000000006E-002    -6.4101725400875109E-002
   8.1900000000000014E-002    -6.3860392613207528E-002
   8.2199999999999995E-002    -5.9529556463310485E-002
   8.2500000000000004E-002    -5.0943139610561960E-002
   8.2799999999999999E-002    -3.8657552688032171E-002
   8.3100000000000007E-002    -2.2663497806575172E-002
   8.3400000000000002E-002    -4.7970703547657867E-003
   8.3700000000000011E-002     1.4466723039847584E-002
   8.4000000000000005E-002     3.3147461904966966E-002
   8.4300000000000000E-002     5.1129060832263873E-002
   8.4599999999999995E-002     6.5673296608639409E-002
   8.4900000000000003E-002     7.7265327907470649E-002
   8.5199999999999998E-002     8.3911632709961603E-002
   8.5500000000000007E-002     8.6139403041210594E-002
   8.5800000000000001E-002     8.3666072648545864E-002
   8.6100000000000010E-002     7.7087054271362643E-002
   8.6399999999999991E-002     6.7004849596730587E-002
   8.6699999999999999E-002     5.3907419892951225E-002
   8.7000000000000008E-002     3.9544909578364651E-002
   8.7300000000000003E-002     2.3539092254432736E-002
   8.7599999999999997E-002     8.0483631567550562E-003
   8.7900000000000006E-002    -7.1525488918617874E-003
   8.8200000000000014E-002    -2.0691103255294253E-002
   8.8499999999999995E-002    -3.2362207179597535E-002
   8.8800000000000004E-002    -4.1578530017935877E-002
   8.9100000000000013E-002    -4.7379722463834484E-002
   8.9399999999999993E-002    -5.0495089968658480E-002
   8.9700000000000002E-002    -4.9487774080354430E-002
   9.0000000000000011E-002    -4.5257055971806848E-002
   9.0299999999999991E-002    -3.7332190717775215E-002
   9.0600000000000000E-002    -2.6949079831616346E-002
   9.0900000000000009E-002    -1.4132642216177854E-002
   9.1200000000000017E-002    -2.8768053341490796E-004
   9.1499999999999998E-002     1.3509454057870629E-002
   9.1800000000000007E-002     2.6707056202320389E-002
   9.2100000000000001E-002     3.7215320136158803E-002
   9.2399999999999996E-002     4.5372238573053725E-002
   9.2700000000000005E-002     4.9233344275379398E-002
   9.3000000000000013E-002     4.9550153026835186E-002
   9.3300000000000008E-002     4.5787511417606619E-002
   9.3600000000000003E-002     3.8572845623740193E-002
   9.3899999999999997E-002     2.8759224712657183E-002
   9.4200000000000006E-002     1.6559988645066942E-002
   9.4500000000000001E-002     3.6767649143601422E-003
   9.4800000000000009E-002    -9.3915324903627584E-003
   9.5100000000000004E-002    -2.1855138851062716E-002
   9.5399999999999999E-002    -3.2294062940446344E-002
   9.5699999999999993E-002    -4.1406984820149262E-002
   9.6000000000000002E-002    -4.7027506631787119E-002
   9.6300000000000011E-002    -5.1088478213439537E-002
   9.6600000000000005E-002    -5.1111996865544906E-002
   9.6900000000000000E-002    -4.9361796578867745E-002
   9.7200000000000009E-002    -4.4022177373230775E-002
   9.7499999999999989E-002    -3.6570739182491985E-002
   9.7799999999999998E-002    -2.7395754497435754E-002
   9.8100000000000007E-002    -1.6234911662560109E-002
   9.8400000000000015E-002    -5.3934298383599977E-003
   9.8699999999999996E-002     6.6924637976834428E-003
   9.9000000000000005E-002     1.6349338098522570E-002
   9.9300000000000013E-002     2.5534051774305011E-002
   9.9599999999999994E-002     3.1602237347786666E-002
   9.9900000000000003E-002     3.5228761764868444E-002
  0.10020000000000001          3.6279286583317916E-002
  0.10049999999999999          3.3869564658018658E-002
  0.10080000000000000          2.9897204321697679E-002
  0.10110000000000001          2.3404578598862136E-002
  0.10140000000000000          1.6027737655236129E-002
  0.10170000000000000          8.0263950616890067E-003
  0.10200000000000001         -1.3930160180203321E-004
  0.10230000000000002         -7.1081433962890961E-003
  0.10260000000000000         -1.3959298532714548E-002
  0.10290000000000001         -1.8220753233899878E-002
  0.10320000000000000         -2.2482047255868221E-002
  0.10350000000000001         -2.3765321086224866E-002
  0.10380000000000000         -2.4830141007168183E-002
  0.10410000000000001         -2.3577496900301559E-002
  0.10440000000000001         -2.1012893791480358E-002
  0.10470000000000000         -1.7420154499751261E-002
  0.10500000000000000         -1.1683310886047404E-002
  0.10530000000000000         -6.0179930250610081E-003
  0.10560000000000000          1.5858409932029138E-003
  0.10590000000000001          8.4330147628959157E-003
  0.10620000000000000          1.6086776599753827E-002
  0.10650000000000001          2.2475526448097249E-002
  0.10679999999999999          2.7653092142840840E-002
  0.10710000000000000          3.1257932208555217E-002
  0.10740000000000001          3.2162134624140082E-002
  0.10770000000000000          3.1350359424340779E-002
  0.10800000000000000          2.7945329255298565E-002
  0.10830000000000001          2.2768462555807278E-002
  0.10859999999999999          1.6030417009445963E-002
  0.10890000000000000          8.1469045406001861E-003
  0.10920000000000001          2.6872631427557470E-004
  0.10950000000000001         -7.9967374911983496E-003
  0.10979999999999999         -1.4568532661921874E-002
  0.11009999999999999         -2.0976226660814279E-002
  0.11040000000000001         -2.5082007592259203E-002
  0.11070000000000001         -2.8146143343886432E-002
  0.11100000000000000         -2.9444812087057792E-002
  0.11130000000000000         -2.8877730944618818E-002
  0.11160000000000002         -2.7290052174236697E-002
  0.11190000000000001         -2.3765182112003957E-002
  0.11220000000000001         -1.9360752113840030E-002
  0.11250000000000000         -1.3736221107294888E-002
  0.11280000000000000         -7.2352541249515179E-003
  0.11309999999999999         -5.3526156743366471E-004
  0.11340000000000001          6.9782829700777288E-003
  0.11369999999999998          1.3287265159968586E-002
  0.11400000000000000          1.9989825683239593E-002
  0.11430000000000000          2.4338289981346461E-002
  0.11460000000000002          2.7789663087879946E-002
  0.11489999999999999          2.8943429045618918E-002
  0.11520000000000001          2.8447435751324010E-002
  0.11550000000000001          2.6038809431599197E-002
  0.11580000000000000          2.1272011173677663E-002
  0.11609999999999999          1.6384003002906322E-002
  0.11640000000000002          9.0973114120546095E-003
  0.11670000000000001          2.9796639406136360E-003
  0.11700000000000001         -4.2115161810830221E-003
  0.11730000000000000         -9.8911468042504336E-003
  0.11760000000000000         -1.5348753496337020E-002
  0.11789999999999999         -1.9471597407988983E-002
  0.11820000000000001         -2.2266726518266333E-002
  0.11850000000000001         -2.4052522341470539E-002
  0.11880000000000000         -2.4120751912520083E-002
  0.11910000000000000         -2.3745823127936494E-002
  0.11940000000000002         -2.1597170321996886E-002
  0.11970000000000001         -1.8871197711885612E-002
  0.12000000000000001         -1.5406497222735294E-002
  0.12030000000000000         -1.0476367403989162E-002
  0.12060000000000000         -5.5783521786009760E-003
  0.12089999999999999          4.4760526342235707E-004
  0.12119999999999999          5.8763142323247815E-003
  0.12150000000000001          1.1985830914391732E-002
  0.12180000000000001          1.6701402236736884E-002
  0.12210000000000000          2.0892110249165874E-002
  0.12239999999999999          2.3826847842239485E-002
  0.12270000000000002          2.4880890755070620E-002
  0.12300000000000001          2.4611122319847661E-002
  0.12330000000000001          2.2134967070104650E-002
  0.12360000000000000          1.8585797028523754E-002
  0.12390000000000000          1.3649371021130841E-002
  0.12419999999999999          7.8367436651710642E-003
  0.12450000000000001          1.8845294176994543E-003
  0.12480000000000001         -4.1768652718878613E-003
  0.12509999999999999         -9.7447811425427910E-003
  0.12540000000000001         -1.4705955073129828E-002
  0.12570000000000003         -1.7922011053260245E-002
  0.12600000000000000         -2.0516245266357147E-002
  0.12630000000000002         -2.1385722386221842E-002
  0.12659999999999999         -2.0923301204249178E-002
  0.12690000000000001         -1.9248726493554524E-002
  0.12719999999999998         -1.5992714866236324E-002
  0.12750000000000000         -1.2116172826048599E-002
  0.12780000000000002         -6.5046062934727700E-003
  0.12809999999999999         -1.3102009666601244E-003
  0.12840000000000001          5.0073777290674387E-003
  0.12869999999999998          1.0722292540029238E-002
  0.12900000000000000          1.6110164127525028E-002
  0.12930000000000003          2.0345981497603138E-002
  0.12959999999999999          2.3332563880938684E-002
  0.12990000000000002          2.4751929599185443E-002
  0.13019999999999998          2.4160285695503381E-002
  0.13050000000000000          2.1839944592238758E-002
  0.13080000000000003          1.7828275907397217E-002
  0.13109999999999999          1.2335682227294253E-002
  0.13140000000000002          6.2151152701950263E-003
  0.13169999999999998         -5.4774201671670131E-004
  0.13200000000000001         -6.9797936827531541E-003
  0.13229999999999997         -1.3166841394646467E-002
  0.13260000000000000         -1.7982824869104741E-002
  0.13290000000000002         -2.1915052127843726E-002
  0.13319999999999999         -2.4112198765476323E-002
  0.13350000000000001         -2.5186263890182303E-002
  0.13380000000000003         -2.4421476689704999E-002
  0.13410000000000000         -2.2804700441119541E-002
  0.13440000000000002         -1.9631951287719551E-002
  0.13469999999999999         -1.5751252938436822E-002
  0.13500000000000001         -1.0600511318277606E-002
  0.13529999999999998         -5.3587219196147284E-003
  0.13560000000000000          4.8264018996682645E-004
  0.13590000000000002          6.2073011815026169E-003
  0.13619999999999999          1.1720604609807672E-002
  0.13650000000000001          1.6864335496004579E-002
  0.13680000000000003          2.0648190509075182E-002
  0.13710000000000000          2.3692473341590858E-002
  0.13740000000000002          2.4765274551246205E-002
  0.13769999999999999          2.4613592032598774E-002
  0.13800000000000001          2.2518398127819417E-002
  0.13829999999999998          1.9147065432240207E-002
  0.13860000000000000          1.4290330237195170E-002
  0.13890000000000002          8.5697340029565749E-003
  0.13919999999999999          2.4075110982696435E-003
  0.13950000000000001         -3.9287957529368228E-003
  0.13979999999999998         -9.8920198125912601E-003
  0.14010000000000000         -1.4824261790046145E-002
  0.14040000000000002         -1.8926887774367407E-002
  0.14069999999999999         -2.1320491050052126E-002
  0.14100000000000001         -2.2991353115486876E-002
  0.14130000000000004         -2.2488258821577289E-002
  0.14160000000000000         -2.1507593096965427E-002
  0.14189999999999997         -1.8676298104632783E-002
  0.14219999999999999         -1.5313220804921812E-002
  0.14250000000000002         -1.0661357698687701E-002
  0.14279999999999998         -5.8000784783652226E-003
  0.14310000000000000         -3.5222218268837757E-004
  0.14339999999999997          5.1067474406083502E-003
  0.14369999999999999          1.0407545630930104E-002
  0.14400000000000002          1.5078325986727759E-002
  0.14429999999999998          1.9390915819994470E-002
  0.14460000000000001          2.1906437930370337E-002
  0.14490000000000003          2.3826540551733028E-002
  0.14520000000000000          2.3571367863024939E-002
  0.14550000000000002          2.2242302285510940E-002
  0.14579999999999999          1.9097365975964453E-002
  0.14610000000000001          1.4861602548430830E-002
  0.14640000000000003          9.4761357951445024E-003
  0.14670000000000000          3.3013237069840495E-003
  0.14699999999999996         -2.7167702027531548E-003
  0.14729999999999999         -9.0006437339539003E-003
  0.14760000000000001         -1.3982882221743709E-002
  0.14789999999999998         -1.8402956244675306E-002
  0.14820000000000000         -2.1327411345318403E-002