  -1.4999999999999999E-002     0.0000000000000000     
  -1.4700000000000000E-002     0.0000000000000000     
  -1.4400000000000000E-002     0.0000000000000000     
  -1.4100000000000000E-002     0.0000000000000000     
  -1.3800000000000000E-002     0.0000000000000000     
  -1.3500000000000000E-002     0.0000000000000000     
  -1.3200000000000000E-002     0.0000000000000000     
  -1.2899999999999998E-002     0.0000000000000000     
  -1.2600000000000000E-002     0.0000000000000000     
  -1.2299999999999998E-002     0.0000000000000000     
  -1.2000000000000000E-002     0.0000000000000000     
  -1.1699999999999999E-002     0.0000000000000000     
  -1.1399999999999999E-002     0.0000000000000000     
  -1.1099999999999999E-002     0.0000000000000000     
  -1.0799999999999999E-002     0.0000000000000000     
  -1.0499999999999999E-002     0.0000000000000000     
  -1.0199999999999999E-002     0.0000000000000000     
  -9.8999999999999991E-003     0.0000000000000000     
  -9.5999999999999992E-003     0.0000000000000000     
  -9.2999999999999992E-003     0.0000000000000000     
  -8.9999999999999993E-003     0.0000000000000000     
  -8.6999999999999994E-003     0.0000000000000000     
  -8.3999999999999995E-003     0.0000000000000000     
  -8.0999999999999996E-003     0.0000000000000000     
  -7.7999999999999988E-003     0.0000000000000000     
  -7.4999999999999997E-003     0.0000000000000000     
  -7.1999999999999998E-003     0.0000000000000000     
  -6.8999999999999981E-003     0.0000000000000000     
  -6.5999999999999982E-003     0.0000000000000000     
  -6.3000000000000000E-003     0.0000000000000000     
  -6.0000000000000001E-003     0.0000000000000000     
  -5.6999999999999985E-003     0.0000000000000000     
  -5.3999999999999986E-003     0.0000000000000000     
  -5.1000000000000004E-003     0.0000000000000000     
  -4.7999999999999987E-003     0.0000000000000000     
  -4.5000000000000005E-003     0.0000000000000000     
  -4.1999999999999989E-003     0.0000000000000000     
  -3.8999999999999990E-003     0.0000000000000000     
  -3.5999999999999990E-003     0.0000000000000000     
  -3.2999999999999991E-003     0.0000000000000000     
  -2.9999999999999992E-003     0.0000000000000000     
  -2.6999999999999993E-003     0.0000000000000000     
  -2.3999999999999994E-003     0.0000000000000000     
  -2.0999999999999977E-003     0.0000000000000000     
  -1.7999999999999995E-003     0.0000000000000000     
  -1.4999999999999979E-003     0.0000000000000000     
  -1.1999999999999997E-003     0.0000000000000000     
  -8.9999999999999976E-004     0.0000000000000000     
  -5.9999999999999810E-004     0.0000000000000000     
  -2.9999999999999992E-004     0.0000000000000000     
   0.0000000000000000          0.0000000000000000     
   3.0000000000000165E-004     0.0000000000000000     
   5.9999999999999984E-004     0.0000000000000000     
   9.0000000000000149E-004     0.0000000000000000     
   1.2000000000000031E-003     0.0000000000000000     
   1.5000000000000013E-003     0.0000000000000000     
   1.8000000000000030E-003     0.0000000000000000     
   2.1000000000000012E-003     0.0000000000000000     
   2.3999999999999994E-003     0.0000000000000000     
   2.7000000000000010E-003     0.0000000000000000     
   2.9999999999999992E-003     0.0000000000000000     
   3.3000000000000008E-003     0.0000000000000000     
   3.6000000000000025E-003     0.0000000000000000     
   3.9000000000000007E-003     0.0000000000000000     
   4.2000000000000023E-003     0.0000000000000000     
   4.5000000000000005E-003     0.0000000000000000     
   4.7999999999999987E-003     0.0000000000000000     
   5.1000000000000004E-003     0.0000000000000000     
   5.4000000000000020E-003     0.0000000000000000     
   5.7000000000000037E-003     0.0000000000000000     
   5.9999999999999984E-003     0.0000000000000000     
   6.3000000000000000E-003     0.0000000000000000     
   6.6000000000000017E-003     0.0000000000000000     
   6.9000000000000034E-003     0.0000000000000000     
   7.2000000000000015E-003     0.0000000000000000     
   7.5000000000000032E-003     0.0000000000000000     
   7.8000000000000014E-003     0.0000000000000000     
   8.0999999999999996E-003     0.0000000000000000     
   8.4000000000000012E-003     0.0000000000000000     
   8.7000000000000029E-003     0.0000000000000000     
   9.0000000000000011E-003     0.0000000000000000     
   9.2999999999999992E-003     0.0000000000000000     
   9.6000000000000009E-003     0.0000000000000000     
   9.8999999999999991E-003     0.0000000000000000     
   1.0200000000000001E-002     0.0000000000000000     
   1.0500000000000002E-002     0.0000000000000000     
   1.0800000000000004E-002     0.0000000000000000     
   1.1099999999999999E-002     0.0000000000000000     
   1.1400000000000000E-002     0.0000000000000000     
   1.1700000000000002E-002     0.0000000000000000     
   1.2000000000000004E-002     0.0000000000000000     
   1.2300000000000002E-002     0.0000000000000000     
   1.2600000000000000E-002     0.0000000000000000     
   1.2900000000000002E-002     0.0000000000000000     
   1.3200000000000000E-002     0.0000000000000000     
   1.3500000000000002E-002     0.0000000000000000     
   1.3800000000000003E-002     0.0000000000000000     
   1.4100000000000001E-002     0.0000000000000000     
   1.4400000000000000E-002     0.0000000000000000     
   1.4700000000000001E-002     0.0000000000000000     
   1.4999999999999999E-002     0.0000000000000000     
   1.5300000000000001E-002     0.0000000000000000     
   1.5600000000000003E-002     0.0000000000000000     
   1.5899999999999997E-002     0.0000000000000000     
   1.6199999999999999E-002     0.0000000000000000     
   1.6500000000000001E-002     0.0000000000000000     
   1.6800000000000002E-002     0.0000000000000000     
   1.7100000000000004E-002     0.0000000000000000     
   1.7400000000000006E-002     0.0000000000000000     
   1.7700000000000000E-002     0.0000000000000000     
   1.8000000000000002E-002     0.0000000000000000     
   1.8300000000000004E-002     0.0000000000000000     
   1.8600000000000005E-002     0.0000000000000000     
   1.8900000000000000E-002     0.0000000000000000     
   1.9200000000000002E-002     0.0000000000000000     
   1.9500000000000003E-002     0.0000000000000000     
   1.9799999999999998E-002     0.0000000000000000     
   2.0100000000000000E-002     0.0000000000000000     
   2.0400000000000001E-002     0.0000000000000000     
   2.0700000000000003E-002     0.0000000000000000     
   2.0999999999999998E-002     0.0000000000000000     
   2.1299999999999999E-002     0.0000000000000000     
   2.1600000000000001E-002     0.0000000000000000     
   2.1900000000000003E-002     0.0000000000000000     
   2.2200000000000004E-002     0.0000000000000000     
   2.2500000000000006E-002     0.0000000000000000     
   2.2800000000000001E-002     0.0000000000000000     
   2.3100000000000002E-002     0.0000000000000000     
   2.3400000000000004E-002     0.0000000000000000     
   2.3699999999999999E-002     0.0000000000000000     
   2.4000000000000000E-002     0.0000000000000000     
   2.4300000000000002E-002     0.0000000000000000     
   2.4599999999999997E-002     0.0000000000000000     
   2.4900000000000005E-002     0.0000000000000000     
   2.5200000000000000E-002     0.0000000000000000     
   2.5499999999999995E-002     0.0000000000000000     
   2.5800000000000003E-002     0.0000000000000000     
   2.6099999999999998E-002     0.0000000000000000     
   2.6400000000000007E-002     0.0000000000000000     
   2.6700000000000002E-002     0.0000000000000000     
   2.6999999999999996E-002     0.0000000000000000     
   2.7300000000000005E-002     0.0000000000000000     
   2.7600000000000000E-002     0.0000000000000000     
   2.7900000000000008E-002     0.0000000000000000     
   2.8200000000000003E-002     0.0000000000000000     
   2.8499999999999998E-002     0.0000000000000000     
   2.8800000000000006E-002     0.0000000000000000     
   2.9100000000000001E-002     0.0000000000000000     
   2.9400000000000003E-002     0.0000000000000000     
   2.9700000000000004E-002     0.0000000000000000     
   3.0000000000000006E-002     0.0000000000000000     
   3.0300000000000001E-002     0.0000000000000000     
   3.0600000000000002E-002     0.0000000000000000     
   3.0900000000000004E-002     0.0000000000000000     
   3.1199999999999999E-002     0.0000000000000000     
   3.1500000000000007E-002     0.0000000000000000     
   3.1800000000000002E-002     0.0000000000000000     
   3.2099999999999997E-002    -3.6293966537644200E-037
   3.2400000000000005E-002    -6.2566626701422245E-036
   3.2700000000000000E-002     6.2824484990407982E-035
   3.3000000000000002E-002    -3.1680238562007794E-034
   3.3300000000000003E-002    -6.0225020430639836E-034
   3.3599999999999998E-002     6.1694880607427102E-033
   3.3900000000000000E-002    -1.8455120248587815E-032
   3.4200000000000001E-002     2.9111611305741295E-032
   3.4500000000000003E-002     3.8514584574536659E-032
   3.4799999999999998E-002    -5.3897431612320993E-031
   3.5099999999999999E-002     2.7120522298894759E-030
   3.5400000000000001E-002    -9.6901871167662387E-030
   3.5699999999999996E-002     2.5157368115959356E-029
   3.6000000000000004E-002    -3.3663392692520796E-029
   3.6299999999999999E-002    -9.6783179716308447E-029
   3.6600000000000008E-002     9.4184965406233959E-028
   3.6900000000000002E-002    -4.2616846846164537E-027
   3.7199999999999997E-002     1.3523163623547858E-026
   3.7500000000000006E-002    -2.8929717250871327E-026
   3.7800000000000000E-002     1.5761551819880613E-026
   3.8100000000000009E-002     2.1178839614927304E-025
   3.8400000000000004E-002    -1.2878346562578665E-024
   3.8699999999999998E-002     4.7578914875393182E-024
   3.9000000000000007E-002    -1.2946414411861792E-023
   3.9300000000000002E-002     2.5312115179232378E-023
   3.9600000000000003E-002    -2.5452073303314879E-023
   3.9900000000000005E-002    -4.2277990473361445E-023
   4.0200000000000000E-002     2.6625865513670088E-022
   4.0500000000000001E-002    -5.6287883733225425E-022
   4.0800000000000003E-002    -9.6124323199201423E-023
   4.1100000000000005E-002     5.2325393754444487E-021
   4.1399999999999999E-002    -2.1062730966397890E-020
   4.1700000000000008E-002     4.3682112448044010E-020
   4.2000000000000003E-002     5.7326686065479214E-021
   4.2299999999999997E-002    -4.9379177391570059E-019
   4.2600000000000006E-002     2.5852740087859892E-018
   4.2900000000000001E-002    -8.9438084823489690E-018
   4.3200000000000002E-002     2.2662288748811226E-017
   4.3500000000000004E-002    -3.5542137741500883E-017
   4.3799999999999999E-002    -1.9487668819506212E-017
   4.4100000000000000E-002     3.9036071886564027E-016
   4.4400000000000002E-002    -1.6558760376531013E-015
   4.4700000000000004E-002     4.3686465408469388E-015
   4.4999999999999998E-002    -6.2946143862042427E-015
   4.5300000000000000E-002    -6.2216878140609628E-015
   4.5600000000000002E-002     7.1460890048273551E-014
   4.5899999999999996E-002    -2.3748545989986380E-013
   4.6200000000000005E-002     4.0586877934033205E-013
   4.6500000000000000E-002     1.3018332614168904E-013
   4.6799999999999994E-002    -3.1701509906750802E-012
   4.7100000000000003E-002     9.9060568775621860E-012
   4.7399999999999998E-002    -1.1899636657985990E-011
   4.7700000000000006E-002    -2.5162103303721928E-011
   4.8000000000000001E-002     1.4720270835599791E-010
   4.8300000000000010E-002    -2.6008067921523548E-010
   4.8600000000000004E-002    -1.7974799426667687E-010
   4.8899999999999999E-002     1.9331551914802958E-009
   4.9200000000000008E-002    -3.4074036925346718E-009
   4.9500000000000002E-002    -3.4016234273792634E-009
   4.9800000000000011E-002     2.4607198056969537E-008
   5.0100000000000006E-002    -2.4087581707021855E-008
   5.0400000000000000E-002    -8.8963538757980132E-008
   5.0700000000000009E-002     2.2287622414296493E-007
   5.1000000000000004E-002     1.8912402310888865E-007
   5.1299999999999998E-002    -1.2053187674609944E-006
   5.1600000000000007E-002    -3.6999546182414633E-007
   5.1900000000000002E-002     7.7432823673007078E-006
   5.2200000000000010E-002     2.1234085579635575E-005
   5.2500000000000005E-002     4.0208778955275193E-005
   5.2800000000000000E-002     7.2494323831051588E-005
   5.3099999999999994E-002     1.1151743092341349E-004
   5.3400000000000003E-002     1.4327280223369598E-004
   5.3699999999999998E-002     1.8946634372696280E-004
   5.4000000000000006E-002     2.8917868621647358E-004
   5.4300000000000001E-002     4.4741600868292153E-004
   5.4599999999999996E-002     6.6106324084103107E-004
   5.4900000000000004E-002     9.6015789313241839E-004
   5.5199999999999999E-002     1.3854317367076874E-003
   5.5499999999999994E-002     1.9679968245327473E-003
   5.5800000000000002E-002     2.7388017624616623E-003
   5.6099999999999997E-002     3.7328207399696112E-003
   5.6400000000000006E-002     4.9877050332725048E-003
   5.6700000000000000E-002     6.5339212305843830E-003
   5.6999999999999995E-002     8.3753876388072968E-003
   5.7300000000000004E-002     1.0469581931829453E-002
   5.7599999999999998E-002     1.2717873789370060E-002
   5.7900000000000007E-002     1.4963583089411259E-002
   5.8200000000000002E-002     1.6947407275438309E-002
   5.8499999999999996E-002     1.8257269635796547E-002
   5.8800000000000005E-002     1.8356895074248314E-002
   5.9100000000000000E-002     1.6582513228058815E-002
   5.9400000000000008E-002     1.2081447988748550E-002
   5.9700000000000003E-002     3.8519906811416149E-003
   6.0000000000000012E-002    -9.1534582898020744E-003
   6.0300000000000006E-002    -2.7967242524027824E-002
   6.0600000000000001E-002    -5.3509268909692764E-002
   6.0900000000000010E-002    -8.6431138217449188E-002
   6.1200000000000004E-002   -0.12693323194980621     
   6.1500000000000013E-002   -0.17455893754959106     
   6.1800000000000008E-002   -0.22799231112003326     
   6.2100000000000002E-002   -0.28488755226135254     
   6.2399999999999997E-002   -0.34178581833839417     
   6.2700000000000006E-002   -0.39411219954490662     
   6.3000000000000000E-002   -0.43622124195098877     
   6.3300000000000009E-002   -0.46165290474891663     
   6.3600000000000004E-002   -0.46360281109809875     
   6.3899999999999998E-002   -0.43542483448982239     
   6.4199999999999993E-002   -0.37123855948448181     
   6.4500000000000002E-002   -0.26672527194023132     
   6.4800000000000010E-002   -0.11987742036581039     
   6.5100000000000005E-002     6.8391099572181702E-002
   6.5400000000000000E-002    0.29370000958442688     
   6.5700000000000008E-002    0.54804289340972900     
   6.5999999999999989E-002    0.81978684663772583     
   6.6299999999999998E-002     1.0941916704177856     
   6.6600000000000006E-002     1.3542168140411377     
   6.6900000000000001E-002     1.5815656185150146     
   6.7199999999999996E-002     1.7581701278686523     
   6.7500000000000004E-002     1.8676699399948120     
   6.7800000000000013E-002     1.8968234062194824     
   6.8099999999999994E-002     1.8368579149246216     
   6.8400000000000002E-002     1.6845091581344604     
   6.8700000000000011E-002     1.4424377679824829     
   6.8999999999999992E-002     1.1194522380828857     
   6.9300000000000000E-002    0.72988295555114746     
   6.9600000000000009E-002    0.29270184040069580     
   6.9900000000000004E-002   -0.16987214982509613     
   7.0199999999999999E-002   -0.63395756483078003     
   7.0500000000000007E-002    -1.0758070945739746     
   7.0800000000000016E-002    -1.4733824729919434     
   7.1099999999999997E-002    -1.8080066442489624     
   7.1400000000000005E-002    -2.0653080940246582     
   7.1700000000000000E-002    -2.2359549999237061     
   7.1999999999999995E-002    -2.3162846565246582     
   7.2300000000000003E-002    -2.3076984882354736     
   7.2600000000000012E-002    -2.2164151668548584     
   7.2900000000000006E-002    -2.0528829097747803     
   7.3200000000000001E-002    -1.8303319215774536     
   7.3499999999999996E-002    -1.5640608072280884     
   7.3800000000000004E-002    -1.2704411745071411     
   7.4099999999999999E-002   -0.96550852060317993     
   7.4400000000000008E-002   -0.66452217102050781     
   7.4700000000000003E-002   -0.38110676407814026     
   7.5000000000000011E-002   -0.12641675770282745     
   7.5299999999999992E-002     9.0750150382518768E-002
   7.5600000000000001E-002    0.26461946964263916     
   7.5900000000000009E-002    0.39241433143615723     
   7.6200000000000004E-002    0.47416961193084717     
   7.6499999999999999E-002    0.51283890008926392     
   7.6800000000000007E-002    0.51363414525985718     
   7.7099999999999988E-002    0.48369935154914856     
   7.7399999999999997E-002    0.43186452984809875     
   7.7700000000000005E-002    0.36753958463668823     
   7.8000000000000014E-002    0.30017897486686707     
   7.8299999999999995E-002    0.23886309564113617     
   7.8600000000000003E-002    0.19120897352695465     
   7.8900000000000012E-002    0.16325119137763977     
   7.9199999999999993E-002    0.15888269245624542     
   7.9500000000000001E-002    0.17951726913452148     
   7.9800000000000010E-002    0.22444488108158112     
   8.0100000000000018E-002    0.29074659943580627     
   8.0399999999999999E-002    0.37377926707267761     
   8.0700000000000008E-002    0.46785748004913330     
   8.1000000000000003E-002    0.56649816036224365     
   8.1299999999999997E-002    0.66325652599334717     
   8.1600000000000006E-002    0.75234794616699219     
   8.1900000000000014E-002    0.82876801490783691     
   8.2199999999999995E-002    0.88881331682205200     
   8.2500000000000004E-002    0.93007212877273560     
   8.2799999999999999E-002    0.95142948627471924     
   8.3100000000000007E-002    0.95290434360504150     
   8.3400000000000002E-002    0.93520975112915039     
   8.3700000000000011E-002    0.89971649646759033     
   8.4000000000000005E-002    0.84787166118621826     
   8.4300000000000000E-002    0.78100287914276123     
   8.4599999999999995E-002    0.70051801204681396     
   8.4900000000000003E-002    0.60738235712051392     
   8.5199999999999998E-002    0.50246238708496094     
   8.5500000000000007E-002    0.38705015182495117     
   8.5800000000000001E-002    0.26246657967567444     
   8.6100000000000010E-002    0.13069604337215424     
   8.6399999999999991E-002    -5.1035899668931961E-003
   8.6699999999999999E-002   -0.14132514595985413     
   8.7000000000000008E-002   -0.27314338088035583     
   8.7300000000000003E-002   -0.39509052038192749     
   8.7599999999999997E-002   -0.50170654058456421     
   8.7900000000000006E-002   -0.58734190464019775     
   8.8200000000000014E-002   -0.64722871780395508     
   8.8499999999999995E-002   -0.67819440364837646     
   8.8800000000000004E-002   -0.67855376005172729     
   8.9100000000000013E-002   -0.64892292022705078     
   8.9399999999999993E-002   -0.59248685836791992     
   8.9700000000000002E-002   -0.51422309875488281     
   9.0000000000000011E-002   -0.42122805118560791     
   9.0299999999999991E-002   -0.32208308577537537     
   9.0600000000000000E-002   -0.22546786069869995     
   9.0900000000000009E-002   -0.14013461768627167     
   9.1200000000000017E-002    -7.3950849473476410E-002
   9.1499999999999998E-002    -3.2593559473752975E-002
   9.1800000000000007E-002    -1.9691372290253639E-002
   9.2100000000000001E-002    -3.6388363689184189E-002
   9.2399999999999996E-002    -8.0805025994777679E-002
   9.2700000000000005E-002   -0.14895915985107422     
   9.3000000000000013E-002   -0.23481214046478271     
   9.3300000000000008E-002   -0.33067914843559265     
   9.3600000000000003E-002   -0.42855489253997803     
   9.3899999999999997E-002   -0.52033519744873047     
   9.4200000000000006E-002   -0.59843885898590088     
   9.4500000000000001E-002   -0.65695720911026001     
   9.4800000000000009E-002   -0.69135695695877075     
   9.5100000000000004E-002   -0.69903600215911865     
   9.5399999999999999E-002   -0.67958122491836548     
   9.5699999999999993E-002   -0.63389927148818970     
   9.6000000000000002E-002   -0.56453949213027954     
   9.6300000000000011E-002   -0.47535899281501770     
   9.6600000000000005E-002   -0.37037169933319092     
   9.6900000000000000E-002   -0.25401541590690613     
   9.7200000000000009E-002   -0.13060615956783295     
   9.7499999999999989E-002    -3.6207856610417366E-003
   9.7799999999999998E-002    0.12386154383420944     
   9.8100000000000007E-002    0.24975204467773438     
   9.8400000000000015E-002    0.37267118692398071     
   9.8699999999999996E-002    0.49156460165977478     
   9.9000000000000005E-002    0.60588824748992920     
   9.9300000000000013E-002    0.71498817205429077     
   9.9599999999999994E-002    0.81766104698181152     
   9.9900000000000003E-002    0.91236132383346558     
  0.10020000000000001         0.99662369489669800     
  0.10049999999999999          1.0671256780624390     
  0.10080000000000000          1.1200656890869141     
  0.10110000000000001          1.1511043310165405     
  0.10140000000000000          1.1558003425598145     
  0.10170000000000000          1.1302515268325806     
  0.10200000000000001          1.0713943243026733     
  0.10230000000000002         0.97750234603881836     
  0.10260000000000000         0.84860163927078247     
  0.10290000000000001         0.68653625249862671     
  0.10320000000000000         0.49517706036567688     
  0.10350000000000001         0.28011253476142883     
  0.10380000000000000          4.8465449362993240E-002
  0.10410000000000001        -0.19145995378494263     
  0.10440000000000001        -0.43087875843048096     
  0.10470000000000000        -0.66086286306381226     
  0.10500000000000000        -0.87290316820144653     
  0.10530000000000000         -1.0592126846313477     
  0.10560000000000000         -1.2130820751190186     
  0.10590000000000001         -1.3291305303573608     
  0.10620000000000000         -1.4033105373382568     
  0.10650000000000001         -1.4328072071075439     
  0.10679999999999999         -1.4161821603775024     
  0.10710000000000000         -1.3531285524368286     
  0.10740000000000001         -1.2445596456527710     
  0.10770000000000000         -1.0926362276077271     
  0.10800000000000000        -0.90062463283538818     
  0.10830000000000001        -0.67313069105148315     
  0.10859999999999999        -0.41615274548530579     
  0.10890000000000000        -0.13711458444595337     
  0.10920000000000001         0.15512225031852722     
  0.10950000000000001         0.45043456554412842     
  0.10979999999999999         0.73757743835449219     
  0.11009999999999999          1.0046197175979614     
  0.11040000000000001          1.2396916151046753     
  0.11070000000000001          1.4312084913253784     
  0.11100000000000000          1.5690423250198364     
  0.11130000000000000          1.6452142000198364     
  0.11160000000000002          1.6542630195617676     
  0.11190000000000001          1.5942775011062622     
  0.11220000000000001          1.4671714305877686     
  0.11250000000000000          1.2785098552703857     
  0.11280000000000000          1.0376158952713013     
  0.11309999999999999         0.75712555646896362     
  0.11340000000000001         0.45201438665390015     
  0.11369999999999998         0.13863795995712280     
  0.11400000000000000        -0.16641247272491455     
  0.11430000000000000        -0.44743379950523376     
  0.11460000000000002        -0.69103968143463135     
  0.11489999999999999        -0.88711041212081909     
  0.11520000000000001         -1.0292452573776245     
  0.11550000000000001         -1.1153863668441772     
  0.11580000000000000         -1.1479028463363647     
  0.11609999999999999         -1.1328613758087158     
  0.11640000000000002         -1.0793050527572632     
  0.11670000000000001        -0.99823033809661865     
  0.11700000000000001        -0.90155518054962158     
  0.11730000000000000        -0.80048114061355591     
  0.11760000000000000        -0.70445805788040161     
  0.11789999999999999        -0.62064790725708008     
  0.11820000000000001        -0.55296516418457031     
  0.11850000000000001        -0.50209528207778931     
  0.11880000000000000        -0.46602118015289307     
  0.11910000000000000        -0.44030159711837769     
  0.11940000000000002        -0.41931843757629395     
  0.11970000000000001        -0.39725446701049805     
  0.12000000000000001        -0.36895942687988281     
  0.12030000000000000        -0.33128812909126282     
  0.12060000000000000        -0.28324261307716370     
  0.12089999999999999        -0.22611840069293976     
  0.12119999999999999        -0.16409613192081451     
  0.12150000000000001        -0.10267525166273117     
  0.12180000000000001         -4.8127669841051102E-002
  0.12210000000000000         -6.9984029978513718E-003
  0.12239999999999999          1.5985710546374321E-002
  0.12270000000000002          1.8056135624647141E-002
  0.12300000000000001         -9.7545830067247152E-004
  0.12330000000000001         -3.7691649049520493E-002
  0.12360000000000000         -8.6201965808868408E-002
  0.12390000000000000        -0.13843710720539093     
  0.12419999999999999        -0.18463285267353058     
  0.12450000000000001        -0.21529328823089600     
  0.12480000000000001        -0.22188729047775269     
  0.12509999999999999        -0.19791974127292633     
  0.12540000000000001        -0.14037781953811646     
  0.12570000000000003         -4.9258239567279816E-002
  0.12600000000000000          7.1816653013229370E-002
  0.12630000000000002         0.21577924489974976     
  0.12659999999999999         0.37369695305824280     
  0.12690000000000001         0.53506028652191162     
  0.12719999999999998         0.68901151418685913     
  0.12750000000000000         0.82587856054306030     
  0.12780000000000002         0.93754941225051880     
  0.12809999999999999          1.0180255174636841     
  0.12840000000000001          1.0641236305236816     
  0.12869999999999998          1.0751711130142212     
  0.12900000000000000          1.0526614189147949     
  0.12930000000000003         0.99978989362716675     
  0.12959999999999999         0.92095720767974854     
  0.12990000000000002         0.82111883163452148     
  0.13019999999999998         0.70532214641571045     
  0.13050000000000000         0.57877707481384277     
  0.13080000000000003         0.44647744297981262     
  0.13109999999999999         0.31330558657646179     
  0.13140000000000002         0.18433360755443573     
  0.13169999999999998          6.4796984195709229E-002
  0.13200000000000001         -3.9698243141174316E-002
  0.13229999999999997        -0.12345996499061584     
  0.13260000000000000        -0.18097238242626190     
  0.13290000000000002        -0.20716905593872070     
  0.13319999999999999        -0.19835051894187927     
  0.13350000000000001        -0.15267701447010040     
  0.13380000000000003         -7.0589572191238403E-002
  0.13410000000000000          4.4331572949886322E-002
  0.13440000000000002         0.18572473526000977     
  0.13469999999999999         0.34451457858085632     
  0.13500000000000001         0.50904774665832520     
  0.13529999999999998         0.66642618179321289     
  0.13560000000000000         0.80321240425109863     
  0.13590000000000002         0.90656220912933350     
  0.13619999999999999         0.96560364961624146     
  0.13650000000000001         0.97197639942169189     
  0.13680000000000003         0.92098331451416016     
  0.13710000000000000         0.81204843521118164     
  0.13740000000000002         0.64825701713562012     
  0.13769999999999999         0.43684574961662292     
  0.13800000000000001         0.18824853003025055     
  0.13829999999999998         -8.5074752569198608E-002
  0.13860000000000000        -0.36854717135429382     
  0.13890000000000002        -0.64739078283309937     
  0.13919999999999999        -0.90757870674133301     
  0.13950000000000001         -1.1359045505523682     
  0.13979999999999998         -1.3219053745269775     
  0.14010000000000000         -1.4577398300170898     
  0.14040000000000002         -1.5381320714950562     
  0.14069999999999999         -1.5616253614425659     
  0.14100000000000001         -1.5296741724014282     
  0.14130000000000004         -1.4462465047836304     
  0.14160000000000000         -1.3181779384613037     
  0.14189999999999997         -1.1539258956909180     
  0.14219999999999999        -0.96317470073699951     
  0.14250000000000002        -0.75676852464675903     
  0.14279999999999998        -0.54528474807739258     
  0.14310000000000000        -0.33904743194580078     
  0.14339999999999997        -0.14787201583385468     
  0.14369999999999999          2.0068302750587463E-002
  0.14400000000000002         0.15777273476123810     
  0.14429999999999998         0.25980445742607117     
  0.14460000000000001         0.32312673330307007     
  0.14490000000000003         0.34631696343421936     
  0.14520000000000000         0.33002129197120667     
  0.14550000000000002         0.27758035063743591     
  0.14579999999999999         0.19393581151962280     
  0.14610000000000001          8.6078375577926636E-002
  0.14640000000000003         -3.6839522421360016E-002
  0.14670000000000000        -0.16489355266094208     
  0.14699999999999996        -0.28718408942222595     
  0.14729999999999999        -0.39257115125656128     
  0.14760000000000001        -0.47092023491859436     
  0.14789999999999998        -0.51349318027496338     
  0.14820000000000000        -0.51404845714569092     