  -1.4999999999999999E-002     0.0000000000000000     
  -1.4700000000000000E-002     0.0000000000000000     
  -1.4400000000000000E-002     0.0000000000000000     
  -1.4100000000000000E-002     0.0000000000000000     
  -1.3800000000000000E-002     0.0000000000000000     
  -1.3500000000000000E-002     0.0000000000000000     
  -1.3200000000000000E-002     0.0000000000000000     
  -1.2899999999999998E-002     0.0000000000000000     
  -1.2600000000000000E-002     0.0000000000000000     
  -1.2299999999999998E-002     0.0000000000000000     
  -1.2000000000000000E-002     0.0000000000000000     
  -1.1699999999999999E-002     0.0000000000000000     
  -1.1399999999999999E-002     0.0000000000000000     
  -1.1099999999999999E-002     0.0000000000000000     
  -1.0799999999999999E-002     0.0000000000000000     
  -1.0499999999999999E-002     0.0000000000000000     
  -1.0199999999999999E-002     0.0000000000000000     
  -9.8999999999999991E-003     0.0000000000000000     
  -9.5999999999999992E-003     0.0000000000000000     
  -9.2999999999999992E-003     0.0000000000000000     
  -8.9999999999999993E-003     0.0000000000000000     
  -8.6999999999999994E-003     0.0000000000000000     
  -8.3999999999999995E-003     0.0000000000000000     
  -8.0999999999999996E-003     0.0000000000000000     
  -7.7999999999999988E-003     0.0000000000000000     
  -7.4999999999999997E-003     0.0000000000000000     
  -7.1999999999999998E-003     0.0000000000000000     
  -6.8999999999999981E-003     0.0000000000000000     
  -6.5999999999999982E-003     0.0000000000000000     
  -6.3000000000000000E-003     0.0000000000000000     
  -6.0000000000000001E-003     0.0000000000000000     
  -5.6999999999999985E-003     0.0000000000000000     
  -5.3999999999999986E-003     0.0000000000000000     
  -5.1000000000000004E-003     0.0000000000000000     
  -4.7999999999999987E-003     0.0000000000000000     
  -4.5000000000000005E-003     0.0000000000000000     
  -4.1999999999999989E-003     0.0000000000000000     
  -3.8999999999999990E-003     0.0000000000000000     
  -3.5999999999999990E-003     0.0000000000000000     
  -3.2999999999999991E-003     0.0000000000000000     
  -2.9999999999999992E-003     0.0000000000000000     
  -2.6999999999999993E-003     0.0000000000000000     
  -2.3999999999999994E-003     0.0000000000000000     
  -2.0999999999999977E-003     0.0000000000000000     
  -1.7999999999999995E-003     0.0000000000000000     
  -1.4999999999999979E-003     0.0000000000000000     
  -1.1999999999999997E-003     0.0000000000000000     
  -8.9999999999999976E-004     0.0000000000000000     
  -5.9999999999999810E-004     0.0000000000000000     
  -2.9999999999999992E-004     0.0000000000000000     
   0.0000000000000000          0.0000000000000000     
   3.0000000000000165E-004     0.0000000000000000     
   5.9999999999999984E-004     0.0000000000000000     
   9.0000000000000149E-004     0.0000000000000000     
   1.2000000000000031E-003     0.0000000000000000     
   1.5000000000000013E-003     0.0000000000000000     
   1.8000000000000030E-003     0.0000000000000000     
   2.1000000000000012E-003     0.0000000000000000     
   2.3999999999999994E-003     0.0000000000000000     
   2.7000000000000010E-003     0.0000000000000000     
   2.9999999999999992E-003     0.0000000000000000     
   3.3000000000000008E-003     0.0000000000000000     
   3.6000000000000025E-003     0.0000000000000000     
   3.9000000000000007E-003     0.0000000000000000     
   4.2000000000000023E-003     0.0000000000000000     
   4.5000000000000005E-003     0.0000000000000000     
   4.7999999999999987E-003     0.0000000000000000     
   5.1000000000000004E-003     0.0000000000000000     
   5.4000000000000020E-003     0.0000000000000000     
   5.7000000000000037E-003     0.0000000000000000     
   5.9999999999999984E-003     0.0000000000000000     
   6.3000000000000000E-003     0.0000000000000000     
   6.6000000000000017E-003     0.0000000000000000     
   6.9000000000000034E-003     0.0000000000000000     
   7.2000000000000015E-003     0.0000000000000000     
   7.5000000000000032E-003     0.0000000000000000     
   7.8000000000000014E-003     0.0000000000000000     
   8.0999999999999996E-003     0.0000000000000000     
   8.4000000000000012E-003     0.0000000000000000     
   8.7000000000000029E-003     0.0000000000000000     
   9.0000000000000011E-003     0.0000000000000000     
   9.2999999999999992E-003     0.0000000000000000     
   9.6000000000000009E-003     0.0000000000000000     
   9.8999999999999991E-003     0.0000000000000000     
   1.0200000000000001E-002     0.0000000000000000     
   1.0500000000000002E-002     0.0000000000000000     
   1.0800000000000004E-002     0.0000000000000000     
   1.1099999999999999E-002     0.0000000000000000     
   1.1400000000000000E-002     0.0000000000000000     
   1.1700000000000002E-002     0.0000000000000000     
   1.2000000000000004E-002     0.0000000000000000     
   1.2300000000000002E-002     0.0000000000000000     
   1.2600000000000000E-002     0.0000000000000000     
   1.2900000000000002E-002     0.0000000000000000     
   1.3200000000000000E-002     0.0000000000000000     
   1.3500000000000002E-002     0.0000000000000000     
   1.3800000000000003E-002     0.0000000000000000     
   1.4100000000000001E-002     0.0000000000000000     
   1.4400000000000000E-002     0.0000000000000000     
   1.4700000000000001E-002     0.0000000000000000     
   1.4999999999999999E-002     0.0000000000000000     
   1.5300000000000001E-002     0.0000000000000000     
   1.5600000000000003E-002     0.0000000000000000     
   1.5899999999999997E-002     0.0000000000000000     
   1.6199999999999999E-002     0.0000000000000000     
   1.6500000000000001E-002     0.0000000000000000     
   1.6800000000000002E-002     0.0000000000000000     
   1.7100000000000004E-002     0.0000000000000000     
   1.7400000000000006E-002     0.0000000000000000     
   1.7700000000000000E-002     0.0000000000000000     
   1.8000000000000002E-002     0.0000000000000000     
   1.8300000000000004E-002     0.0000000000000000     
   1.8600000000000005E-002     0.0000000000000000     
   1.8900000000000000E-002     0.0000000000000000     
   1.9200000000000002E-002     0.0000000000000000     
   1.9500000000000003E-002     0.0000000000000000     
   1.9799999999999998E-002     0.0000000000000000     
   2.0100000000000000E-002     0.0000000000000000     
   2.0400000000000001E-002     0.0000000000000000     
   2.0700000000000003E-002     0.0000000000000000     
   2.0999999999999998E-002     0.0000000000000000     
   2.1299999999999999E-002     0.0000000000000000     
   2.1600000000000001E-002     0.0000000000000000     
   2.1900000000000003E-002     0.0000000000000000     
   2.2200000000000004E-002     0.0000000000000000     
   2.2500000000000006E-002     0.0000000000000000     
   2.2800000000000001E-002     0.0000000000000000     
   2.3100000000000002E-002     0.0000000000000000     
   2.3400000000000004E-002    -1.2662905991975846E-036
   2.3699999999999999E-002     8.0146753128131601E-036
   2.4000000000000000E-002     1.2174970369056978E-034
   2.4300000000000002E-002    -6.0109454642274620E-035
   2.4599999999999997E-002    -1.6810145484497103E-034
   2.4900000000000005E-002     4.7682826315152197E-034
   2.5200000000000000E-002    -1.9274533115975046E-033
   2.5499999999999995E-002     4.9065663175780151E-033
   2.5800000000000003E-002    -9.1345821945637110E-033
   2.6099999999999998E-002     6.7623978604058716E-033
   2.6400000000000007E-002     1.1496821846513594E-032
   2.6700000000000002E-002    -4.3642087994087600E-032
   2.6999999999999996E-002     6.2072578697289811E-032
   2.7300000000000005E-002    -8.8039868980224201E-033
   2.7600000000000000E-002    -1.6158506389129227E-031
   2.7900000000000008E-002     3.8566730679433486E-031
   2.8200000000000003E-002    -3.9539962419287186E-031
   2.8499999999999998E-002    -2.1008423282952414E-031
   2.8800000000000006E-002     1.5365117996886362E-030
   2.9100000000000001E-002    -2.6966415929897438E-030
   2.9400000000000003E-002     1.6628153763003087E-030
   2.9700000000000004E-002     2.1520540562424873E-030
   3.0000000000000006E-002     7.8196837058507831E-031
   3.0300000000000001E-002    -4.3616908599464455E-029
   3.0600000000000002E-002     1.7171049716359736E-028
   3.0900000000000004E-002    -3.1195447682031552E-028
   3.1199999999999999E-002    -6.1746493649145719E-029
   3.1500000000000007E-002     2.1657706225936449E-027
   3.1800000000000002E-002    -7.8727070338453015E-027
   3.2099999999999997E-002     2.8500509125697054E-026
   3.2400000000000005E-002    -1.5689611403109950E-025
   3.2700000000000000E-002     8.4364019534046409E-025
   3.3000000000000002E-002    -3.2647690927254590E-024
   3.3300000000000003E-002     6.9756871478686186E-024
   3.3599999999999998E-002     8.7744036077428773E-024
   3.3900000000000000E-002    -1.5435866000045345E-022
   3.4200000000000001E-002     7.5785778812161219E-022
   3.4500000000000003E-002    -2.2260882292738561E-021
   3.4799999999999998E-002     3.1562524241929522E-021
   3.5099999999999999E-002     6.4491705952161500E-021
   3.5400000000000001E-002    -5.6934072542549162E-020
   3.5699999999999996E-002     1.9218661360799053E-019
   3.6000000000000004E-002    -3.5969842954352425E-019
   3.6299999999999999E-002     5.3864696095048977E-020
   3.6600000000000008E-002     2.2904362327894257E-018
   3.6900000000000002E-002    -9.4623266493278344E-018
   3.7199999999999997E-002     2.3012976932586757E-017
   3.7500000000000006E-002    -3.3508696185274026E-017
   3.7800000000000000E-002    -6.4526076566771043E-018
   3.8100000000000009E-002     2.4689477812223917E-016
   3.8400000000000004E-002    -1.0500242871846750E-015
   3.8699999999999998E-002     2.9474093233742378E-015
   3.9000000000000007E-002    -5.4577373639875214E-015
   3.9300000000000002E-002     2.3914552250373783E-015
   3.9600000000000003E-002     2.7635369781952267E-014
   3.9900000000000005E-002    -1.2282948096131729E-013
   4.0200000000000000E-002     2.8115728603790580E-013
   4.0500000000000001E-002    -2.6501690382138565E-013
   4.0800000000000003E-002    -6.6182714690554700E-013
   4.1100000000000005E-002     3.4003654926506588E-012
   4.1399999999999999E-002    -6.6575577516159168E-012
   4.1700000000000008E-002     2.3714890728249172E-012
   4.2000000000000003E-002     2.4153791813863457E-011
   4.2299999999999997E-002    -7.1263592249515284E-011
   4.2600000000000006E-002     6.4825443624183521E-011
   4.2900000000000001E-002     1.6923687451431135E-010
   4.3200000000000002E-002    -7.0560146614440100E-010
   4.3500000000000004E-002     8.9348850540460489E-010
   4.3799999999999999E-002     1.2606224952804723E-009
   4.4100000000000000E-002    -7.5109340968992910E-009
   4.4400000000000002E-002     1.1752049999813607E-008
   4.4700000000000004E-002     1.1466045002350711E-008
   4.4999999999999998E-002    -8.8704695144770085E-008
   4.5300000000000000E-002     1.1874980287984727E-007
   4.5600000000000002E-002     2.5082934484998987E-007
   4.5899999999999996E-002    -1.1192329338882701E-006
   4.6200000000000005E-002     3.3261528642469784E-008
   4.6500000000000000E-002     1.1043473932659253E-005
   4.6799999999999994E-002     2.6497915314394049E-005
   4.7100000000000003E-002     3.3334166801068932E-005
   4.7399999999999998E-002     3.3163625630550086E-005
   4.7700000000000006E-002     4.2529147322056815E-005
   4.8000000000000001E-002     7.3830349720083177E-005
   4.8300000000000010E-002     1.1915207142010331E-004
   4.8600000000000004E-002     1.7223483882844448E-004
   4.8899999999999999E-002     2.5447932421229780E-004
   4.9200000000000008E-002     3.8199420669116080E-004
   4.9500000000000002E-002     5.5206532124429941E-004
   4.9800000000000011E-002     7.7025895006954670E-004
   5.0100000000000006E-002     1.0605207644402981E-003
   5.0400000000000000E-002     1.4484410639852285E-003
   5.0700000000000009E-002     1.9296915270388126E-003
   5.1000000000000004E-002     2.5008630473166704E-003
   5.1299999999999998E-002     3.1816072296351194E-003
   5.1600000000000007E-002     3.9685908704996109E-003
   5.1900000000000002E-002     4.8100692220032215E-003
   5.2200000000000010E-002     5.6293401867151260E-003
   5.2500000000000005E-002     6.3471635803580284E-003
   5.2800000000000000E-002     6.8125319667160511E-003
   5.3099999999999994E-002     6.8151149898767471E-003
   5.3400000000000003E-002     6.1257430352270603E-003
   5.3699999999999998E-002     4.4269957579672337E-003
   5.4000000000000006E-002     1.3418572489172220E-003
   5.4300000000000001E-002    -3.5440740175545216E-003
   5.4599999999999996E-002    -1.0625969618558884E-002
   5.4900000000000004E-002    -2.0260797813534737E-002
   5.5199999999999999E-002    -3.2795511186122894E-002
   5.5499999999999994E-002    -4.8457872122526169E-002
   5.5800000000000002E-002    -6.7288994789123535E-002
   5.6099999999999997E-002    -8.9111022651195526E-002
   5.6400000000000006E-002   -0.11350094527006149     
   5.6700000000000000E-002   -0.13974617421627045     
   5.6999999999999995E-002   -0.16684322059154510     
   5.7300000000000004E-002   -0.19356249272823334     
   5.7599999999999998E-002   -0.21841721236705780     
   5.7900000000000007E-002   -0.23979680240154266     
   5.8200000000000002E-002   -0.25610908865928650     
   5.8499999999999996E-002   -0.26587653160095215     
   5.8800000000000005E-002   -0.26786434650421143     
   5.9100000000000000E-002   -0.26115703582763672     
   5.9400000000000008E-002   -0.24534577131271362     
   5.9700000000000003E-002   -0.22051443159580231     
   6.0000000000000012E-002   -0.18727238476276398     
   6.0300000000000006E-002   -0.14671194553375244     
   6.0600000000000001E-002   -0.10034330934286118     
   6.0900000000000010E-002    -4.9960374832153320E-002
   6.1200000000000004E-002     2.4932760279625654E-003
   6.1500000000000013E-002     5.5069930851459503E-002
   6.1800000000000008E-002    0.10589748620986938     
   6.2100000000000002E-002    0.15332923829555511     
   6.2399999999999997E-002    0.19586850702762604     
   6.2700000000000006E-002    0.23238535225391388     
   6.3000000000000000E-002    0.26192831993103027     
   6.3300000000000009E-002    0.28380054235458374     
   6.3600000000000004E-002    0.29744234681129456     
   6.3899999999999998E-002    0.30252891778945923     
   6.4199999999999993E-002    0.29896071553230286     
   6.4500000000000002E-002    0.28690907359123230     
   6.4800000000000010E-002    0.26690611243247986     
   6.5100000000000005E-002    0.24002867937088013     
   6.5400000000000000E-002    0.20789153873920441     
   6.5700000000000008E-002    0.17275264859199524     
   6.5999999999999989E-002    0.13744865357875824     
   6.6299999999999998E-002    0.10531839728355408     
   6.6600000000000006E-002     7.9867109656333923E-002
   6.6900000000000001E-002     6.4624942839145660E-002
   6.7199999999999996E-002     6.2655180692672729E-002
   6.7500000000000004E-002     7.6186098158359528E-002
   6.7800000000000013E-002    0.10632321238517761     
   6.8099999999999994E-002    0.15264195203781128     
   6.8400000000000002E-002    0.21330685913562775     
   6.8700000000000011E-002    0.28488957881927490     
   6.8999999999999992E-002    0.36278307437896729     
   6.9300000000000000E-002    0.44136816263198853     
   6.9600000000000009E-002    0.51485306024551392     
   6.9900000000000004E-002    0.57766729593276978     
   7.0199999999999999E-002    0.62514835596084595     
   7.0500000000000007E-002    0.65398710966110229     
   7.0800000000000016E-002    0.66252493858337402     
   7.1099999999999997E-002    0.65101188421249390     
   7.1400000000000005E-002    0.62132984399795532     
   7.1700000000000000E-002    0.57677358388900757     
   7.1999999999999995E-002    0.52127027511596680     
   7.2300000000000003E-002    0.45899245142936707     
   7.2600000000000012E-002    0.39343917369842529     
   7.2900000000000006E-002    0.32715949416160583     
   7.3200000000000001E-002    0.26078110933303833     
   7.3499999999999996E-002    0.19346332550048828     
   7.3800000000000004E-002    0.12268339097499847     
   7.4099999999999999E-002     4.4809982180595398E-002
   7.4400000000000008E-002    -4.4396273791790009E-002
   7.4700000000000003E-002   -0.14871808886528015     
   7.5000000000000011E-002   -0.27059820294380188     
   7.5299999999999992E-002   -0.41077759861946106     
   7.5600000000000001E-002   -0.56711214780807495     
   7.5900000000000009E-002   -0.73495644330978394     
   7.6200000000000004E-002   -0.90663927793502808     
   7.6499999999999999E-002    -1.0727185010910034     
   7.6800000000000007E-002    -1.2220442295074463     
   7.7099999999999988E-002    -1.3435400724411011     
   7.7399999999999997E-002    -1.4269309043884277     
   7.7700000000000005E-002    -1.4642740488052368     
   7.8000000000000014E-002    -1.4506294727325439     
   7.8299999999999995E-002    -1.3850194215774536     
   7.8600000000000003E-002    -1.2705471515655518     
   7.8900000000000012E-002    -1.1142438650131226     
   7.9199999999999993E-002   -0.92639750242233276     
   7.9500000000000001E-002   -0.71972465515136719     
   7.9800000000000010E-002   -0.50793510675430298     
   8.0100000000000018E-002   -0.30444294214248657     
   8.0399999999999999E-002   -0.12091914564371109     
   8.0700000000000008E-002     3.3423736691474915E-002
   8.1000000000000003E-002    0.15324960649013519     
   8.1299999999999997E-002    0.23687642812728882     
   8.1600000000000006E-002    0.28688165545463562     
   8.1900000000000014E-002    0.30864420533180237     
   8.2199999999999995E-002    0.31058117747306824     
   8.2500000000000004E-002    0.30177202820777893     
   8.2799999999999999E-002    0.29201963543891907     
   8.3100000000000007E-002    0.28935652971267700     
   8.3400000000000002E-002    0.29988834261894226     
   8.3700000000000011E-002    0.32657361030578613     
   8.4000000000000005E-002    0.36904579401016235     
   8.4300000000000000E-002    0.42372849583625793     
   8.4599999999999995E-002    0.48398357629776001     
   8.4900000000000003E-002    0.54142922163009644     
   8.5199999999999998E-002    0.58658677339553833     
   8.5500000000000007E-002    0.61031121015548706     
   8.5800000000000001E-002    0.60479789972305298     
   8.6100000000000010E-002    0.56458777189254761     
   8.6399999999999991E-002    0.48737215995788574     
   8.6699999999999999E-002    0.37411922216415405     
   8.7000000000000008E-002    0.22927835583686829     
   8.7300000000000003E-002     6.0238182544708252E-002
   8.7599999999999997E-002   -0.12317992746829987     
   8.7900000000000006E-002   -0.30970153212547302     
   8.8200000000000014E-002   -0.48767268657684326     
   8.8499999999999995E-002   -0.64583373069763184     
   8.8800000000000004E-002   -0.77439445257186890     
   8.9100000000000013E-002   -0.86552786827087402     
   8.9399999999999993E-002   -0.91411060094833374     
   8.9700000000000002E-002   -0.91737544536590576     
   9.0000000000000011E-002   -0.87568837404251099     
   9.0299999999999991E-002   -0.79139894247055054     
   9.0600000000000000E-002   -0.66930449008941650     
   9.0900000000000009E-002   -0.51539534330368042     
   9.1200000000000017E-002   -0.33708810806274414     
   9.1499999999999998E-002   -0.14219360053539276     
   9.1800000000000007E-002     6.1202544718980789E-002
   9.2100000000000001E-002    0.26507502794265747     
   9.2399999999999996E-002    0.46171927452087402     
   9.2700000000000005E-002    0.64382177591323853     
   9.3000000000000013E-002    0.80484706163406372     
   9.3300000000000008E-002    0.93862324953079224     
   9.3600000000000003E-002     1.0401364564895630     
   9.3899999999999997E-002     1.1050297021865845     
   9.4200000000000006E-002     1.1305801868438721     
   9.4500000000000001E-002     1.1149547100067139     
   9.4800000000000009E-002     1.0588129758834839     
   9.5100000000000004E-002    0.96428686380386353     
   9.5399999999999999E-002    0.83633214235305786     
   9.5699999999999993E-002    0.68178921937942505     
   9.6000000000000002E-002    0.51010465621948242     
   9.6300000000000011E-002    0.33240941166877747     
   9.6600000000000005E-002    0.16140232980251312     
   9.6900000000000000E-002     1.0263736359775066E-002
   9.7200000000000009E-002   -0.10818653553724289     
   9.7499999999999989E-002   -0.18253675103187561     
   9.7799999999999998E-002   -0.20395603775978088     
   9.8100000000000007E-002   -0.16704423725605011     
   9.8400000000000015E-002    -7.0669375360012054E-002
   9.8699999999999996E-002     8.1533744931221008E-002
   9.9000000000000005E-002    0.28107669949531555     
   9.9300000000000013E-002    0.51512646675109863     
   9.9599999999999994E-002    0.76697337627410889     
   9.9900000000000003E-002     1.0174489021301270     
  0.10020000000000001          1.2461204528808594     
  0.10049999999999999          1.4331940412521362     
  0.10080000000000000          1.5605746507644653     
  0.10110000000000001          1.6140707731246948     
  0.10140000000000000          1.5838387012481689     
  0.10170000000000000          1.4659920930862427     
  0.10200000000000001          1.2619966268539429     
  0.10230000000000002         0.97970825433731079     
  0.10260000000000000         0.63162535429000854     
  0.10290000000000001         0.23477165400981903     
  0.10320000000000000        -0.19124488532543182     
  0.10350000000000001        -0.62485790252685547     
  0.10380000000000000         -1.0452525615692139     
  0.10410000000000001         -1.4322347640991211     
  0.10440000000000001         -1.7688534259796143     
  0.10470000000000000         -2.0407979488372803     
  0.10500000000000000         -2.2385649681091309     
  0.10530000000000000         -2.3559432029724121     
  0.10560000000000000         -2.3916132450103760     
  0.10590000000000001         -2.3472862243652344     
  0.10620000000000000         -2.2287361621856689     
  0.10650000000000001         -2.0439929962158203     
  0.10679999999999999         -1.8037713766098022     
  0.10710000000000000         -1.5200515985488892     
  0.10740000000000001         -1.2062507867813110     
  0.10770000000000000        -0.87627792358398438     
  0.10800000000000000        -0.54413217306137085     
  0.10830000000000001        -0.22380408644676208     
  0.10859999999999999          7.2061598300933838E-002
  0.10890000000000000         0.33154571056365967     
  0.10920000000000001         0.54506152868270874     
  0.10950000000000001         0.70450037717819214     
  0.10979999999999999         0.80526065826416016     
  0.11009999999999999         0.84486591815948486     
  0.11040000000000001         0.82484000921249390     
  0.11070000000000001         0.74890065193176270     
  0.11100000000000000         0.62487649917602539     
  0.11130000000000000         0.46205365657806396     
  0.11160000000000002         0.27280735969543457     
  0.11190000000000001          6.9805592298507690E-002
  0.11220000000000001        -0.13262294232845306     
  0.11250000000000000        -0.32153111696243286     
  0.11280000000000000        -0.48407661914825439     
  0.11309999999999999        -0.61004471778869629     
  0.11340000000000001        -0.69082862138748169     
  0.11369999999999998        -0.72108739614486694     
  0.11400000000000000        -0.69793713092803955     
  0.11430000000000000        -0.62163138389587402     
  0.11460000000000002        -0.49510493874549866     
  0.11489999999999999        -0.32371169328689575     
  0.11520000000000001        -0.11510013043880463     
  0.11550000000000001         0.12168642878532410     
  0.11580000000000000         0.37605056166648865     
  0.11609999999999999         0.63710546493530273     
  0.11640000000000002         0.89320468902587891     
  0.11670000000000001          1.1332110166549683     
  0.11700000000000001          1.3461869955062866     
  0.11730000000000000          1.5228165388107300     
  0.11760000000000000          1.6544972658157349     
  0.11789999999999999          1.7348349094390869     
  0.11820000000000001          1.7589272260665894     
  0.11850000000000001          1.7245553731918335     
  0.11880000000000000          1.6309521198272705     
  0.11910000000000000          1.4802463054656982     
  0.11940000000000002          1.2758282423019409     
  0.11970000000000001          1.0235998630523682     
  0.12000000000000001         0.73023164272308350     
  0.12030000000000000         0.40431687235832214     
  0.12060000000000000          5.4696574807167053E-002
  0.12089999999999999        -0.30860656499862671     
  0.12119999999999999        -0.67572641372680664     
  0.12150000000000001         -1.0360212326049805     
  0.12180000000000001         -1.3791781663894653     
  0.12210000000000000         -1.6947399377822876     
  0.12239999999999999         -1.9724310636520386     
  0.12270000000000002         -2.2024142742156982     
  0.12300000000000001         -2.3754839897155762     
  0.12330000000000001         -2.4835441112518311     
  0.12360000000000000         -2.5200185775756836     
  0.12390000000000000         -2.4805934429168701     
  0.12419999999999999         -2.3635246753692627     
  0.12450000000000001         -2.1703352928161621     
  0.12480000000000001         -1.9061776399612427     
  0.12509999999999999         -1.5796380043029785     
  0.12540000000000001         -1.2028619050979614     
  0.12570000000000003        -0.79084986448287964     
  0.12600000000000000        -0.36064791679382324     
  0.12630000000000002          6.9789774715900421E-002
  0.12659999999999999         0.48289346694946289     
  0.12690000000000001         0.86233198642730713     
  0.12719999999999998          1.1947786808013916     
  0.12750000000000000          1.4701690673828125     
  0.12780000000000002          1.6830300092697144     
  0.12809999999999999          1.8319734334945679     
  0.12840000000000001          1.9198280572891235     
  0.12869999999999998          1.9531267881393433     
  0.12900000000000000          1.9409984350204468     
  0.12930000000000003          1.8949210643768311     
  0.12959999999999999          1.8263663053512573     
  0.12990000000000002          1.7478802204132080     
  0.13019999999999998          1.6697788238525391     
  0.13050000000000000          1.6021466255187988     
  0.13080000000000003          1.5515486001968384     
  0.13109999999999999          1.5236232280731201     
  0.13140000000000002          1.5199997425079346     
  0.13169999999999998          1.5406246185302734     
  0.13200000000000001          1.5815522670745850     
  0.13229999999999997          1.6366629600524902     
  0.13260000000000000          1.6964538097381592     
  0.13290000000000002          1.7487552165985107     
  0.13319999999999999          1.7794045209884644     
  0.13350000000000001          1.7722804546356201     
  0.13380000000000003          1.7112252712249756     
  0.13410000000000000          1.5800838470458984     
  0.13440000000000002          1.3660228252410889     
  0.13469999999999999          1.0590316057205200     
  0.13500000000000001         0.65593659877777100     
  0.13529999999999998         0.15919527411460876     
  0.13560000000000000        -0.41937297582626343     
  0.13590000000000002         -1.0612316131591797     
  0.13619999999999999         -1.7389687299728394     
  0.13650000000000001         -2.4195303916931152     
  0.13680000000000003         -3.0647749900817871     
  0.13710000000000000         -3.6352002620697021     
  0.13740000000000002         -4.0920982360839844     
  0.13769999999999999         -4.4014306068420410     
  0.13800000000000001         -4.5366330146789551     
  0.13829999999999998         -4.4809203147888184     
  0.13860000000000000         -4.2295918464660645     
  0.13890000000000002         -3.7907726764678955     
  0.13919999999999999         -3.1854319572448730     
  0.13950000000000001         -2.4459173679351807     
  0.13979999999999998         -1.6141850948333740     
  0.14010000000000000        -0.73868995904922485     
  0.14040000000000002         0.12916934490203857     
  0.14069999999999999         0.93872171640396118     
  0.14100000000000001          1.6438384056091309     
  0.14130000000000004          2.2059931755065918     
  0.14160000000000000          2.5975620746612549     
  0.14189999999999997          2.8028340339660645     
  0.14219999999999999          2.8193080425262451     
  0.14250000000000002          2.6575410366058350     
  0.14279999999999998          2.3392796516418457     
  0.14310000000000000          1.8958851099014282     
  0.14339999999999997          1.3650135993957520     
  0.14369999999999999         0.78803920745849609     
  0.14400000000000002         0.20520550012588501     
  0.14429999999999998        -0.34567692875862122     
  0.14460000000000001        -0.83403766155242920     
  0.14490000000000003         -1.2364332675933838     
  0.14520000000000000         -1.5399199724197388     
  0.14550000000000002         -1.7402791976928711     
  0.14579999999999999         -1.8432735204696655     
  0.14610000000000001         -1.8612619638442993     
  0.14640000000000003         -1.8128803968429565     
  0.14670000000000000         -1.7190562486648560     
  0.14699999999999996         -1.6015872955322266     
  0.14729999999999999         -1.4800814390182495     
  0.14760000000000001         -1.3704886436462402     
  0.14789999999999998         -1.2829641103744507     
  0.14820000000000000         -1.2221558094024658     