  -1.4999999999999999E-002     0.0000000000000000     
  -1.4700000000000000E-002     0.0000000000000000     
  -1.4400000000000000E-002     0.0000000000000000     
  -1.4100000000000000E-002     6.3115836545800315E-034
  -1.3800000000000000E-002     3.6858897254920415E-031
  -1.3500000000000000E-002    -1.2965757608665902E-028
  -1.3200000000000000E-002    -7.2255706909998799E-027
  -1.2899999999999998E-002     1.4715672636167609E-025
  -1.2600000000000000E-002     1.5331647771476515E-024
  -1.2299999999999998E-002    -2.4852053077029294E-023
  -1.2000000000000000E-002     1.3210895807555241E-025
  -1.1699999999999999E-002     8.1068213576752025E-022
  -1.1399999999999999E-002    -1.5827512341640272E-021
  -1.1099999999999999E-002    -8.2545855822701152E-021
  -1.0799999999999999E-002     1.6728487117966155E-020
  -1.0499999999999999E-002     6.9843104880839996E-020
  -1.0199999999999999E-002    -1.0020589371324407E-019
  -9.8999999999999991E-003    -4.7796429327995782E-019
  -9.5999999999999992E-003     4.1465377620092147E-019
  -9.2999999999999992E-003     1.9005204560296389E-018
  -8.9999999999999993E-003     1.0713894549897877E-018
  -8.6999999999999994E-003    -6.5873624094971992E-018
  -8.3999999999999995E-003    -1.6346041816113488E-017
  -8.0999999999999996E-003     8.2245939648882001E-018
  -7.7999999999999988E-003     1.1180218157892045E-016
  -7.4999999999999997E-003    -1.5834940150506773E-017
  -7.1999999999999998E-003    -3.2856259793228541E-016
  -6.8999999999999981E-003    -3.9283541826527231E-017
  -6.5999999999999982E-003     2.3909659576312205E-016
  -6.3000000000000000E-003     5.5325179853732225E-016
  -6.0000000000000001E-003     2.6420399698454328E-015
  -5.6999999999999985E-003    -3.9118306609643803E-015
  -5.3999999999999986E-003    -1.1945990258197675E-014
  -5.1000000000000004E-003     1.5491307645302752E-014
  -4.7999999999999987E-003     1.6962661472923884E-014
  -4.5000000000000005E-003    -3.0937261758477719E-014
  -4.1999999999999989E-003     4.8424162086852657E-014
  -3.8999999999999990E-003    -1.3132119293358079E-014
  -3.5999999999999990E-003    -3.8290925334985570E-013
  -3.2999999999999991E-003     6.4985451915522408E-013
  -2.9999999999999992E-003     2.4201354895808658E-013
  -2.6999999999999993E-003    -1.6299415159584663E-012
  -2.3999999999999994E-003     2.5620000912440766E-012
  -2.0999999999999977E-003    -1.9532097293717410E-012
  -1.7999999999999995E-003    -4.2753578455290153E-012
  -1.4999999999999979E-003     1.2565778279016726E-011
  -1.1999999999999997E-003    -9.5046149770072752E-012
  -8.9999999999999976E-004    -5.3084940956904525E-012
  -5.9999999999999810E-004     2.9774360060796923E-011
  -2.9999999999999992E-004    -6.0314454819465624E-011
   0.0000000000000000          3.5063101727628165E-011
   3.0000000000000165E-004     9.5845789638282497E-011
   5.9999999999999984E-004    -2.4211097016113570E-010
   9.0000000000000149E-004     2.1273459382964433E-010
   1.2000000000000031E-003     2.2751675543553063E-010
   1.5000000000000013E-003    -9.2375068705408125E-010
   1.8000000000000030E-003     7.6555789485510672E-010
   2.1000000000000012E-003     9.8037322704414009E-010
   2.3999999999999994E-003    -2.6263613506216643E-009
   2.7000000000000010E-003     1.3538120624545513E-009
   2.9999999999999992E-003     3.0000708584054792E-009
   3.3000000000000008E-003    -5.6828275418752128E-009
   3.6000000000000025E-003     1.0454288545957979E-009
   3.9000000000000007E-003     7.3743029460615617E-009
   4.2000000000000023E-003    -7.9961939292161333E-009
   4.5000000000000005E-003    -1.6088735899089102E-009
   4.7999999999999987E-003     1.0484293433421499E-008
   5.1000000000000004E-003    -8.6939344612346758E-009
   5.4000000000000020E-003    -3.1850295734159317E-009
   5.7000000000000037E-003     1.2669325144543109E-008
   5.9999999999999984E-003    -7.8044379847597156E-009
   6.3000000000000000E-003    -4.2195713589876505E-009
   6.6000000000000017E-003     8.9678886538990810E-009
   6.9000000000000034E-003    -5.7239293305144656E-009
   7.2000000000000015E-003     2.0198318573250162E-009
   7.5000000000000032E-003    -1.3656010766638360E-009
   7.8000000000000014E-003    -6.8072543157882137E-009
   8.0999999999999996E-003     2.5346773568912795E-008
   8.4000000000000012E-003    -1.4451527086123406E-008
   8.7000000000000029E-003    -3.9632887194329669E-008
   9.0000000000000011E-003     5.5675332788496235E-008
   9.2999999999999992E-003     1.6645408607018908E-008
   9.6000000000000009E-003    -7.9941898434299219E-008
   9.8999999999999991E-003     3.4746896915294201E-008
   1.0200000000000001E-002     4.4107057561859619E-008
   1.0500000000000002E-002    -6.2672626199855586E-008
   1.0800000000000004E-002     7.6443861019015458E-008
   1.1099999999999999E-002     2.0965771341252548E-008
   1.1400000000000000E-002    -3.4214338029414648E-007
   1.1700000000000002E-002     8.5020701590110548E-008
   1.2000000000000004E-002     1.5400451047753450E-006
   1.2300000000000002E-002     2.9623261070810258E-006
   1.2600000000000000E-002     4.4000203160976525E-006
   1.2900000000000002E-002     6.8961776378273498E-006
   1.3200000000000000E-002     1.0060526619781740E-005
   1.3500000000000002E-002     1.3861966181138996E-005
   1.3800000000000003E-002     2.3515473003499210E-005
   1.4100000000000001E-002     4.5707143726758659E-005
   1.4400000000000000E-002     7.6467884355224669E-005
   1.4700000000000001E-002     1.0301948350388557E-004
   1.4999999999999999E-002     1.2314101331867278E-004
   1.5300000000000001E-002     1.5020857972558588E-004
   1.5600000000000003E-002     1.9420564058236778E-004
   1.5899999999999997E-002     2.4971074890345335E-004
   1.6199999999999999E-002     3.0537054408341646E-004
   1.6500000000000001E-002     3.5846853279508650E-004
   1.6800000000000002E-002     4.0775354136712849E-004
   1.7100000000000004E-002     4.1379383765161037E-004
   1.7400000000000006E-002     2.8333402588032186E-004
   1.7700000000000000E-002    -9.1914749646093696E-005
   1.8000000000000002E-002    -8.2373339682817459E-004
   1.8300000000000004E-002    -2.0740390755236149E-003
   1.8600000000000005E-002    -4.1059474460780621E-003
   1.8900000000000000E-002    -7.3111671954393387E-003
   1.9200000000000002E-002    -1.2202512472867966E-002
   1.9500000000000003E-002    -1.9415268674492836E-002
   1.9799999999999998E-002    -2.9757365584373474E-002
   2.0100000000000000E-002    -4.4230435043573380E-002
   2.0400000000000001E-002    -6.4017027616500854E-002
   2.0700000000000003E-002    -9.0479910373687744E-002
   2.0999999999999998E-002   -0.12512955069541931     
   2.1299999999999999E-002   -0.16956633329391479     
   2.1600000000000001E-002   -0.22540304064750671     
   2.1900000000000003E-002   -0.29410943388938904     
   2.2200000000000004E-002   -0.37686234712600708     
   2.2500000000000006E-002   -0.47442913055419922     
   2.2800000000000001E-002   -0.58689385652542114     
   2.3100000000000002E-002   -0.71345996856689453     
   2.3400000000000004E-002   -0.85221278667449951     
   2.3699999999999999E-002    -1.0000135898590088     
   2.4000000000000000E-002    -1.1523307561874390     
   2.4300000000000002E-002    -1.3033316135406494     
   2.4599999999999997E-002    -1.4457771778106689     
   2.4900000000000005E-002    -1.5713551044464111     
   2.5200000000000000E-002    -1.6709728240966797     
   2.5499999999999995E-002    -1.7353200912475586     
   2.5800000000000003E-002    -1.7552196979522705     
   2.6099999999999998E-002    -1.7224965095520020     
   2.6400000000000007E-002    -1.6305603981018066     
   2.6700000000000002E-002    -1.4750959873199463     
   2.6999999999999996E-002    -1.2546811103820801     
   2.7300000000000005E-002   -0.97113907337188721     
   2.7600000000000000E-002   -0.62984639406204224     
   2.7900000000000008E-002   -0.23977570235729218     
   2.8200000000000003E-002    0.18707573413848877     
   2.8499999999999998E-002    0.63559842109680176     
   2.8800000000000006E-002     1.0889894962310791     
   2.9100000000000001E-002     1.5293776988983154     
   2.9400000000000003E-002     1.9390563964843750     
   2.9700000000000004E-002     2.3016974925994873     
   3.0000000000000006E-002     2.6037735939025879     
   3.0300000000000001E-002     2.8356518745422363     
   3.0600000000000002E-002     2.9920692443847656     
   3.0900000000000004E-002     3.0734174251556396     
   3.1199999999999999E-002     3.0855104923248291     
   3.1500000000000007E-002     3.0395047664642334     
   3.1800000000000002E-002     2.9508724212646484     
   3.2099999999999997E-002     2.8389544486999512     
   3.2400000000000005E-002     2.7241389751434326     
   3.2700000000000000E-002     2.6270582675933838     
   3.3000000000000002E-002     2.5655679702758789     
   3.3300000000000003E-002     2.5531156063079834     
   3.3599999999999998E-002     2.5966176986694336     
   3.3900000000000000E-002     2.6953618526458740     
   3.4200000000000001E-002     2.8400626182556152     
   3.4500000000000003E-002     3.0133242607116699     
   3.4799999999999998E-002     3.1900010108947754     
   3.5099999999999999E-002     3.3402342796325684     
   3.5400000000000001E-002     3.4312081336975098     
   3.5699999999999996E-002     3.4302861690521240     
   3.6000000000000004E-002     3.3092048168182373     
   3.6299999999999999E-002     3.0456848144531250     
   3.6600000000000008E-002     2.6276090145111084     
   3.6900000000000002E-002     2.0534322261810303     
   3.7199999999999997E-002     1.3339483737945557     
   3.7500000000000006E-002    0.49072650074958801     
   3.7800000000000000E-002   -0.44430208206176758     
   3.8100000000000009E-002    -1.4319676160812378     
   3.8400000000000004E-002    -2.4292137622833252     
   3.8699999999999998E-002    -3.3911309242248535     
   3.9000000000000007E-002    -4.2759499549865723     
   3.9300000000000002E-002    -5.0463347434997559     
   3.9600000000000003E-002    -5.6728844642639160     
   3.9900000000000005E-002    -6.1338343620300293     
   4.0200000000000000E-002    -6.4175138473510742     
   4.0500000000000001E-002    -6.5201196670532227     
   4.0800000000000003E-002    -6.4474515914916992     
   4.1100000000000005E-002    -6.2101335525512695     
   4.1399999999999999E-002    -5.8263764381408691     
   4.1700000000000008E-002    -5.3177905082702637     
   4.2000000000000003E-002    -4.7090640068054199     
   4.2299999999999997E-002    -4.0278372764587402     
   4.2600000000000006E-002    -3.3037474155426025     
   4.2900000000000001E-002    -2.5674247741699219     
   4.3200000000000002E-002    -1.8498232364654541     
   4.3500000000000004E-002    -1.1840134859085083     
   4.3799999999999999E-002   -0.60039949417114258     
   4.4100000000000000E-002   -0.12688450515270233     
   4.4400000000000002E-002    0.21229007840156555     
   4.4700000000000004E-002    0.40126866102218628     
   4.4999999999999998E-002    0.43509554862976074     
   4.5300000000000000E-002    0.32048714160919189     
   4.5600000000000002E-002     8.0511055886745453E-002
   4.5899999999999996E-002   -0.24427330493927002     
   4.6200000000000005E-002   -0.59787827730178833     
   4.6500000000000000E-002   -0.90995043516159058     
   4.6799999999999994E-002    -1.0989835262298584     
   4.7100000000000003E-002    -1.0815128087997437     
   4.7399999999999998E-002   -0.77822542190551758     
   4.7700000000000006E-002   -0.12472978234291077     
   4.8000000000000001E-002    0.91735005378723145     
   4.8300000000000010E-002     2.3526997566223145     
   4.8600000000000004E-002     4.1434917449951172     
   4.8899999999999999E-002     6.2039017677307129     
   4.9200000000000008E-002     8.4039354324340820     
   4.9500000000000002E-002     10.570194244384766     
   4.9800000000000011E-002     12.500188827514648     
   5.0100000000000006E-002     13.974972724914551     
   5.0400000000000000E-002     14.781527519226074     
   5.0700000000000009E-002     14.731583595275879     
   5.1000000000000004E-002     13.683573722839355     
   5.1299999999999998E-002     11.563512802124023     
   5.1600000000000007E-002     8.3761167526245117     
   5.1900000000000002E-002     4.2153253555297852     
   5.2200000000000010E-002   -0.73870563507080078     
   5.2500000000000005E-002    -6.2256469726562500     
   5.2800000000000000E-002    -11.925488471984863     
   5.3099999999999994E-002    -17.478445053100586     
   5.3400000000000003E-002    -22.515623092651367     
   5.3699999999999998E-002    -26.686901092529297     
   5.4000000000000006E-002    -29.690927505493164     
   5.4300000000000001E-002    -31.298599243164062     
   5.4599999999999996E-002    -31.372035980224609     
   5.4900000000000004E-002    -29.875707626342773     
   5.5199999999999999E-002    -26.878404617309570     
   5.5499999999999994E-002    -22.542404174804688     
   5.5800000000000002E-002    -17.117795944213867     
   5.6099999999999997E-002    -10.910680770874023     
   5.6400000000000006E-002    -4.2696847915649414     
   5.6700000000000000E-002     2.4530282020568848     
   5.6999999999999995E-002     8.9106044769287109     
   5.7300000000000004E-002     14.801835060119629     
   5.7599999999999998E-002     19.875425338745117     
   5.7900000000000007E-002     23.948333740234375     
   5.8200000000000002E-002     26.910074234008789     
   5.8499999999999996E-002     28.723722457885742     
   5.8800000000000005E-002     29.418752670288086     
   5.9100000000000000E-002     29.079196929931641     
   5.9400000000000008E-002     27.839519500732422     
   5.9700000000000003E-002     25.855585098266602     
   6.0000000000000012E-002     23.305036544799805     
   6.0300000000000006E-002     20.362537384033203     
   6.0600000000000001E-002     17.194980621337891     
   6.0900000000000010E-002     13.948659896850586     
   6.1200000000000004E-002     10.744123458862305     
   6.1500000000000013E-002     7.6761794090270996     
   6.1800000000000008E-002     4.8063035011291504     
   6.2100000000000002E-002     2.1737766265869141     
   6.2399999999999997E-002   -0.21084621548652649     
   6.2700000000000006E-002    -2.3503835201263428     
   6.3000000000000000E-002    -4.2659273147583008     
   6.3300000000000009E-002    -5.9814596176147461     
   6.3600000000000004E-002    -7.5253348350524902     
   6.3899999999999998E-002    -8.9212312698364258     
   6.4199999999999993E-002    -10.185433387756348     
   6.4500000000000002E-002    -11.326979637145996     
   6.4800000000000010E-002    -12.336601257324219     
   6.5100000000000005E-002    -13.204195022583008     
   6.5400000000000000E-002    -13.899583816528320     
   6.5700000000000008E-002    -14.394564628601074     
   6.5999999999999989E-002    -14.652406692504883     
   6.6299999999999998E-002    -14.644282341003418     
   6.6600000000000006E-002    -14.341297149658203     
   6.6900000000000001E-002    -13.731721878051758     
   6.7199999999999996E-002    -12.813371658325195     
   6.7500000000000004E-002    -11.602441787719727     
   6.7800000000000013E-002    -10.130908966064453     
   6.8099999999999994E-002    -8.4472064971923828     
   6.8400000000000002E-002    -6.6108460426330566     
   6.8700000000000011E-002    -4.6952948570251465     
   6.8999999999999992E-002    -2.7721774578094482     
   6.9300000000000000E-002   -0.92169404029846191     
   6.9600000000000009E-002    0.78825521469116211     
   6.9900000000000004E-002     2.2936611175537109     
   7.0199999999999999E-002     3.5489556789398193     
   7.0500000000000007E-002     4.5175018310546875     
   7.0800000000000016E-002     5.1895227432250977     
   7.1099999999999997E-002     5.5668497085571289     
   7.1400000000000005E-002     5.6716442108154297     
   7.1700000000000000E-002     5.5430216789245605     
   7.1999999999999995E-002     5.2303409576416016     
   7.2300000000000003E-002     4.7934761047363281     
   7.2600000000000012E-002     4.2937211990356445     
   7.2900000000000006E-002     3.7969613075256348     
   7.3200000000000001E-002     3.3543412685394287     
   7.3499999999999996E-002     3.0154740810394287     
   7.3800000000000004E-002     2.8101034164428711     
   7.4099999999999999E-002     2.7557644844055176     
   7.4400000000000008E-002     2.8486058712005615     
   7.4700000000000003E-002     3.0738742351531982     
   7.5000000000000011E-002     3.3963155746459961     
   7.5299999999999992E-002     3.7755630016326904     
   7.5600000000000001E-002     4.1580343246459961     
   7.5900000000000009E-002     4.4948163032531738     
   7.6200000000000004E-002     4.7334132194519043     
   7.6499999999999999E-002     4.8332490921020508     
   7.6800000000000007E-002     4.7610559463500977     
   7.7099999999999988E-002     4.5003094673156738     
   7.7399999999999997E-002     4.0447750091552734     
   7.7700000000000005E-002     3.4079558849334717     
   7.8000000000000014E-002     2.6126387119293213     
   7.8299999999999995E-002     1.6975936889648438     
   7.8600000000000003E-002    0.70605486631393433     
   7.8900000000000012E-002   -0.30824258923530579     
   7.9199999999999993E-002    -1.2942714691162109     
   7.9500000000000001E-002    -2.1984941959381104     
   7.9800000000000010E-002    -2.9770364761352539     
   8.0100000000000018E-002    -3.5891947746276855     
   8.0399999999999999E-002    -4.0112771987915039     
   8.0700000000000008E-002    -4.2257270812988281     
   8.1000000000000003E-002    -4.2346539497375488     
   8.1299999999999997E-002    -4.0493259429931641     
   8.1600000000000006E-002    -3.6953067779541016     
   8.1900000000000014E-002    -3.2088022232055664     
   8.2199999999999995E-002    -2.6325204372406006     
   8.2500000000000004E-002    -2.0144000053405762     
   8.2799999999999999E-002    -1.4016379117965698     
   8.3100000000000007E-002   -0.84016364812850952     
   8.3400000000000002E-002   -0.36480367183685303     
   8.3700000000000011E-002    -7.7302074059844017E-003
   8.4000000000000005E-002    0.21756559610366821     
   8.4300000000000000E-002    0.30390265583992004     
   8.4599999999999995E-002    0.26062232255935669     
   8.4900000000000003E-002    0.10276149958372116     
   8.5199999999999998E-002   -0.14131115376949310     
   8.5500000000000007E-002   -0.44107165932655334     
   8.5800000000000001E-002   -0.76119416952133179     
   8.6100000000000010E-002    -1.0698004961013794     
   8.6399999999999991E-002    -1.3330317735671997     
   8.6699999999999999E-002    -1.5293666124343872     
   8.7000000000000008E-002    -1.6390960216522217     
   8.7300000000000003E-002    -1.6516808271408081     
   8.7599999999999997E-002    -1.5666912794113159     
   8.7900000000000006E-002    -1.3890163898468018     
   8.8200000000000014E-002    -1.1280606985092163     
   8.8499999999999995E-002   -0.80305039882659912     
   8.8800000000000004E-002   -0.43008342385292053     
   8.9100000000000013E-002    -3.1066553667187691E-002
   8.9399999999999993E-002    0.37519299983978271     
   8.9700000000000002E-002    0.76866430044174194     
   9.0000000000000011E-002     1.1333681344985962     
   9.0299999999999991E-002     1.4537183046340942     
   9.0600000000000000E-002     1.7183626890182495     
   9.0900000000000009E-002     1.9160559177398682     
   9.1200000000000017E-002     2.0403420925140381     
   9.1499999999999998E-002     2.0861828327178955     
   9.1800000000000007E-002     2.0505170822143555     
   9.2100000000000001E-002     1.9351162910461426     
   9.2399999999999996E-002     1.7441247701644897     
   9.2700000000000005E-002     1.4858198165893555     
   9.3000000000000013E-002     1.1730278730392456     
   9.3300000000000008E-002    0.82247900962829590     
   9.3600000000000003E-002    0.45385244488716125     
   9.3899999999999997E-002     8.9967466890811920E-002
   9.4200000000000006E-002   -0.24735443294048309     
   9.4500000000000001E-002   -0.53360849618911743     
   9.4800000000000009E-002   -0.75396424531936646     
   9.5100000000000004E-002   -0.89216977357864380     
   9.5399999999999999E-002   -0.94301915168762207     
   9.5699999999999993E-002   -0.90632432699203491     
   9.6000000000000002E-002   -0.79287189245223999     
   9.6300000000000011E-002   -0.61430603265762329     
   9.6600000000000005E-002   -0.39529898762702942     
   9.6900000000000000E-002   -0.15641583502292633     
   9.7200000000000009E-002     7.6420947909355164E-002
   9.7499999999999989E-002    0.28140327334403992     
   9.7799999999999998E-002    0.43953606486320496     
   9.8100000000000007E-002    0.53958815336227417     
   9.8400000000000015E-002    0.57367962598800659     
   9.8699999999999996E-002    0.54555362462997437     
   9.9000000000000005E-002    0.45971983671188354     
   9.9300000000000013E-002    0.33103793859481812     
   9.9599999999999994E-002    0.17274616658687592     
   9.9900000000000003E-002     4.3041612952947617E-003
  0.10020000000000001        -0.15933200716972351     
  0.10049999999999999        -0.30122750997543335     
  0.10080000000000000        -0.41050252318382263     
  0.10110000000000001        -0.47805932164192200     
  0.10140000000000000        -0.50067496299743652     
  0.10170000000000000        -0.47858551144599915     
  0.10200000000000001        -0.41547802090644836     
  0.10230000000000002        -0.32164573669433594     
  0.10260000000000000        -0.20464751124382019     
  0.10290000000000001         -7.9586848616600037E-002
  0.10320000000000000          4.2628150433301926E-002
  0.10350000000000001         0.14802601933479309     
  0.10380000000000000         0.22744932770729065     
  0.10410000000000001         0.27036616206169128     
  0.10440000000000001         0.27332282066345215     
  0.10470000000000000         0.23347134888172150     
  0.10500000000000000         0.15371149778366089     
  0.10530000000000000          3.8746770471334457E-002
  0.10560000000000000        -0.10089633613824844     
  0.10590000000000001        -0.25593400001525879     
  0.10620000000000000        -0.41165882349014282     
  0.10650000000000001        -0.55759894847869873     
  0.10679999999999999        -0.67835646867752075     
  0.10710000000000000        -0.76765364408493042     
  0.10740000000000001        -0.81353288888931274     
  0.10770000000000000        -0.81509101390838623     
  0.10800000000000000        -0.76689273118972778     
  0.10830000000000001        -0.67572385072708130     
  0.10859999999999999        -0.54136604070663452     
  0.10890000000000000        -0.37630319595336914     
  0.10920000000000001        -0.18763555586338043     
  0.10950000000000001          1.2087360024452209E-002
  0.10979999999999999         0.21176409721374512     
  0.11009999999999999         0.39843124151229858     
  0.11040000000000001         0.56246042251586914     
  0.11070000000000001         0.69463932514190674     
  0.11100000000000000         0.78693628311157227     
  0.11130000000000000         0.83781623840332031     
  0.11160000000000002         0.84418195486068726     
  0.11190000000000001         0.80957913398742676     
  0.11220000000000001         0.73758590221405029     
  0.11250000000000000         0.63660538196563721     
  0.11280000000000000         0.51360994577407837     
  0.11309999999999999         0.37981685996055603     
  0.11340000000000001         0.24251617491245270     
  0.11369999999999998         0.11309609562158585     
  0.11400000000000000         -3.3764163963496685E-003
  0.11430000000000000         -9.7995586693286896E-002
  0.11460000000000002        -0.16955673694610596     
  0.11489999999999999        -0.21299795806407928     
  0.11520000000000001        -0.23098295927047729     
  0.11550000000000001        -0.22216592729091644     
  0.11580000000000000        -0.19379982352256775     
  0.11609999999999999        -0.14597313106060028     
  0.11640000000000002         -8.8545635342597961E-002
  0.11670000000000001         -2.5063112378120422E-002
  0.11700000000000001          3.6303509026765823E-002
  0.11730000000000000          9.0752877295017242E-002
  0.11760000000000000         0.13053680956363678     
  0.11789999999999999         0.15418076515197754     
  0.11820000000000001         0.15536265075206757     
  0.11850000000000001         0.13675184547901154     
  0.11880000000000000          9.5550149679183960E-002
  0.11910000000000000          3.7615370005369186E-002
  0.11940000000000002         -3.4637104719877243E-002
  0.11970000000000001        -0.11513711512088776     
  0.12000000000000001        -0.19728152453899384     
  0.12030000000000000        -0.27517169713973999     
  0.12060000000000000        -0.34250676631927490     
  0.12089999999999999        -0.39580509066581726     
  0.12119999999999999        -0.42855668067932129     
  0.12150000000000001        -0.44273510575294495     
  0.12180000000000001        -0.43374869227409363     
  0.12210000000000000        -0.40527713298797607     
  0.12239999999999999        -0.35722991824150085     
  0.12270000000000002        -0.29429405927658081     
  0.12300000000000001        -0.21883976459503174     
  0.12330000000000001        -0.13577955961227417     
  0.12360000000000000         -4.9057632684707642E-002
  0.12390000000000000          3.5077441483736038E-002
  0.12419999999999999         0.11502044647932053     
  0.12450000000000001         0.18283434212207794     
  0.12480000000000001         0.23860712349414825     
  0.12509999999999999         0.27630013227462769     
  0.12540000000000001         0.29738581180572510     
  0.12570000000000003         0.29842862486839294     
  0.12600000000000000         0.28348869085311890     
  0.12630000000000002         0.25236085057258606     
  0.12659999999999999         0.20985418558120728     
  0.12690000000000001         0.15983027219772339     
  0.12719999999999998         0.10639949142932892     
  0.12750000000000000          5.4354898631572723E-002
  0.12780000000000002          8.4782820194959641E-003
  0.12809999999999999         -2.9850369319319725E-002
  0.12840000000000001         -5.6141901761293411E-002
  0.12869999999999998         -7.1125186979770660E-002
  0.12900000000000000         -7.3336869478225708E-002
  0.12930000000000003         -6.5105870366096497E-002
  0.12959999999999999         -4.6502333134412766E-002
  0.12990000000000002         -2.0989462733268738E-002
  0.13019999999999998          9.0745110064744949E-003
  0.13050000000000000          4.2366713285446167E-002
  0.13080000000000003          7.3628440499305725E-002
  0.13109999999999999         0.10333403944969177     
  0.13140000000000002         0.12591314315795898     
  0.13169999999999998         0.14237049221992493     
  0.13200000000000001         0.14816693961620331     
  0.13229999999999997         0.14483188092708588     
  0.13260000000000000         0.12979695200920105     
  0.13290000000000002         0.10618603229522705     
  0.13319999999999999          7.2948418557643890E-002
  0.13350000000000001          3.3789422363042831E-002
  0.13380000000000003         -8.3044907078146935E-003
  0.13410000000000000         -5.0909072160720825E-002
  0.13440000000000002         -9.1015987098217010E-002
  0.13469999999999999        -0.12380705773830414     
  0.13500000000000001        -0.14973926544189453     
  0.13529999999999998        -0.16510413587093353     
  0.13560000000000000        -0.17031499743461609     
  0.13590000000000002        -0.16539978981018066     
  0.13619999999999999        -0.15185622870922089     
  0.13650000000000001        -0.13046699762344360     
  0.13680000000000003        -0.10422033816576004     
  0.13710000000000000         -7.4634209275245667E-002
  0.13740000000000002         -4.4293142855167389E-002
  0.13769999999999999         -1.4673888683319092E-002
  0.13800000000000001          1.2100053951144218E-002
  0.13829999999999998          3.4914385527372360E-002
  0.13860000000000000          5.3276557475328445E-002
  0.13890000000000002          6.4978137612342834E-002
  0.13919999999999999          7.1100324392318726E-002
  0.13950000000000001          7.0230573415756226E-002
  0.13979999999999998          6.3542023301124573E-002
  0.14010000000000000          5.0295889377593994E-002
  0.14040000000000002          3.3526372164487839E-002
  0.14069999999999999          1.2767328880727291E-002
  0.14100000000000001         -8.5910018533468246E-003
  0.14130000000000004         -2.9868789017200470E-002
  0.14160000000000000         -4.7468278557062149E-002
  0.14189999999999997         -6.1349075287580490E-002
  0.14219999999999999         -6.8844400346279144E-002
  0.14250000000000002         -6.9938115775585175E-002
  0.14279999999999998         -6.4750701189041138E-002
  0.14310000000000000         -5.3690716624259949E-002
  0.14339999999999997         -3.7755616009235382E-002
  0.14369999999999999         -1.8647389486432076E-002
  0.14400000000000002          2.0860673394054174E-003
  0.14429999999999998          2.2622708231210709E-002
  0.14460000000000001          4.2023938149213791E-002
  0.14490000000000003          5.8590628206729889E-002
  0.14520000000000000          7.1506083011627197E-002
  0.14550000000000002          8.0995522439479828E-002
  0.14579999999999999          8.5816778242588043E-002
  0.14610000000000001          8.6043842136859894E-002
  0.14640000000000003          8.2559756934642792E-002
  0.14670000000000000          7.4673660099506378E-002
  0.14699999999999996          6.2990732491016388E-002
  0.14729999999999999          4.8767488449811935E-002
  0.14760000000000001          3.2014667987823486E-002
  0.14789999999999998          1.4099730178713799E-002
  0.14820000000000000         -3.4590666182339191E-003