  -1.4999999999999999E-002     0.0000000000000000     
  -1.4700000000000000E-002     0.0000000000000000     
  -1.4400000000000000E-002     0.0000000000000000     
  -1.4100000000000000E-002     0.0000000000000000     
  -1.3800000000000000E-002     0.0000000000000000     
  -1.3500000000000000E-002     0.0000000000000000     
  -1.3200000000000000E-002     0.0000000000000000     
  -1.2899999999999998E-002     0.0000000000000000     
  -1.2600000000000000E-002     0.0000000000000000     
  -1.2299999999999998E-002     0.0000000000000000     
  -1.2000000000000000E-002     0.0000000000000000     
  -1.1699999999999999E-002     0.0000000000000000     
  -1.1399999999999999E-002     0.0000000000000000     
  -1.1099999999999999E-002     0.0000000000000000     
  -1.0799999999999999E-002     0.0000000000000000     
  -1.0499999999999999E-002     0.0000000000000000     
  -1.0199999999999999E-002     0.0000000000000000     
  -9.8999999999999991E-003     0.0000000000000000     
  -9.5999999999999992E-003     0.0000000000000000     
  -9.2999999999999992E-003     0.0000000000000000     
  -8.9999999999999993E-003     0.0000000000000000     
  -8.6999999999999994E-003     0.0000000000000000     
  -8.3999999999999995E-003     0.0000000000000000     
  -8.0999999999999996E-003     0.0000000000000000     
  -7.7999999999999988E-003     0.0000000000000000     
  -7.4999999999999997E-003     0.0000000000000000     
  -7.1999999999999998E-003     0.0000000000000000     
  -6.8999999999999981E-003     0.0000000000000000     
  -6.5999999999999982E-003     0.0000000000000000     
  -6.3000000000000000E-003     0.0000000000000000     
  -6.0000000000000001E-003     0.0000000000000000     
  -5.6999999999999985E-003     0.0000000000000000     
  -5.3999999999999986E-003     0.0000000000000000     
  -5.1000000000000004E-003     0.0000000000000000     
  -4.7999999999999987E-003     0.0000000000000000     
  -4.5000000000000005E-003     0.0000000000000000     
  -4.1999999999999989E-003     0.0000000000000000     
  -3.8999999999999990E-003     0.0000000000000000     
  -3.5999999999999990E-003     0.0000000000000000     
  -3.2999999999999991E-003     0.0000000000000000     
  -2.9999999999999992E-003     0.0000000000000000     
  -2.6999999999999993E-003     0.0000000000000000     
  -2.3999999999999994E-003     0.0000000000000000     
  -2.0999999999999977E-003     0.0000000000000000     
  -1.7999999999999995E-003     0.0000000000000000     
  -1.4999999999999979E-003     0.0000000000000000     
  -1.1999999999999997E-003     0.0000000000000000     
  -8.9999999999999976E-004     0.0000000000000000     
  -5.9999999999999810E-004     0.0000000000000000     
  -2.9999999999999992E-004     0.0000000000000000     
   0.0000000000000000          0.0000000000000000     
   3.0000000000000165E-004     0.0000000000000000     
   5.9999999999999984E-004     0.0000000000000000     
   9.0000000000000149E-004     0.0000000000000000     
   1.2000000000000031E-003     0.0000000000000000     
   1.5000000000000013E-003     0.0000000000000000     
   1.8000000000000030E-003     0.0000000000000000     
   2.1000000000000012E-003    -1.3722956148463783E-038
   2.3999999999999994E-003     5.1181854679690499E-037
   2.7000000000000010E-003    -6.5751636859947350E-037
   2.9999999999999992E-003     3.5236028236032893E-037
   3.3000000000000008E-003     1.1101164343756045E-035
   3.6000000000000025E-003    -2.7297228182466589E-035
   3.9000000000000007E-003     8.4709264614257293E-035
   4.2000000000000023E-003    -1.5542522258497774E-034
   4.5000000000000005E-003     4.1494611388198200E-034
   4.7999999999999987E-003    -1.5890461661074650E-033
   5.1000000000000004E-003     1.9557821913085698E-033
   5.4000000000000020E-003    -1.1032261187586609E-034
   5.7000000000000037E-003    -4.6487474292188343E-033
   5.9999999999999984E-003     6.6862575618439118E-033
   6.3000000000000000E-003     6.3272308032181977E-033
   6.6000000000000017E-003    -3.7270010062144792E-032
   6.9000000000000034E-003     4.0578552237966884E-032
   7.2000000000000015E-003     6.5240804844604793E-032
   7.5000000000000032E-003    -2.2478431574263656E-031
   7.8000000000000014E-003     1.1150783053882139E-031
   8.0999999999999996E-003     5.3487249829886954E-031
   8.4000000000000012E-003    -1.0746988243722798E-030
   8.7000000000000029E-003    -2.8157620441669104E-031
   9.0000000000000011E-003     3.7076420891396007E-030
   9.2999999999999992E-003    -2.8078975661706973E-030
   9.6000000000000009E-003    -1.0233679473604205E-029
   9.8999999999999991E-003     2.0496953559427142E-029
   1.0200000000000001E-002     1.8436016517411152E-029
   1.0500000000000002E-002    -1.1397889066779661E-028
   1.0800000000000004E-002     1.0533202450535601E-028
   1.1099999999999999E-002     2.9524393999297067E-028
   1.1400000000000000E-002    -9.6024796688141193E-028
   1.1700000000000002E-002     6.0163735243762957E-028
   1.2000000000000004E-002     2.4706419821653429E-027
   1.2300000000000002E-002    -6.6372234352400589E-027
   1.2600000000000000E-002     3.6231398507320789E-027
   1.2900000000000002E-002     1.5345912296060435E-026
   1.3200000000000000E-002    -3.9188989381727108E-026
   1.3500000000000002E-002     2.2038209072046553E-026
   1.3800000000000003E-002     7.9257025684821173E-026
   1.4100000000000001E-002    -2.0114000551620542E-025
   1.4400000000000000E-002     1.1934960557782579E-025
   1.4700000000000001E-002     3.4938079363504334E-025
   1.4999999999999999E-002    -8.9911194232699449E-025
   1.5300000000000001E-002     5.7592520212983452E-025
   1.5600000000000003E-002     1.3233340219520861E-024
   1.5899999999999997E-002    -3.5304364075336108E-024
   1.6199999999999999E-002     2.4859097383778920E-024
   1.6500000000000001E-002     4.1810834318015746E-024
   1.6800000000000002E-002    -1.2161821844315537E-023
   1.7100000000000004E-002     1.0110073231689228E-023
   1.7400000000000006E-002     9.9540064327279440E-024
   1.7700000000000000E-002    -3.7420594871681875E-023
   1.8000000000000002E-002     4.0526163633157885E-023
   1.8300000000000004E-002     1.1158810442477381E-023
   1.8600000000000005E-002    -1.0726564099378414E-022
   1.8900000000000000E-002     1.6444915602444353E-022
   1.9200000000000002E-002    -4.3765260402114802E-023
   1.9500000000000003E-002    -3.1468061305514950E-022
   1.9799999999999998E-002     6.5082162348106111E-022
   2.0100000000000000E-002    -3.4091596175560360E-022
   2.0400000000000001E-002    -9.7119591444201332E-022
   2.0700000000000003E-002     2.2737804040676481E-021
   2.0999999999999998E-002    -1.2029630281734889E-021
   2.1299999999999999E-002    -3.3593248557078822E-021
   2.1600000000000001E-002     7.5447102157913407E-021
   2.1900000000000003E-002    -6.9544587522966629E-022
   2.2200000000000004E-002    -3.1332979390263852E-020
   2.2500000000000006E-002     7.7710022753904440E-020
   2.2800000000000001E-002    -7.9202522798568445E-021
   2.3100000000000002E-002    -4.9845264655472396E-019
   2.3400000000000004E-002     1.4865211986894281E-018
   2.3699999999999999E-002    -1.1557034591297896E-018
   2.4000000000000000E-002    -5.4333206945964302E-018
   2.4300000000000002E-002     2.1842231728881655E-017
   2.4599999999999997E-002    -3.2374811533645483E-017
   2.4900000000000005E-002    -2.7430912814208986E-017
   2.5200000000000000E-002     2.6370715770774397E-016
   2.5499999999999995E-002    -6.0739002535661462E-016
   2.5800000000000003E-002     1.9769739091663085E-016
   2.6099999999999998E-002     2.8521611179217215E-015
   2.6400000000000007E-002    -8.2767300371532147E-015
   2.6700000000000002E-002     5.8732461725741025E-015
   2.6999999999999996E-002     2.3410292838724004E-014
   2.7300000000000005E-002    -7.5431824049289228E-014
   2.7600000000000000E-002     9.0458600425959645E-014
   2.7900000000000008E-002     8.0477528162471285E-015
   2.8200000000000003E-002    -3.9049289618645660E-013
   2.8499999999999998E-002     1.7335760418293342E-012
   2.8800000000000006E-002    -3.7589879077908999E-012
   2.9100000000000001E-002    -2.2986857630560380E-012
   2.9400000000000003E-002     3.3961535117666512E-011
   2.9700000000000004E-002    -6.1883174738807150E-011
   3.0000000000000006E-002    -7.7158784644132048E-011
   3.0300000000000001E-002     4.7210008098476844E-010
   3.0600000000000002E-002    -3.8128315938316497E-010
   3.0900000000000004E-002    -1.6226506024001987E-009
   3.1199999999999999E-002     3.8137373118663965E-009
   3.1500000000000007E-002     1.9893195883417774E-009
   3.1800000000000002E-002    -1.6585824139843350E-008
   3.2099999999999997E-002     7.9352517905872757E-009
   3.2400000000000005E-002     4.7783744216670708E-008
   3.2700000000000000E-002    -5.4910199978205039E-008
   3.3000000000000002E-002    -1.1500094316669554E-007
   3.3300000000000003E-002     1.8507090010003124E-007
   3.3599999999999998E-002     6.4334399970891352E-007
   3.3900000000000000E-002     2.0654480197644569E-006
   3.4200000000000001E-002     7.2701705015080435E-006
   3.4500000000000003E-002     1.7197701686339775E-005
   3.4799999999999998E-002     2.8414351244490568E-005
   3.5099999999999999E-002     3.8150028497762776E-005
   3.5400000000000001E-002     4.9302821881793074E-005
   3.5699999999999996E-002     6.8242270944694240E-005
   3.6000000000000004E-002     1.0066599161967851E-004
   3.6299999999999999E-002     1.5312827007393868E-004
   3.6600000000000008E-002     2.3499369659449754E-004
   3.6900000000000002E-002     3.5169584404985688E-004
   3.7199999999999997E-002     5.0389518587677477E-004
   3.7500000000000006E-002     7.0294303328276297E-004
   3.7800000000000000E-002     9.7183627550449792E-004
   3.8100000000000009E-002     1.3251873182562185E-003
   3.8400000000000004E-002     1.7681345954895164E-003
   3.8699999999999998E-002     2.3064095288048564E-003
   3.9000000000000007E-002     2.9380408052757101E-003
   3.9300000000000002E-002     3.6509061481124067E-003
   3.9600000000000003E-002     4.4242189962711287E-003
   3.9900000000000005E-002     5.2039580079375480E-003
   4.0200000000000000E-002     5.8857897462332442E-003
   4.0500000000000001E-002     6.3255258260700720E-003
   4.0800000000000003E-002     6.3407559628123888E-003
   4.1100000000000005E-002     5.7036863400519722E-003
   4.1399999999999999E-002     4.1225649856374072E-003
   4.1700000000000008E-002     1.2209095574094303E-003
   4.2000000000000003E-002    -3.4223406164127501E-003
   4.2299999999999997E-002    -1.0218925397788958E-002
   4.2600000000000006E-002    -1.9572470854697266E-002
   4.2900000000000001E-002    -3.1873349885769509E-002
   4.3200000000000002E-002    -4.7455563088320663E-002
   4.3500000000000004E-002    -6.6539017484812391E-002
   4.3799999999999999E-002    -8.9142887949591909E-002
   4.4100000000000000E-002   -0.11506729494834955     
   4.4400000000000002E-002   -0.14391714273652312     
   4.4700000000000004E-002   -0.17507831731771795     
   4.4999999999999998E-002   -0.20771386820796689     
   4.5300000000000000E-002   -0.24082687909078970     
   4.5600000000000002E-002   -0.27328722645319026     
   4.5899999999999996E-002   -0.30394352421657267     
   4.6200000000000005E-002   -0.33170991395125249     
   4.6500000000000000E-002   -0.35563125107687021     
   4.6799999999999994E-002   -0.37496159354789604     
   4.7100000000000003E-002   -0.38919208481680378     
   4.7399999999999998E-002   -0.39799079494985001     
   4.7700000000000006E-002   -0.40122720305585347     
   4.8000000000000001E-002   -0.39883135251700885     
   4.8300000000000010E-002   -0.39063572945114089     
   4.8600000000000004E-002   -0.37628919571634789     
   4.8899999999999999E-002   -0.35502863740566681     
   4.9200000000000008E-002   -0.32571008040615368     
   4.9500000000000002E-002   -0.28669191869376487     
   4.9800000000000011E-002   -0.23602015163832135     
   5.0100000000000006E-002   -0.17153460662785847     
   5.0400000000000000E-002    -9.1169231451246446E-002
   5.0700000000000009E-002     6.6720648094834578E-003
   5.1000000000000004E-002    0.12276668908288313     
   5.1299999999999998E-002    0.25663408400119803     
   5.1600000000000007E-002    0.40623860166924786     
   5.1900000000000002E-002    0.56777755181495593     
   5.2200000000000010E-002    0.73567515163078667     
   5.2500000000000005E-002    0.90267573315566096     
   5.2800000000000000E-002     1.0601681094095525     
   5.3099999999999994E-002     1.1988632036583127     
   5.3400000000000003E-002     1.3092878077288930     
   5.3699999999999998E-002     1.3827526983567395     
   5.4000000000000006E-002     1.4118838911501399     
   5.4300000000000001E-002     1.3916470694028718     
   5.4599999999999996E-002     1.3196950734520954     
   5.4900000000000004E-002     1.1970612426223326     
   5.5199999999999999E-002     1.0280272616181954     
   5.5499999999999994E-002    0.82017450432400807     
   5.5800000000000002E-002    0.58413293950068734     
   5.6099999999999997E-002    0.33268754273873569     
   5.6400000000000006E-002     8.0194633478725130E-002
   5.6700000000000000E-002   -0.15847309351652328     
   5.6999999999999995E-002   -0.36892390793173213     
   5.7300000000000004E-002   -0.53822944199027489     
   5.7599999999999998E-002   -0.65612082822703499     
   5.7900000000000007E-002   -0.71532522098832274     
   5.8200000000000002E-002   -0.71261166673743759     
   5.8499999999999996E-002   -0.64874022655963870     
   5.8800000000000005E-002   -0.52861987138981448     
   5.9100000000000000E-002   -0.36110051374016106     
   5.9400000000000008E-002   -0.15815386054304970     
   5.9700000000000003E-002     6.5548524265038655E-002
   6.0000000000000012E-002    0.29411453933819942     
   6.0300000000000006E-002    0.51088804367825169     
   6.0600000000000001E-002    0.70021607837544408     
   6.0900000000000010E-002    0.84794631749311122     
   6.1200000000000004E-002    0.94270544740288287     
   6.1500000000000013E-002    0.97643154141193378     
   6.1800000000000008E-002    0.94471489518415908     
   6.2100000000000002E-002    0.84735720953137417     
   6.2399999999999997E-002    0.68782780740106197     
   6.2700000000000006E-002    0.47318698208516774     
   6.3000000000000000E-002    0.21347886005216132     
   6.3300000000000009E-002    -7.9083084519634694E-002
   6.3600000000000004E-002   -0.39082115620595381     
   6.3899999999999998E-002   -0.70740580131343123     
   6.4199999999999993E-002    -1.0148686644378131     
   6.4500000000000002E-002    -1.2998602179691687     
   6.4800000000000010E-002    -1.5507698745591370     
   6.5100000000000005E-002    -1.7579042097908513     
   6.5400000000000000E-002    -1.9136138080588054     
   6.5700000000000008E-002    -2.0129456528358602     
   6.5999999999999989E-002    -2.0532257928259696     
   6.6299999999999998E-002    -2.0343389217417993     
   6.6600000000000006E-002    -1.9583042587924879     
   6.6900000000000001E-002    -1.8296177118303660     
   6.7199999999999996E-002    -1.6545310781853146     
   6.7500000000000004E-002    -1.4411440190494602     
   6.7800000000000013E-002    -1.1990693631996763     
   6.8099999999999994E-002   -0.93895354737260917     
   6.8400000000000002E-002   -0.67251716013098140     
   6.8700000000000011E-002   -0.41156706494807382     
   6.8999999999999992E-002   -0.16777290559649760     
   6.9300000000000000E-002     4.7991993761068386E-002
   6.9600000000000009E-002    0.22633177326482112     
   6.9900000000000004E-002    0.35991872388632729     
   7.0199999999999999E-002    0.44409191803285530     
   7.0500000000000007E-002    0.47721792251587480     
   7.0800000000000016E-002    0.46099025687950146     
   7.1099999999999997E-002    0.40035160463861263     
   7.1400000000000005E-002    0.30323730411410255     
   7.1700000000000000E-002    0.18007438385331098     
   7.1999999999999995E-002     4.2806661415148550E-002
   7.2300000000000003E-002    -9.5665732723213104E-002
   7.2600000000000012E-002   -0.22300974036901966     
   7.2900000000000006E-002   -0.32807200513224366     
   7.3200000000000001E-002   -0.40201918046779994     
   7.3499999999999996E-002   -0.43881292970912078     
   7.3800000000000004E-002   -0.43557926403293123     
   7.4099999999999999E-002   -0.39286588283409873     
   7.4400000000000008E-002   -0.31410669241572231     
   7.4700000000000003E-002   -0.20519053372471441     
   7.5000000000000011E-002    -7.3446801861639432E-002
   7.5299999999999992E-002     7.2889293743360062E-002
   7.5600000000000001E-002    0.22615249404053550     
   7.5900000000000009E-002    0.37946075632152976     
   7.6200000000000004E-002    0.52770748304431336     
   7.6499999999999999E-002    0.66820843581059819     
   7.6800000000000007E-002    0.79994816666957291     
   7.7099999999999988E-002    0.92439071536557194     
   7.7399999999999997E-002     1.0440294429761465     
   7.7700000000000005E-002     1.1624212925059823     
   7.8000000000000014E-002     1.2831302955562904     
   7.8299999999999995E-002     1.4086771269633687     
   7.8600000000000003E-002     1.5403456467383592     
   7.8900000000000012E-002     1.6771082458171236     
   7.9199999999999993E-002     1.8155895871773495     
   7.9500000000000001E-002     1.9498621132591296     
   7.9800000000000010E-002     2.0716300451381713     
   8.0100000000000018E-002     2.1708488098577448     
   8.0399999999999999E-002     2.2361477002494041     
   8.0700000000000008E-002     2.2562636578189483     
   8.1000000000000003E-002     2.2203082124958087     
   8.1299999999999997E-002     2.1198043082858717     
   8.1600000000000006E-002     1.9489007659698956     
   8.1900000000000014E-002     1.7058032754717516     
   8.2199999999999995E-002     1.3933904437375642     
   8.2500000000000004E-002     1.0192598615658248     
   8.2799999999999999E-002    0.59659380147366647     
   8.3100000000000007E-002    0.14254046318865399     
   8.3400000000000002E-002   -0.32144257015771327     
   8.3700000000000011E-002   -0.77174559021583633     
   8.4000000000000005E-002    -1.1836792004354493     
   8.4300000000000000E-002    -1.5334940161812298     
   8.4599999999999995E-002    -1.8006306938612440     
   8.4900000000000003E-002    -1.9692024703854116     
   8.5199999999999998E-002    -2.0300910714628131     
   8.5500000000000007E-002    -1.9816261271065443     
   8.5800000000000001E-002    -1.8310309364679753     
   8.6100000000000010E-002    -1.5933298061868317     
   8.6399999999999991E-002    -1.2914102782980970     
   8.6699999999999999E-002   -0.95383018144414589     
   8.7000000000000008E-002   -0.61291071786966000     
   8.7300000000000003E-002   -0.30180298713065490     
   8.7599999999999997E-002    -5.1928408950848493E-002
   8.7900000000000006E-002    0.11063221838262383     
   8.8200000000000014E-002    0.16693720139598689     
   8.8499999999999995E-002    0.10789286966115430     
   8.8800000000000004E-002    -6.4979344749712897E-002
   8.9100000000000013E-002   -0.33898525931946377     
   8.9399999999999993E-002   -0.69103055310245765     
   8.9700000000000002E-002    -1.0894441693432100     
   9.0000000000000011E-002    -1.4962080994152274     
   9.0299999999999991E-002    -1.8704217591510712     
   9.0600000000000000E-002    -2.1713172728109953     
   9.0900000000000009E-002    -2.3624089902276282     
   9.1200000000000017E-002    -2.4138591731717582     
   9.1499999999999998E-002    -2.3059004613686582     
   9.1800000000000007E-002    -2.0299539588439703     
   9.2100000000000001E-002    -1.5904085761298958     
   9.2399999999999996E-002    -1.0033145495309128     
   9.2700000000000005E-002   -0.29663351739152688     
   9.3000000000000013E-002    0.49313921904524349     
   9.3300000000000008E-002     1.3221504829481781     
   9.3600000000000003E-002     2.1436320191533724     
   9.3899999999999997E-002     2.9098491071072772     
   9.4200000000000006E-002     3.5766242489323190     
   9.4500000000000001E-002     4.1047483664652731     
   9.4800000000000009E-002     4.4635983579530318     
   9.5100000000000004E-002     4.6321370598572571     
   9.5399999999999999E-002     4.5998566396956164     
   9.5699999999999993E-002     4.3677463385090860     
   9.6000000000000002E-002     3.9464400625751033     
   9.6300000000000011E-002     3.3567935086340106     
   9.6600000000000005E-002     2.6266234660574170     
   9.6900000000000000E-002     1.7902268155213648     
   9.7200000000000009E-002    0.88479153846223824     
   9.7499999999999989E-002    -5.0698766991494892E-002
   9.7799999999999998E-002   -0.97835003416673771     
   9.8100000000000007E-002    -1.8628121438008520     
   9.8400000000000015E-002    -2.6732439302659543     
   9.8699999999999996E-002    -3.3843113334077373     
   9.9000000000000005E-002    -3.9766098324167274     
   9.9300000000000013E-002    -4.4375612816718046     
   9.9599999999999994E-002    -4.7609381671220774     
   9.9900000000000003E-002    -4.9465987852157980     
  0.10020000000000001         -4.9990508990187550     
  0.10049999999999999         -4.9274969326124705     
  0.10080000000000000         -4.7442533623082142     
  0.10110000000000001         -4.4639486740923928     
  0.10140000000000000         -4.1020558379291856     
  0.10170000000000000         -3.6751173352736615     
  0.10200000000000001         -3.1987777299393443     
  0.10230000000000002         -2.6883050549620897     
  0.10260000000000000         -2.1575192494224256     
  0.10290000000000001         -1.6189822185853782     
  0.10320000000000000         -1.0829951850421367     
  0.10350000000000001        -0.55865456316336903     
  0.10380000000000000         -5.2721325870869862E-002
  0.10410000000000001         0.42907777232866540     
  0.10440000000000001         0.88273808406877663     
  0.10470000000000000          1.3059093471379839     
  0.10500000000000000          1.6958488308021700     
  0.10530000000000000          2.0519910025077053     
  0.10560000000000000          2.3715413515222252     
  0.10590000000000001          2.6539452770725660     
  0.10620000000000000          2.8954443439027386     
  0.10650000000000001          3.0941592155789692     
  0.10679999999999999          3.2455365956579811     
  0.10710000000000000          3.3459710736685366     
  0.10740000000000001          3.3914610738556235     
  0.10770000000000000          3.3788477004937221     
  0.10800000000000000          3.3060693638184944     
  0.10830000000000001          3.1725381325574773     
  0.10859999999999999          2.9803113670314474     
  0.10890000000000000          2.7330174474965574     
  0.10920000000000001          2.4371458518341100     
  0.10950000000000001          2.1012427649724188     
  0.10979999999999999          1.7346949274155428     
  0.11009999999999999          1.3490917099146671     
  0.11040000000000001         0.95491496601430637     
  0.11070000000000001         0.56358078379455989     
  0.11100000000000000         0.18421163148745734     
  0.11130000000000000        -0.17494885046362496     
  0.11160000000000002        -0.50743491016296716     
  0.11190000000000001        -0.80948966041672676     
  0.11220000000000001         -1.0784742838065142     
  0.11250000000000000         -1.3142857324394726     
  0.11280000000000000         -1.5174907212776674     
  0.11309999999999999         -1.6898119484335794     
  0.11340000000000001         -1.8340683926504298     
  0.11369999999999998         -1.9520574950923333     
  0.11400000000000000         -2.0469131136904437     
  0.11430000000000000         -2.1199225957176822     
  0.11460000000000002         -2.1733545634227767     
  0.11489999999999999         -2.2073716494374551     
  0.11520000000000001         -2.2224910485281768     
  0.11550000000000001         -2.2184506568843005     
  0.11580000000000000         -2.1939565930546721     
  0.11609999999999999         -2.1486627396734477     
  0.11640000000000002         -2.0801282530505816     
  0.11670000000000001         -1.9883593115172786     
  0.11700000000000001         -1.8715127825375930     
  0.11730000000000000         -1.7297125942675962     
  0.11760000000000000         -1.5626825152902377     
  0.11789999999999999         -1.3718594140672877     
  0.11820000000000001         -1.1586257375535338     
  0.11850000000000001        -0.92587855621278692     
  0.11880000000000000        -0.67611094974541963     
  0.11910000000000000        -0.41320200382344296     
  0.11940000000000002        -0.13930284533930326     
  0.11970000000000001         0.14150036045404302     
  0.12000000000000001         0.42878502077386393     
  0.12030000000000000         0.71975423647789682     
  0.12060000000000000          1.0146286731749470     
  0.12089999999999999          1.3132640459257630     
  0.12119999999999999          1.6158499425567072     
  0.12150000000000001          1.9224744016706410     
  0.12180000000000001          2.2318217216211025     
  0.12210000000000000          2.5421811692894067     
  0.12239999999999999          2.8482628865595814     
  0.12270000000000002          3.1442992712397171     
  0.12300000000000001          3.4207667157396031     
  0.12330000000000001          3.6662742313933165     
  0.12360000000000000          3.8677444623810118     
  0.12390000000000000          4.0100375170519555     
  0.12419999999999999          4.0787006895124307     
  0.12450000000000001          4.0577404214619008     
  0.12480000000000001          3.9348148771990168     
  0.12509999999999999          3.6985752074707481     
  0.12540000000000001          3.3429508487155992     
  0.12570000000000003          2.8672082776080146     
  0.12600000000000000          2.2771160525713370     
  0.12630000000000002          1.5883961003901561     
  0.12659999999999999         0.82457365052454179     
  0.12690000000000001          2.2102500393039293E-002
  0.12719999999999998        -0.77470899809887994     
  0.12750000000000000         -1.5103396749965992     
  0.12780000000000002         -2.1241338304951682     
  0.12809999999999999         -2.5517215184488435     
  0.12840000000000001         -2.7327739515485661     
  0.12869999999999998         -2.6157670948585690     
  0.12900000000000000         -2.1675109271617288     
  0.12930000000000003         -1.3778325130775499     
  0.12959999999999999        -0.26966609615354997     
  0.12990000000000002          1.1017466423676936     
  0.13019999999999998          2.6422773163839892     
  0.13050000000000000          4.2266939812059263     
  0.13080000000000003          5.7012567533286500     
  0.13109999999999999          6.8987796412313500     
  0.13140000000000002          7.6497866614836028     
  0.13169999999999998          7.8023808473288341     
  0.13200000000000001          7.2376708726871470     
  0.13229999999999997          5.8864116611466955     
  0.13260000000000000          3.7442370198726280     
  0.13290000000000002         0.87531059489086260     
  0.13319999999999999         -2.5814381535486746     
  0.13350000000000001         -6.4228908696692173     
  0.13380000000000003         -10.390301917828197     
  0.13410000000000000         -14.193138977616286     
  0.13440000000000002         -17.529434961238735     
  0.13469999999999999         -20.114101369726399     
  0.13500000000000001         -21.705142086843622     
  0.13529999999999998         -22.125742060840224     
  0.13560000000000000         -21.283985974302880     
  0.13590000000000002         -19.180235062189070     
  0.13619999999999999         -15.911845237169473     
  0.13650000000000001         -11.664510626635206     
  0.13680000000000003         -6.6980469721528380     
  0.13710000000000000         -1.3252127527214270     
  0.13740000000000002          4.1149292152197177     
  0.13769999999999999          9.2820371215786963     
  0.13800000000000001          13.863725535411504     
  0.13829999999999998          17.593756652719776     
  0.13860000000000000          20.274847265217716     
  0.13890000000000002          21.783470315211162     
  0.13919999999999999          22.079243973710419     
  0.13950000000000001          21.197148573101458     
  0.13979999999999998          19.242538070908893     
  0.14010000000000000          16.375667654368158     
  0.14040000000000002          12.797503491078942     
  0.14069999999999999          8.7321946276482549     
  0.14100000000000001          4.4120121089832764     
  0.14130000000000004          6.1944055827126476E-002
  0.14160000000000000         -4.1113204238728063     
  0.14189999999999997         -7.9284090373298000     
  0.14219999999999999         -11.242516105906475     
  0.14250000000000002         -13.942604230082054     
  0.14279999999999998         -15.954309394381255     
  0.14310000000000000         -17.236842773061028     
  0.14339999999999997         -17.782938784665674     
  0.14369999999999999         -17.611132825925829     
  0.14400000000000002         -16.767342121120329     
  0.14429999999999998         -15.312579525319535     
  0.14460000000000001         -13.328519481934563     
  0.14490000000000003         -10.902567466896471     
  0.14520000000000000         -8.1341664335899395     
  0.14550000000000002         -5.1223452840419554     
  0.14579999999999999         -1.9700783662664207     
  0.14610000000000001          1.2243747533452165     
  0.14640000000000003          4.3660116437364067     
  0.14670000000000000          7.3666778357099361     
  0.14699999999999996          10.146995769170275     
  0.14729999999999999          12.636224759964762     
  0.14760000000000001          14.774979922997943     
  0.14789999999999998          16.514575347846687     
  0.14820000000000000          17.819290404958338     