  -1.4999999999999999E-002     0.0000000000000000     
  -1.4700000000000000E-002     0.0000000000000000     
  -1.4400000000000000E-002     0.0000000000000000     
  -1.4100000000000000E-002     0.0000000000000000     
  -1.3800000000000000E-002     0.0000000000000000     
  -1.3500000000000000E-002     0.0000000000000000     
  -1.3200000000000000E-002     0.0000000000000000     
  -1.2899999999999998E-002     0.0000000000000000     
  -1.2600000000000000E-002     0.0000000000000000     
  -1.2299999999999998E-002     0.0000000000000000     
  -1.2000000000000000E-002     0.0000000000000000     
  -1.1699999999999999E-002     0.0000000000000000     
  -1.1399999999999999E-002     0.0000000000000000     
  -1.1099999999999999E-002     0.0000000000000000     
  -1.0799999999999999E-002     0.0000000000000000     
  -1.0499999999999999E-002     0.0000000000000000     
  -1.0199999999999999E-002     0.0000000000000000     
  -9.8999999999999991E-003     0.0000000000000000     
  -9.5999999999999992E-003     0.0000000000000000     
  -9.2999999999999992E-003     0.0000000000000000     
  -8.9999999999999993E-003     0.0000000000000000     
  -8.6999999999999994E-003     0.0000000000000000     
  -8.3999999999999995E-003     0.0000000000000000     
  -8.0999999999999996E-003     0.0000000000000000     
  -7.7999999999999988E-003     0.0000000000000000     
  -7.4999999999999997E-003     0.0000000000000000     
  -7.1999999999999998E-003     0.0000000000000000     
  -6.8999999999999981E-003     0.0000000000000000     
  -6.5999999999999982E-003     0.0000000000000000     
  -6.3000000000000000E-003     0.0000000000000000     
  -6.0000000000000001E-003     0.0000000000000000     
  -5.6999999999999985E-003     0.0000000000000000     
  -5.3999999999999986E-003     0.0000000000000000     
  -5.1000000000000004E-003     0.0000000000000000     
  -4.7999999999999987E-003     0.0000000000000000     
  -4.5000000000000005E-003     0.0000000000000000     
  -4.1999999999999989E-003     0.0000000000000000     
  -3.8999999999999990E-003     0.0000000000000000     
  -3.5999999999999990E-003     0.0000000000000000     
  -3.2999999999999991E-003     0.0000000000000000     
  -2.9999999999999992E-003     0.0000000000000000     
  -2.6999999999999993E-003     0.0000000000000000     
  -2.3999999999999994E-003     0.0000000000000000     
  -2.0999999999999977E-003     0.0000000000000000     
  -1.7999999999999995E-003     0.0000000000000000     
  -1.4999999999999979E-003     0.0000000000000000     
  -1.1999999999999997E-003     0.0000000000000000     
  -8.9999999999999976E-004     0.0000000000000000     
  -5.9999999999999810E-004     0.0000000000000000     
  -2.9999999999999992E-004     0.0000000000000000     
   0.0000000000000000          0.0000000000000000     
   3.0000000000000165E-004     0.0000000000000000     
   5.9999999999999984E-004     0.0000000000000000     
   9.0000000000000149E-004     0.0000000000000000     
   1.2000000000000031E-003     0.0000000000000000     
   1.5000000000000013E-003     0.0000000000000000     
   1.8000000000000030E-003     0.0000000000000000     
   2.1000000000000012E-003     0.0000000000000000     
   2.3999999999999994E-003     0.0000000000000000     
   2.7000000000000010E-003     0.0000000000000000     
   2.9999999999999992E-003     0.0000000000000000     
   3.3000000000000008E-003     0.0000000000000000     
   3.6000000000000025E-003     0.0000000000000000     
   3.9000000000000007E-003     0.0000000000000000     
   4.2000000000000023E-003     0.0000000000000000     
   4.5000000000000005E-003     0.0000000000000000     
   4.7999999999999987E-003     0.0000000000000000     
   5.1000000000000004E-003     0.0000000000000000     
   5.4000000000000020E-003     0.0000000000000000     
   5.7000000000000037E-003     0.0000000000000000     
   5.9999999999999984E-003     0.0000000000000000     
   6.3000000000000000E-003     0.0000000000000000     
   6.6000000000000017E-003     0.0000000000000000     
   6.9000000000000034E-003     0.0000000000000000     
   7.2000000000000015E-003     0.0000000000000000     
   7.5000000000000032E-003     0.0000000000000000     
   7.8000000000000014E-003     0.0000000000000000     
   8.0999999999999996E-003     0.0000000000000000     
   8.4000000000000012E-003     0.0000000000000000     
   8.7000000000000029E-003     0.0000000000000000     
   9.0000000000000011E-003     0.0000000000000000     
   9.2999999999999992E-003     0.0000000000000000     
   9.6000000000000009E-003     0.0000000000000000     
   9.8999999999999991E-003     0.0000000000000000     
   1.0200000000000001E-002     0.0000000000000000     
   1.0500000000000002E-002     0.0000000000000000     
   1.0800000000000004E-002     0.0000000000000000     
   1.1099999999999999E-002     0.0000000000000000     
   1.1400000000000000E-002     0.0000000000000000     
   1.1700000000000002E-002     0.0000000000000000     
   1.2000000000000004E-002     0.0000000000000000     
   1.2300000000000002E-002     0.0000000000000000     
   1.2600000000000000E-002     0.0000000000000000     
   1.2900000000000002E-002     0.0000000000000000     
   1.3200000000000000E-002     0.0000000000000000     
   1.3500000000000002E-002     0.0000000000000000     
   1.3800000000000003E-002     0.0000000000000000     
   1.4100000000000001E-002     0.0000000000000000     
   1.4400000000000000E-002     0.0000000000000000     
   1.4700000000000001E-002     0.0000000000000000     
   1.4999999999999999E-002     0.0000000000000000     
   1.5300000000000001E-002     0.0000000000000000     
   1.5600000000000003E-002     0.0000000000000000     
   1.5899999999999997E-002     0.0000000000000000     
   1.6199999999999999E-002     0.0000000000000000     
   1.6500000000000001E-002     0.0000000000000000     
   1.6800000000000002E-002     0.0000000000000000     
   1.7100000000000004E-002     0.0000000000000000     
   1.7400000000000006E-002     0.0000000000000000     
   1.7700000000000000E-002     0.0000000000000000     
   1.8000000000000002E-002     0.0000000000000000     
   1.8300000000000004E-002     0.0000000000000000     
   1.8600000000000005E-002     0.0000000000000000     
   1.8900000000000000E-002     0.0000000000000000     
   1.9200000000000002E-002     0.0000000000000000     
   1.9500000000000003E-002     0.0000000000000000     
   1.9799999999999998E-002     0.0000000000000000     
   2.0100000000000000E-002     0.0000000000000000     
   2.0400000000000001E-002     0.0000000000000000     
   2.0700000000000003E-002     0.0000000000000000     
   2.0999999999999998E-002     0.0000000000000000     
   2.1299999999999999E-002     0.0000000000000000     
   2.1600000000000001E-002     0.0000000000000000     
   2.1900000000000003E-002     0.0000000000000000     
   2.2200000000000004E-002     0.0000000000000000     
   2.2500000000000006E-002     0.0000000000000000     
   2.2800000000000001E-002     0.0000000000000000     
   2.3100000000000002E-002     0.0000000000000000     
   2.3400000000000004E-002     0.0000000000000000     
   2.3699999999999999E-002     0.0000000000000000     
   2.4000000000000000E-002     0.0000000000000000     
   2.4300000000000002E-002     0.0000000000000000     
   2.4599999999999997E-002     0.0000000000000000     
   2.4900000000000005E-002     0.0000000000000000     
   2.5200000000000000E-002     0.0000000000000000     
   2.5499999999999995E-002     0.0000000000000000     
   2.5800000000000003E-002     0.0000000000000000     
   2.6099999999999998E-002     0.0000000000000000     
   2.6400000000000007E-002     0.0000000000000000     
   2.6700000000000002E-002     0.0000000000000000     
   2.6999999999999996E-002     0.0000000000000000     
   2.7300000000000005E-002     0.0000000000000000     
   2.7600000000000000E-002     0.0000000000000000     
   2.7900000000000008E-002     0.0000000000000000     
   2.8200000000000003E-002     0.0000000000000000     
   2.8499999999999998E-002     0.0000000000000000     
   2.8800000000000006E-002     0.0000000000000000     
   2.9100000000000001E-002     2.0919108121585912E-037
   2.9400000000000003E-002     1.8388933120809805E-035
   2.9700000000000004E-002    -2.4216292540555230E-034
   3.0000000000000006E-002     1.8006652256017819E-033
   3.0300000000000001E-002    -7.6992690620631425E-033
   3.0600000000000002E-002     2.3626519565934338E-032
   3.0900000000000004E-002    -5.4723634869762542E-032
   3.1199999999999999E-002     3.8279923576017883E-032
   3.1500000000000007E-002     5.1101729887873330E-031
   3.1800000000000002E-002    -3.8419342025552244E-030
   3.2099999999999997E-002     1.7188065608344951E-029
   3.2400000000000005E-002    -5.2759466564340798E-029
   3.2700000000000000E-002     7.6862485836878131E-029
   3.3000000000000002E-002     3.2741779241792495E-028
   3.3300000000000003E-002    -3.4285042795152028E-027
   3.3599999999999998E-002     1.8169819363259965E-026
   3.3900000000000000E-002    -7.1796375699750354E-026
   3.4200000000000001E-002     2.2467692887829037E-025
   3.4500000000000003E-002    -5.3700458736613998E-025
   3.4799999999999998E-002     7.5963730646806654E-025
   3.5099999999999999E-002     9.3311536300857321E-025
   3.5400000000000001E-002    -1.1551023600165311E-023
   3.5699999999999996E-002     5.0133700870380226E-023
   3.6000000000000004E-002    -1.5058135417254006E-022
   3.6299999999999999E-002     3.1948571311928063E-022
   3.6600000000000008E-002    -3.2213951693509102E-022
   3.6900000000000002E-002    -9.3656333360805313E-022
   3.7199999999999997E-002     6.4499876784091162E-021
   3.7500000000000006E-002    -2.0864102606221461E-020
   3.7800000000000000E-002     4.2054204846668312E-020
   3.8100000000000009E-002    -3.0036175275067800E-020
   3.8400000000000004E-002    -1.5324248507989943E-019
   3.8699999999999998E-002     7.5957265954723106E-019
   3.9000000000000007E-002    -1.8272316333719812E-018
   3.9300000000000002E-002     1.9711722268944775E-018
   3.9600000000000003E-002     3.6308245127887283E-018
   3.9900000000000005E-002    -2.2547841693619614E-017
   4.0200000000000000E-002     5.1315227943245841E-017
   4.0500000000000001E-002    -3.7578504208373727E-017
   4.0800000000000003E-002    -1.5502199800790172E-016
   4.1100000000000005E-002     6.3977314360491523E-016
   4.1399999999999999E-002    -1.0077919655884044E-015
   4.1700000000000008E-002    -5.0757173520837146E-016
   4.2000000000000003E-002     6.7063384671397185E-015
   4.2299999999999997E-002    -1.6082724683800544E-014
   4.2600000000000006E-002     9.6587310971008901E-015
   4.2900000000000001E-002     5.7753864082625561E-014
   4.3200000000000002E-002    -2.1321514703537964E-013
   4.3500000000000004E-002     2.9537494412174015E-013
   4.3799999999999999E-002     2.9286371504982922E-013
   4.4100000000000000E-002    -2.3733378543694394E-012
   4.4400000000000002E-002     5.0188984912491463E-012
   4.4700000000000004E-002    -1.0565358267086711E-012
   4.4999999999999998E-002    -2.4245411234247172E-011
   4.5300000000000000E-002     6.9618269482596418E-011
   4.5600000000000002E-002    -4.4682403610440957E-011
   4.5899999999999996E-002    -2.7470012375907515E-010
   4.6200000000000005E-002     8.9073298736863649E-010
   4.6500000000000000E-002    -4.5205914012136361E-010
   4.6799999999999994E-002    -3.9483887270819196E-009
   4.7100000000000003E-002     9.9426724631257457E-009
   4.7399999999999998E-002     4.0699683623302008E-009
   4.7700000000000006E-002    -5.8829620286360296E-008
   4.8000000000000001E-002     5.2537327377422116E-008
   4.8300000000000010E-002     2.2858213810650341E-007
   4.8600000000000004E-002    -4.7389377755280293E-007
   4.8899999999999999E-002    -8.1230922432951047E-007
   4.9200000000000008E-002     3.7470642837433843E-006
   4.9500000000000002E-002     1.3141249837644864E-005
   4.9800000000000011E-002     2.0940966351190582E-005
   5.0100000000000006E-002     2.6984920623362996E-005
   5.0400000000000000E-002     3.7481306208064780E-005
   5.0700000000000009E-002     5.3450876293936744E-005
   5.1000000000000004E-002     7.7707140007987618E-005
   5.1299999999999998E-002     1.1891943722730502E-004
   5.1600000000000007E-002     1.8040671420749277E-004
   5.1900000000000002E-002     2.6858691126108170E-004
   5.2200000000000010E-002     3.9687714888714254E-004
   5.2500000000000005E-002     5.7004421250894666E-004
   5.2800000000000000E-002     7.9827837180346251E-004
   5.3099999999999994E-002     1.1065371800214052E-003
   5.3400000000000003E-002     1.5090317465364933E-003
   5.3699999999999998E-002     2.0122188143432140E-003
   5.4000000000000006E-002     2.6273336261510849E-003
   5.4300000000000001E-002     3.3609385136514902E-003
   5.4599999999999996E-002     4.2102746665477753E-003
   5.4900000000000004E-002     5.1404922269284725E-003
   5.5199999999999999E-002     6.0857110656797886E-003
   5.5499999999999994E-002     6.9745872169733047E-003
   5.5800000000000002E-002     7.6784892007708549E-003
   5.6099999999999997E-002     7.9878782853484154E-003
   5.6400000000000006E-002     7.6702386140823364E-003
   5.6700000000000000E-002     6.4430362544953823E-003
   5.6999999999999995E-002     3.9553097449243069E-003
   5.7300000000000004E-002    -1.6324191528838128E-004
   5.7599999999999998E-002    -6.3160215504467487E-003
   5.7900000000000007E-002    -1.4908147975802422E-002
   5.8200000000000002E-002    -2.6251517236232758E-002
   5.8499999999999996E-002    -4.0561817586421967E-002
   5.8800000000000005E-002    -5.7921584695577621E-002
   5.9100000000000000E-002    -7.8199461102485657E-002
   5.9400000000000008E-002   -0.10102034360170364     
   5.9700000000000003E-002   -0.12572823464870453     
   6.0000000000000012E-002   -0.15139563381671906     
   6.0300000000000006E-002   -0.17685435712337494     
   6.0600000000000001E-002   -0.20070043206214905     
   6.0900000000000010E-002   -0.22139221429824829     
   6.1200000000000004E-002   -0.23739102482795715     
   6.1500000000000013E-002   -0.24721394479274750     
   6.1800000000000008E-002   -0.24957922101020813     
   6.2100000000000002E-002   -0.24357634782791138     
   6.2399999999999997E-002   -0.22871431708335876     
   6.2700000000000006E-002   -0.20496100187301636     
   6.3000000000000000E-002   -0.17285954952239990     
   6.3300000000000009E-002   -0.13333222270011902     
   6.3600000000000004E-002    -8.7817840278148651E-002
   6.3899999999999998E-002    -3.7985250353813171E-002
   6.4199999999999993E-002     1.4253366738557816E-002
   6.4500000000000002E-002     6.7033737897872925E-002
   6.4800000000000010E-002    0.11844550818204880     
   6.5100000000000005E-002    0.16677744686603546     
   6.5400000000000000E-002    0.21046698093414307     
   6.5700000000000008E-002    0.24821528792381287     
   6.5999999999999989E-002    0.27879402041435242     
   6.6299999999999998E-002    0.30122223496437073     
   6.6600000000000006E-002    0.31454470753669739     
   6.6900000000000001E-002    0.31799712777137756     
   6.7199999999999996E-002    0.31083345413208008     
   6.7500000000000004E-002    0.29265108704566956     
   6.7800000000000013E-002    0.26339098811149597     
   6.8099999999999994E-002    0.22351221740245819     
   6.8400000000000002E-002    0.17416936159133911     
   6.8700000000000011E-002    0.11743048578500748     
   6.8999999999999992E-002     5.6206054985523224E-002
   6.9300000000000000E-002    -5.6269918568432331E-003
   6.9600000000000009E-002    -6.3384607434272766E-002
   6.9900000000000004E-002   -0.11206522583961487     
   7.0199999999999999E-002   -0.14639207720756531     
   7.0500000000000007E-002   -0.16158108413219452     
   7.0800000000000016E-002   -0.15376129746437073     
   7.1099999999999997E-002   -0.12034029513597488     
   7.1400000000000005E-002    -6.0692645609378815E-002
   7.1700000000000000E-002     2.3945266380906105E-002
   7.1999999999999995E-002    0.13009510934352875     
   7.2300000000000003E-002    0.25238999724388123     
   7.2600000000000012E-002    0.38380041718482971     
   7.2900000000000006E-002    0.51637399196624756     
   7.3200000000000001E-002    0.64162856340408325     
   7.3499999999999996E-002    0.75138956308364868     
   7.3800000000000004E-002    0.83875256776809692     
   7.4099999999999999E-002    0.89806741476058960     
   7.4400000000000008E-002    0.92605453729629517     
   7.4700000000000003E-002    0.92146849632263184     
   7.5000000000000011E-002    0.88522082567214966     
   7.5299999999999992E-002    0.82017940282821655     
   7.5600000000000001E-002    0.73068523406982422     
   7.5900000000000009E-002    0.62175512313842773     
   7.6200000000000004E-002    0.49884116649627686     
   7.6499999999999999E-002    0.36694040894508362     
   7.6800000000000007E-002    0.23015519976615906     
   7.7099999999999988E-002     9.1622903943061829E-002
   7.7399999999999997E-002    -4.6734768897294998E-002
   7.7700000000000005E-002   -0.18417277932167053     
   7.8000000000000014E-002   -0.32053032517433167     
   7.8299999999999995E-002   -0.45612415671348572     
   7.8600000000000003E-002   -0.59113258123397827     
   7.8900000000000012E-002   -0.72514063119888306     
   7.9199999999999993E-002   -0.85675901174545288     
   7.9500000000000001E-002   -0.98362904787063599     
   7.9800000000000010E-002    -1.1020771265029907     
   8.0100000000000018E-002    -1.2076158523559570     
   8.0399999999999999E-002    -1.2951544523239136     
   8.0700000000000008E-002    -1.3593426942825317     
   8.1000000000000003E-002    -1.3955585956573486     
   8.1299999999999997E-002    -1.3998419046401978     
   8.1600000000000006E-002    -1.3698270320892334     
   8.1900000000000014E-002    -1.3049203157424927     
   8.2199999999999995E-002    -1.2064712047576904     
   8.2500000000000004E-002    -1.0776981115341187     
   8.2799999999999999E-002   -0.92355626821517944     
   8.3100000000000007E-002   -0.75033789873123169     
   8.3400000000000002E-002   -0.56517422199249268     
   8.3700000000000011E-002   -0.37548434734344482     
   8.4000000000000005E-002   -0.18822625279426575     
   8.4300000000000000E-002    -9.7786411643028259E-003
   8.4599999999999995E-002    0.15474598109722137     
   8.4900000000000003E-002    0.30173334479331970     
   8.5199999999999998E-002    0.42896446585655212     
   8.5500000000000007E-002    0.53566288948059082     
   8.5800000000000001E-002    0.62241631746292114     
   8.6100000000000010E-002    0.69024324417114258     
   8.6399999999999991E-002    0.74098271131515503     
   8.6699999999999999E-002    0.77617776393890381     
   8.7000000000000008E-002    0.79739320278167725     
   8.7300000000000003E-002    0.80515658855438232     
   8.7599999999999997E-002    0.79986935853958130     
   8.7900000000000006E-002    0.78082734346389771     
   8.8200000000000014E-002    0.74719572067260742     
   8.8499999999999995E-002    0.69785892963409424     
   8.8800000000000004E-002    0.63182514905929565     
   8.9100000000000013E-002    0.54892164468765259     
   8.9399999999999993E-002    0.44952091574668884     
   8.9700000000000002E-002    0.33538976311683655     
   9.0000000000000011E-002    0.20950365066528320     
   9.0299999999999991E-002     7.5870968401432037E-002
   9.0600000000000000E-002    -6.0732923448085785E-002
   9.0900000000000009E-002   -0.19449171423912048     
   9.1200000000000017E-002   -0.32010680437088013     
   9.1499999999999998E-002   -0.43194228410720825     
   9.1800000000000007E-002   -0.52592784166336060     
   9.2100000000000001E-002   -0.59852635860443115     
   9.2399999999999996E-002   -0.64821845293045044     
   9.2700000000000005E-002   -0.67431485652923584     
   9.3000000000000013E-002   -0.67841678857803345     
   9.3300000000000008E-002   -0.66229140758514404     
   9.3600000000000003E-002   -0.62944108247756958     
   9.3899999999999997E-002   -0.58284109830856323     
   9.4200000000000006E-002   -0.52601879835128784     
   9.4500000000000001E-002   -0.46151688694953918     
   9.4800000000000009E-002   -0.39121934771537781     
   9.5100000000000004E-002   -0.31608033180236816     
   9.5399999999999999E-002   -0.23620684444904327     
   9.5699999999999993E-002   -0.15092976391315460     
   9.6000000000000002E-002    -5.9499256312847137E-002
   9.6300000000000011E-002     3.8840789347887039E-002
   9.6600000000000005E-002    0.14408831298351288     
   9.6900000000000000E-002    0.25515282154083252     
   9.7200000000000009E-002    0.36973291635513306     
   9.7499999999999989E-002    0.48406875133514404     
   9.7799999999999998E-002    0.59316170215606689     
   9.8100000000000007E-002    0.69084244966506958     
   9.8400000000000015E-002    0.77123981714248657     
   9.8699999999999996E-002    0.82795733213424683     
   9.9000000000000005E-002    0.85651868581771851     
   9.9300000000000013E-002    0.85327571630477905     
   9.9599999999999994E-002    0.81791228055953979     
   9.9900000000000003E-002    0.75159454345703125     
  0.10020000000000001         0.65962493419647217     
  0.10049999999999999         0.54831826686859131     
  0.10080000000000000         0.42763805389404297     
  0.10110000000000001         0.30743449926376343     
  0.10140000000000000         0.19931396842002869     
  0.10170000000000000         0.11335929483175278     
  0.10200000000000001          5.9028949588537216E-002
  0.10230000000000002          4.2591035366058350E-002
  0.10260000000000000          6.8280495703220367E-002
  0.10290000000000001         0.13583357632160187     
  0.10320000000000000         0.24238312244415283     
  0.10350000000000001         0.38093543052673340     
  0.10380000000000000         0.54210203886032104     
  0.10410000000000001         0.71382451057434082     
  0.10440000000000001         0.88297587633132935     
  0.10470000000000000          1.0355782508850098     
  0.10500000000000000          1.1586811542510986     
  0.10530000000000000          1.2403463125228882     
  0.10560000000000000          1.2709386348724365     
  0.10590000000000001          1.2436585426330566     
  0.10620000000000000          1.1545735597610474     
  0.10650000000000001          1.0034751892089844     
  0.10679999999999999         0.79317772388458252     
  0.10710000000000000         0.52983891963958740     
  0.10740000000000001         0.22215265035629272     
  0.10770000000000000        -0.11812893301248550     
  0.10800000000000000        -0.47822660207748413     
  0.10830000000000001        -0.84265381097793579     
  0.10859999999999999         -1.1964864730834961     
  0.10890000000000000         -1.5233641862869263     
  0.10920000000000001         -1.8086032867431641     
  0.10950000000000001         -2.0375618934631348     
  0.10979999999999999         -2.1991107463836670     
  0.11009999999999999         -2.2832927703857422     
  0.11040000000000001         -2.2851960659027100     
  0.11070000000000001         -2.2030391693115234     
  0.11100000000000000         -2.0400125980377197     
  0.11130000000000000         -1.8035688400268555     
  0.11160000000000002         -1.5060180425643921     
  0.11190000000000001         -1.1628006696701050     
  0.11220000000000001        -0.79297029972076416     
  0.11250000000000000        -0.41686114668846130     
  0.11280000000000000         -5.5333238095045090E-002
  0.11309999999999999         0.27207472920417786     
  0.11340000000000001         0.54820817708969116     
  0.11369999999999998         0.75980395078659058     
  0.11400000000000000         0.89844471216201782     
  0.11430000000000000         0.96073830127716064     
  0.11460000000000002         0.94920217990875244     
  0.11489999999999999         0.87043642997741699     
  0.11520000000000001         0.73636806011199951     
  0.11550000000000001         0.56085914373397827     
  0.11580000000000000         0.36045223474502563     
  0.11609999999999999         0.15132577717304230     
  0.11640000000000002         -5.0483170896768570E-002
  0.11670000000000001        -0.23221535980701447     
  0.11700000000000001        -0.38241270184516907     
  0.11730000000000000        -0.49484643340110779     
  0.11760000000000000        -0.56507676839828491     
  0.11789999999999999        -0.59353291988372803     
  0.11820000000000001        -0.58236294984817505     
  0.11850000000000001        -0.53697282075881958     
  0.11880000000000000        -0.46293848752975464     
  0.11910000000000000        -0.36782413721084595     
  0.11940000000000002        -0.25770831108093262     
  0.11970000000000001        -0.13907769322395325     
  0.12000000000000001         -1.6601473093032837E-002
  0.12030000000000000         0.10609486699104309     
  0.12060000000000000         0.22663190960884094     
  0.12089999999999999         0.34370338916778564     
  0.12119999999999999         0.45670586824417114     
  0.12150000000000001         0.56527268886566162     
  0.12180000000000001         0.66883331537246704     
  0.12210000000000000         0.76625818014144897     
  0.12239999999999999         0.85538613796234131     
  0.12270000000000002         0.93334239721298218     
  0.12300000000000001         0.99588388204574585     
  0.12330000000000001          1.0382616519927979     
  0.12360000000000000          1.0554203987121582     
  0.12390000000000000          1.0424232482910156     
  0.12419999999999999         0.99490922689437866     
  0.12450000000000001         0.91056442260742188     
  0.12480000000000001         0.78820997476577759     
  0.12509999999999999         0.63016688823699951     
  0.12540000000000001         0.44039148092269897     
  0.12570000000000003         0.22645880281925201     
  0.12600000000000000         -2.3817447945475578E-003
  0.12630000000000002        -0.23434473574161530     
  0.12659999999999999        -0.45740422606468201     
  0.12690000000000001        -0.65841799974441528     
  0.12719999999999998        -0.82644337415695190     
  0.12750000000000000        -0.95149153470993042     
  0.12780000000000002         -1.0274505615234375     
  0.12809999999999999         -1.0514609813690186     
  0.12840000000000001         -1.0251412391662598     
  0.12869999999999998        -0.95376163721084595     
  0.12900000000000000        -0.84714782238006592     
  0.12930000000000003        -0.71743822097778320     
  0.12959999999999999        -0.57914173603057861     
  0.12990000000000002        -0.44705641269683838     
  0.13019999999999998        -0.33557975292205811     
  0.13050000000000000        -0.25639975070953369     
  0.13080000000000003        -0.21794784069061279     
  0.13109999999999999        -0.22429627180099487     
  0.13140000000000002        -0.27433422207832336     
  0.13169999999999998        -0.36173948645591736     
  0.13200000000000001        -0.47582995891571045     
  0.13229999999999997        -0.60156047344207764     
  0.13260000000000000        -0.72153782844543457     
  0.13290000000000002        -0.81732040643692017     
  0.13319999999999999        -0.87090998888015747     
  0.13350000000000001        -0.86705422401428223     
  0.13380000000000003        -0.79425531625747681     
  0.13410000000000000        -0.64658510684967041     
  0.13440000000000002        -0.42422187328338623     
  0.13469999999999999        -0.13407330214977264     
  0.13500000000000001         0.21106383204460144     
  0.13529999999999998         0.59230250120162964     
  0.13560000000000000         0.98737263679504395     
  0.13590000000000002          1.3714690208435059     
  0.13619999999999999          1.7195349931716919     
  0.13650000000000001          2.0088407993316650     
  0.13680000000000003          2.2206614017486572     
  0.13710000000000000          2.3418130874633789     
  0.13740000000000002          2.3664293289184570     
  0.13769999999999999          2.2959108352661133     
  0.13800000000000001          2.1395361423492432     
  0.13829999999999998          1.9129650592803955     
  0.13860000000000000          1.6373718976974487     
  0.13890000000000002          1.3371953964233398     
  0.13919999999999999          1.0384494066238403     
  0.13950000000000001         0.76556402444839478     
  0.13979999999999998         0.54030567407608032     
  0.14010000000000000         0.37863785028457642     
  0.14040000000000002         0.29004818201065063     
  0.14069999999999999         0.27660098671913147     
  0.14100000000000001         0.33260089159011841     
  0.14130000000000004         0.44440242648124695     
  0.14160000000000000         0.59282082319259644     
  0.14189999999999997         0.75339484214782715     
  0.14219999999999999         0.89886778593063354     
  0.14250000000000002          1.0014146566390991     
  0.14279999999999998          1.0352512598037720     
  0.14310000000000000         0.97798740863800049     
  0.14339999999999997         0.81329017877578735     
  0.14369999999999999         0.53258442878723145     
  0.14400000000000002         0.13560076057910919     
  0.14429999999999998        -0.36870038509368896     
  0.14460000000000001        -0.96275734901428223     
  0.14490000000000003         -1.6202163696289062     
  0.14520000000000000         -2.3092277050018311     
  0.14550000000000002         -2.9924697875976562     
  0.14579999999999999         -3.6312372684478760     
  0.14610000000000001         -4.1870503425598145     
  0.14640000000000003         -4.6256155967712402     
  0.14670000000000000         -4.9171986579895020     
  0.14699999999999996         -5.0415530204772949     
  0.14729999999999999         -4.9872431755065918     
  0.14760000000000001         -4.7528991699218750     
  0.14789999999999998         -4.3478360176086426     
  0.14820000000000000         -3.7906494140625000     