  -1.4999999999999999E-002     0.0000000000000000     
  -1.4700000000000000E-002     0.0000000000000000     
  -1.4400000000000000E-002     0.0000000000000000     
  -1.4100000000000000E-002     0.0000000000000000     
  -1.3800000000000000E-002    -2.0435302046768695E-035
  -1.3500000000000000E-002     2.3205451611998040E-032
  -1.3200000000000000E-002     2.2173464667809450E-030
  -1.2899999999999998E-002    -6.1926267172392115E-029
  -1.2600000000000000E-002    -7.3107443650114221E-028
  -1.2299999999999998E-002     1.5698744933278212E-026
  -1.2000000000000000E-002    -2.1465338180115229E-026
  -1.1699999999999999E-002    -4.9994434577311603E-025
  -1.1399999999999999E-002     1.2747185618095962E-024
  -1.1099999999999999E-002     6.4331827701826975E-024
  -1.0799999999999999E-002    -1.5269163282465317E-023
  -1.0499999999999999E-002    -6.4160726926928158E-023
  -1.0199999999999999E-002     9.1089970674261970E-023
  -9.8999999999999991E-003     4.5966917374163668E-022
  -9.5999999999999992E-003     1.9951515342986843E-022
  -9.2999999999999992E-003    -3.2798428204518212E-021
  -8.9999999999999993E-003    -6.1779987376568899E-021
  -8.6999999999999994E-003     2.2039159518379919E-020
  -8.3999999999999995E-003     2.8499028127699923E-020
  -8.0999999999999996E-003    -5.0721665030114627E-020
  -7.7999999999999988E-003    -1.0571340440328991E-019
  -7.4999999999999997E-003    -2.5728876511972553E-019
  -7.1999999999999998E-003     7.2252597994676004E-019
  -6.8999999999999981E-003     2.0485847517008652E-018
  -6.5999999999999982E-003    -4.3438053971532975E-018
  -6.3000000000000000E-003    -7.5791323184087312E-019
  -6.0000000000000001E-003    -6.6536268143930565E-019
  -5.6999999999999985E-003    -9.7590520514822439E-018
  -5.3999999999999986E-003     8.3668088114987270E-017
  -5.1000000000000004E-003    -7.3385333128446679E-017
  -4.7999999999999987E-003    -1.6819991160815751E-016
  -4.5000000000000005E-003     3.6794041849630898E-016
  -4.1999999999999989E-003    -6.4389755878333324E-016
  -3.8999999999999990E-003     7.4361932999873325E-016
  -3.5999999999999990E-003     2.1588574366225056E-015
  -3.2999999999999991E-003    -7.6663588332941644E-015
  -2.9999999999999992E-003     9.1467784545497602E-015
  -2.6999999999999993E-003    -4.2617387009257109E-015
  -2.3999999999999994E-003    -1.6354827241842410E-014
  -2.0999999999999977E-003     6.7807697933137956E-014
  -1.7999999999999995E-003    -1.0586073440370034E-013
  -1.4999999999999979E-003     6.3041477420255898E-014
  -1.1999999999999997E-003     7.5776516138270633E-014
  -8.9999999999999976E-004    -4.1216699107546328E-013
  -5.9999999999999810E-004     9.4989489364538660E-013
  -2.9999999999999992E-004    -1.1400356570226422E-012
   0.0000000000000000          1.7535411599330086E-013
   3.0000000000000165E-004     3.0151354503404892E-012
   5.9999999999999984E-004    -8.8392019398364496E-012
   9.0000000000000149E-004     1.1608581283739650E-011
   1.2000000000000031E-003     1.2587426760635179E-012
   1.5000000000000013E-003    -3.4932626236106046E-011
   1.8000000000000030E-003     6.6848027113763919E-011
   2.1000000000000012E-003    -3.8044171979390029E-011
   2.3999999999999994E-003    -9.7918353980652739E-011
   2.7000000000000010E-003     2.5251781221591330E-010
   2.9999999999999992E-003    -1.8687722203036827E-010
   3.3000000000000008E-003    -2.2332885540876646E-010
   3.6000000000000025E-003     6.7534983161365858E-010
   3.9000000000000007E-003    -5.3832210911153311E-010
   4.2000000000000023E-003    -4.3418252326787865E-010
   4.5000000000000005E-003     1.3952127231320333E-009
   4.7999999999999987E-003    -1.0358017776823658E-009
   5.1000000000000004E-003    -6.7526362279579644E-010
   5.4000000000000020E-003     2.0946266943155933E-009
   5.7000000000000037E-003    -1.6013985693064114E-009
   5.9999999999999984E-003    -6.2155935953711605E-010
   6.3000000000000000E-003     2.4905333351199488E-009
   6.6000000000000017E-003    -2.1496107116547591E-009
   6.9000000000000034E-003     8.8916096707691850E-012
   7.2000000000000015E-003     2.2271178234944955E-009
   7.5000000000000032E-003    -2.9779922972039685E-009
   7.8000000000000014E-003     1.1909426778089482E-009
   8.0999999999999996E-003     1.9246801929995172E-009
   8.4000000000000012E-003    -3.6014839999154447E-009
   8.7000000000000029E-003     2.7046391792850955E-009
   9.0000000000000011E-003     7.9676359954206077E-010
   9.2999999999999992E-003    -4.9964432591309560E-009
   9.6000000000000009E-003     4.8190584855944962E-009
   9.8999999999999991E-003     6.2655192145655292E-010
   1.0200000000000001E-002    -5.7428994892916307E-009
   1.0500000000000002E-002     6.6352168204275586E-009
   1.0800000000000004E-002    -2.7696782645136864E-009
   1.1099999999999999E-002    -4.9161115178719683E-009
   1.1400000000000000E-002     1.3526320508105982E-008
   1.1700000000000002E-002    -1.2594585818703763E-008
   1.2000000000000004E-002    -1.5218949656059522E-008
   1.2300000000000002E-002     3.1134902656049235E-008
   1.2600000000000000E-002     2.3867272602728917E-008
   1.2900000000000002E-002    -1.6128559821027011E-008
   1.3200000000000000E-002    -1.0616186330025812E-007
   1.3500000000000002E-002    -9.3768079523215420E-008
   1.3800000000000003E-002     3.9518593553111714E-007
   1.4100000000000001E-002     1.4445624856307404E-006
   1.4400000000000000E-002     3.2452178402309073E-006
   1.4700000000000001E-002     5.2629497986345086E-006
   1.4999999999999999E-002     6.3658198996563442E-006
   1.5300000000000001E-002     9.8554828582564369E-006
   1.5600000000000003E-002     2.2359414288075641E-005
   1.5899999999999997E-002     4.3617310439003631E-005
   1.6199999999999999E-002     6.4124324126169086E-005
   1.6500000000000001E-002     7.6391814218368381E-005
   1.6800000000000002E-002     8.8384658738505095E-005
   1.7100000000000004E-002     1.1930612527066842E-004
   1.7400000000000006E-002     1.7369152919854969E-004
   1.7700000000000000E-002     2.3271024110727012E-004
   1.8000000000000002E-002     2.8460915200412273E-004
   1.8300000000000004E-002     3.4462090115994215E-004
   1.8600000000000005E-002     4.2026300798170269E-004
   1.8900000000000000E-002     4.7353329136967659E-004
   1.9200000000000002E-002     4.3988297693431377E-004
   1.9500000000000003E-002     2.5423278566449881E-004
   1.9799999999999998E-002    -1.6715997480787337E-004
   2.0100000000000000E-002    -9.5958070596680045E-004
   2.0400000000000001E-002    -2.3344100918620825E-003
   2.0700000000000003E-002    -4.5914901420474052E-003
   2.0999999999999998E-002    -8.1213843077421188E-003
   2.1299999999999999E-002    -1.3419000431895256E-002
   2.1600000000000001E-002    -2.1111018955707550E-002
   2.1900000000000003E-002    -3.1967036426067352E-002
   2.2200000000000004E-002    -4.6904169023036957E-002
   2.2500000000000006E-002    -6.6996380686759949E-002
   2.2800000000000001E-002    -9.3433320522308350E-002
   2.3100000000000002E-002   -0.12744709849357605     
   2.3400000000000004E-002   -0.17025841772556305     
   2.3699999999999999E-002   -0.22298035025596619     
   2.4000000000000000E-002   -0.28646242618560791     
   2.4300000000000002E-002   -0.36117842793464661     
   2.4599999999999997E-002   -0.44713222980499268     
   2.4900000000000005E-002   -0.54363507032394409     
   2.5200000000000000E-002   -0.64914566278457642     
   2.5499999999999995E-002   -0.76119989156723022     
   2.5800000000000003E-002   -0.87643307447433472     
   2.6099999999999998E-002   -0.99049633741378784     
   2.6400000000000007E-002    -1.0982260704040527     
   2.6700000000000002E-002    -1.1937410831451416     
   2.6999999999999996E-002    -1.2709379196166992     
   2.7300000000000005E-002    -1.3236134052276611     
   2.7600000000000000E-002    -1.3460046052932739     
   2.7900000000000008E-002    -1.3330830335617065     
   2.8200000000000003E-002    -1.2810192108154297     
   2.8499999999999998E-002    -1.1874616146087646     
   2.8800000000000006E-002    -1.0517644882202148     
   2.9100000000000001E-002   -0.87508696317672729     
   2.9400000000000003E-002   -0.66035270690917969     
   2.9700000000000004E-002   -0.41217941045761108     
   3.0000000000000006E-002   -0.13664895296096802     
   3.0300000000000001E-002    0.15928313136100769     
   3.0600000000000002E-002    0.46791306138038635     
   3.0900000000000004E-002    0.78096252679824829     
   3.1199999999999999E-002     1.0901360511779785     
   3.1500000000000007E-002     1.3874087333679199     
   3.1800000000000002E-002     1.6649137735366821     
   3.2099999999999997E-002     1.9155191183090210     
   3.2400000000000005E-002     2.1325929164886475     
   3.2700000000000000E-002     2.3105289936065674     
   3.3000000000000002E-002     2.4447467327117920     
   3.3300000000000003E-002     2.5323441028594971     
   3.3599999999999998E-002     2.5721321105957031     
   3.3900000000000000E-002     2.5651576519012451     
   3.4200000000000001E-002     2.5151674747467041     
   3.4500000000000003E-002     2.4285693168640137     
   3.4799999999999998E-002     2.3144419193267822     
   3.5099999999999999E-002     2.1840536594390869     
   3.5400000000000001E-002     2.0504238605499268     
   3.5699999999999996E-002     1.9267681837081909     
   3.6000000000000004E-002     1.8258194923400879     
   3.6299999999999999E-002     1.7575744390487671     
   3.6600000000000008E-002     1.7287456989288330     
   3.6900000000000002E-002     1.7407360076904297     
   3.7199999999999997E-002     1.7899533510208130     
   3.7500000000000006E-002     1.8662997484207153     
   3.7800000000000000E-002     1.9549899101257324     
   3.8100000000000009E-002     2.0364139080047607     
   3.8400000000000004E-002     2.0890667438507080     
   3.8699999999999998E-002     2.0903022289276123     
   3.9000000000000007E-002     2.0196697711944580     
   3.9300000000000002E-002     1.8599768877029419     
   3.9600000000000003E-002     1.5999391078948975     
   3.9900000000000005E-002     1.2345933914184570     
   4.0200000000000000E-002    0.76606667041778564     
   4.0500000000000001E-002    0.20346143841743469     
   4.0800000000000003E-002   -0.43844431638717651     
   4.1100000000000005E-002    -1.1398410797119141     
   4.1399999999999999E-002    -1.8781669139862061     
   4.1700000000000008E-002    -2.6292290687561035     
   4.2000000000000003E-002    -3.3686840534210205     
   4.2299999999999997E-002    -4.0732398033142090     
   4.2600000000000006E-002    -4.7206697463989258     
   4.2900000000000001E-002    -5.2904829978942871     
   4.3200000000000002E-002    -5.7637596130371094     
   4.3500000000000004E-002    -6.1230263710021973     
   4.3799999999999999E-002    -6.3516006469726562     
   4.4100000000000000E-002    -6.4340286254882812     
   4.4400000000000002E-002    -6.3573341369628906     
   4.4700000000000004E-002    -6.1110758781433105     
   4.4999999999999998E-002    -5.6889524459838867     
   4.5300000000000000E-002    -5.0907740592956543     
   4.5600000000000002E-002    -4.3234920501708984     
   4.5899999999999996E-002    -3.4033255577087402     
   4.6200000000000005E-002    -2.3551375865936279     
   4.6500000000000000E-002    -1.2137086391448975     
   4.6799999999999994E-002    -2.1303672343492508E-002
   4.7100000000000003E-002     1.1729176044464111     
   4.7399999999999998E-002     2.3167786598205566     
   4.7700000000000006E-002     3.3569507598876953     
   4.8000000000000001E-002     4.2441148757934570     
   4.8300000000000010E-002     4.9345684051513672     
   4.8600000000000004E-002     5.3944716453552246     
   4.8899999999999999E-002     5.6008887290954590     
   4.9200000000000008E-002     5.5442442893981934     
   4.9500000000000002E-002     5.2280740737915039     
   4.9800000000000011E-002     4.6688818931579590     
   5.0100000000000006E-002     3.8959209918975830     
   5.0400000000000000E-002     2.9486463069915771     
   5.0700000000000009E-002     1.8773274421691895     
   5.1000000000000004E-002    0.73823314905166626     
   5.1299999999999998E-002   -0.40404176712036133     
   5.1600000000000007E-002    -1.4831881523132324     
   5.1900000000000002E-002    -2.4280574321746826     
   5.2200000000000010E-002    -3.1710598468780518     
   5.2500000000000005E-002    -3.6458981037139893     
   5.2800000000000000E-002    -3.7969081401824951     
   5.3099999999999994E-002    -3.5796988010406494     
   5.3400000000000003E-002    -2.9696290493011475     
   5.3699999999999998E-002    -1.9655501842498779     
   5.4000000000000006E-002   -0.59515589475631714     
   5.4300000000000001E-002     1.0809899568557739     
   5.4599999999999996E-002     2.9696865081787109     
   5.4900000000000004E-002     4.9446511268615723     
   5.5199999999999999E-002     6.8539447784423828     
   5.5499999999999994E-002     8.5263156890869141     
   5.5800000000000002E-002     9.7850961685180664     
   5.6099999999999997E-002     10.461298942565918     
   5.6400000000000006E-002     10.410542488098145     
   5.6700000000000000E-002     9.5274715423583984     
   5.6999999999999995E-002     7.7605447769165039     
   5.7300000000000004E-002     5.1220774650573730     
   5.7599999999999998E-002     1.6934173107147217     
   5.7900000000000007E-002    -2.3756692409515381     
   5.8200000000000002E-002    -6.8731012344360352     
   5.8499999999999996E-002    -11.537832260131836     
   5.8800000000000005E-002    -16.077775955200195     
   5.9100000000000000E-002    -20.190469741821289     
   5.9400000000000008E-002    -23.587030410766602     
   5.9700000000000003E-002    -26.013435363769531     
   6.0000000000000012E-002    -27.271900177001953     
   6.0300000000000006E-002    -27.234760284423828     
   6.0600000000000001E-002    -25.855815887451172     
   6.0900000000000010E-002    -23.171995162963867     
   6.1200000000000004E-002    -19.300794601440430     
   6.1500000000000013E-002    -14.429858207702637     
   6.1800000000000008E-002    -8.8034057617187500     
   6.2100000000000002E-002    -2.7018532752990723     
   6.2399999999999997E-002     3.5743198394775391     
   6.2700000000000006E-002     9.7306289672851562     
   6.3000000000000000E-002     15.487229347229004     
   6.3300000000000009E-002     20.607631683349609     
   6.3600000000000004E-002     24.892536163330078     
   6.3899999999999998E-002     28.206392288208008     
   6.4199999999999993E-002     30.459722518920898     
   6.4500000000000002E-002     31.627170562744141     
   6.4800000000000010E-002     31.724761962890625     
   6.5100000000000005E-002     30.818515777587891     
   6.5400000000000000E-002     29.004272460937500     
   6.5700000000000008E-002     26.407466888427734     
   6.5999999999999989E-002     23.168235778808594     
   6.6299999999999998E-002     19.438209533691406     
   6.6600000000000006E-002     15.370674133300781     
   6.6900000000000001E-002     11.116518974304199     
   6.7199999999999996E-002     6.8183283805847168     
   6.7500000000000004E-002     2.6082501411437988     
   6.7800000000000013E-002    -1.3963000774383545     
   6.8099999999999994E-002    -5.0940690040588379     
   6.8400000000000002E-002    -8.4014339447021484     
   6.8700000000000011E-002    -11.253944396972656     
   6.8999999999999992E-002    -13.606269836425781     
   6.9300000000000000E-002    -15.433032035827637     
   6.9600000000000009E-002    -16.726713180541992     
   6.9900000000000004E-002    -17.499645233154297     
   7.0199999999999999E-002    -17.777158737182617     
   7.0500000000000007E-002    -17.602516174316406     
   7.0800000000000016E-002    -17.027074813842773     
   7.1099999999999997E-002    -16.115930557250977     
   7.1400000000000005E-002    -14.935107231140137     
   7.1700000000000000E-002    -13.559576988220215     
   7.1999999999999995E-002    -12.059295654296875     
   7.2300000000000003E-002    -10.505486488342285     
   7.2600000000000012E-002    -8.9602899551391602     
   7.2900000000000006E-002    -7.4783596992492676     
   7.3200000000000001E-002    -6.1026306152343750     
   7.3499999999999996E-002    -4.8622479438781738     
   7.3800000000000004E-002    -3.7727696895599365     
   7.4099999999999999E-002    -2.8343346118927002     
   7.4400000000000008E-002    -2.0337858200073242     
   7.4700000000000003E-002    -1.3471701145172119     
   7.5000000000000011E-002   -0.74075943231582642     
   7.5299999999999992E-002   -0.17792700231075287     
   7.5600000000000001E-002    0.38103711605072021     
   7.5900000000000009E-002    0.96834379434585571     
   7.6200000000000004E-002     1.6126048564910889     
   7.6499999999999999E-002     2.3268597126007080     
   7.6800000000000007E-002     3.1163878440856934     
   7.7099999999999988E-002     3.9677684307098389     
   7.7399999999999997E-002     4.8588509559631348     
   7.7700000000000005E-002     5.7537040710449219     
   7.8000000000000014E-002     6.6089739799499512     
   7.8299999999999995E-002     7.3778104782104492     
   7.8600000000000003E-002     8.0105819702148438     
   7.8900000000000012E-002     8.4656791687011719     
   7.9199999999999993E-002     8.7035570144653320     
   7.9500000000000001E-002     8.7018499374389648     
   7.9800000000000010E-002     8.4449138641357422     
   8.0100000000000018E-002     7.9383888244628906     
   8.0399999999999999E-002     7.1965861320495605     
   8.0700000000000008E-002     6.2538337707519531     
   8.1000000000000003E-002     5.1521134376525879     
   8.1299999999999997E-002     3.9466309547424316     
   8.1600000000000006E-002     2.6967134475708008     
   8.1900000000000014E-002     1.4650275707244873     
   8.2199999999999995E-002    0.31208431720733643     
   8.2500000000000004E-002   -0.70795679092407227     
   8.2799999999999999E-002    -1.5505855083465576     
   8.3100000000000007E-002    -2.1841492652893066     
   8.3400000000000002E-002    -2.5931701660156250     
   8.3700000000000011E-002    -2.7770879268646240     
   8.4000000000000005E-002    -2.7526979446411133     
   8.4300000000000000E-002    -2.5491721630096436     
   8.4599999999999995E-002    -2.2098064422607422     
   8.4900000000000003E-002    -1.7839336395263672     
   8.5199999999999998E-002    -1.3263254165649414     
   8.5500000000000007E-002   -0.89003515243530273     
   8.5800000000000001E-002   -0.52406609058380127     
   8.6100000000000010E-002   -0.26832062005996704     
   8.6399999999999991E-002   -0.15122015774250031     
   8.6699999999999999E-002   -0.18766552209854126     
   8.7000000000000008E-002   -0.37770956754684448     
   8.7300000000000003E-002   -0.70801585912704468     
   8.7599999999999997E-002    -1.1515398025512695     
   8.7900000000000006E-002    -1.6723463535308838     
   8.8200000000000014E-002    -2.2251672744750977     
   8.8499999999999995E-002    -2.7638969421386719     
   8.8800000000000004E-002    -3.2398364543914795     
   8.9100000000000013E-002    -3.6106247901916504     
   8.9399999999999993E-002    -3.8394429683685303     
   8.9700000000000002E-002    -3.9005911350250244     
   9.0000000000000011E-002    -3.7798953056335449     
   9.0299999999999991E-002    -3.4774568080902100     
   9.0600000000000000E-002    -3.0058898925781250     
   9.0900000000000009E-002    -2.3909702301025391     
   9.1200000000000017E-002    -1.6694200038909912     
   9.1499999999999998E-002   -0.88567125797271729     
   9.1800000000000007E-002    -8.9986525475978851E-002
   9.2100000000000001E-002    0.66823071241378784     
   9.2399999999999996E-002     1.3387780189514160     
   9.2700000000000005E-002     1.8828619718551636     
   9.3000000000000013E-002     2.2653527259826660     
   9.3300000000000008E-002     2.4704828262329102     
   9.3600000000000003E-002     2.4886622428894043     
   9.3899999999999997E-002     2.3335456848144531     
   9.4200000000000006E-002     2.0236232280731201     
   9.4500000000000001E-002     1.5986549854278564     
   9.4800000000000009E-002     1.0982329845428467     
   9.5100000000000004E-002    0.57644248008728027     
   9.5399999999999999E-002     8.0116055905818939E-002
   9.5699999999999993E-002   -0.33990657329559326     
   9.6000000000000002E-002   -0.64711898565292358     
   9.6300000000000011E-002   -0.81091475486755371     
   9.6600000000000005E-002   -0.81835043430328369     
   9.6900000000000000E-002   -0.66911053657531738     
   9.7200000000000009E-002   -0.37974256277084351     
   9.7499999999999989E-002     2.0810395479202271E-002
   9.7799999999999998E-002    0.49328777194023132     
   9.8100000000000007E-002    0.99086767435073853     
   9.8400000000000015E-002     1.4656882286071777     
   9.8699999999999996E-002     1.8711324930191040     
   9.9000000000000005E-002     2.1687197685241699     
   9.9300000000000013E-002     2.3293206691741943     
   9.9599999999999994E-002     2.3363699913024902     
   9.9900000000000003E-002     2.1874215602874756     
  0.10020000000000001          1.8919925689697266     
  0.10049999999999999          1.4736343622207642     
  0.10080000000000000         0.96233767271041870     
  0.10110000000000001         0.39721390604972839     
  0.10140000000000000        -0.18341234326362610     
  0.10170000000000000        -0.73861104249954224     
  0.10200000000000001         -1.2336972951889038     
  0.10230000000000002         -1.6384123563766479     
  0.10260000000000000         -1.9311231374740601     
  0.10290000000000001         -2.0982491970062256     
  0.10320000000000000         -2.1352953910827637     
  0.10350000000000001         -2.0459427833557129     
  0.10380000000000000         -1.8414467573165894     
  0.10410000000000001         -1.5394102334976196     
  0.10440000000000001         -1.1621836423873901     
  0.10470000000000000        -0.73555117845535278     
  0.10500000000000000        -0.28738209605216980     
  0.10530000000000000         0.15460720658302307     
  0.10560000000000000         0.56337046623229980     
  0.10590000000000001         0.91566646099090576     
  0.10620000000000000          1.1914066076278687     
  0.10650000000000001          1.3759024143218994     
  0.10679999999999999          1.4604367017745972     
  0.10710000000000000          1.4423133134841919     
  0.10740000000000001          1.3263554573059082     
  0.10770000000000000          1.1213568449020386     
  0.10800000000000000         0.84452676773071289     
  0.10830000000000001         0.51333975791931152     
  0.10859999999999999         0.15283735096454620     
  0.10890000000000000        -0.21636471152305603     
  0.10920000000000001        -0.56703525781631470     
  0.10950000000000001        -0.88119441270828247     
  0.10979999999999999         -1.1365494728088379     
  0.11009999999999999         -1.3222467899322510     
  0.11040000000000001         -1.4262515306472778     
  0.11070000000000001         -1.4469770193099976     
  0.11100000000000000         -1.3848556280136108     
  0.11130000000000000         -1.2479951381683350     
  0.11160000000000002         -1.0481872558593750     
  0.11190000000000001        -0.80029135942459106     
  0.11220000000000001        -0.52331316471099854     
  0.11250000000000000        -0.23511809110641479     
  0.11280000000000000          4.3809998780488968E-002
  0.11309999999999999         0.29852116107940674     
  0.11340000000000001         0.51213061809539795     
  0.11369999999999998         0.67621451616287231     
  0.11400000000000000         0.78227281570434570     
  0.11430000000000000         0.82974040508270264     
  0.11460000000000002         0.81985563039779663     
  0.11489999999999999         0.75985354185104370     
  0.11520000000000001         0.65861457586288452     
  0.11550000000000001         0.52750074863433838     
  0.11580000000000000         0.38052952289581299     
  0.11609999999999999         0.22980234026908875     
  0.11640000000000002          8.9066334068775177E-002
  0.11670000000000001         -3.1870305538177490E-002
  0.11700000000000001        -0.12282589823007584     
  0.11730000000000000        -0.17877182364463806     
  0.11760000000000000        -0.19561508297920227     
  0.11789999999999999        -0.17458492517471313     
  0.11820000000000001        -0.11781841516494751     
  0.11850000000000001         -3.2341100275516510E-002
  0.11880000000000000          7.4620641767978668E-002
  0.11910000000000000         0.19174103438854218     
  0.11940000000000002         0.30934360623359680     
  0.11970000000000001         0.41544714570045471     
  0.12000000000000001         0.50099307298660278     
  0.12030000000000000         0.55679643154144287     
  0.12060000000000000         0.57748705148696899     
  0.12089999999999999         0.55953592061996460     
  0.12119999999999999         0.50336956977844238     
  0.12150000000000001         0.41142785549163818     
  0.12180000000000001         0.28970167040824890     
  0.12210000000000000         0.14591278135776520     
  0.12239999999999999         -1.0595553554594517E-002
  0.12270000000000002        -0.16948595643043518     
  0.12300000000000001        -0.32083290815353394     
  0.12330000000000001        -0.45525711774826050     
  0.12360000000000000        -0.56498551368713379     
  0.12390000000000000        -0.64348417520523071     
  0.12419999999999999        -0.68720126152038574     
  0.12450000000000001        -0.69418662786483765     
  0.12480000000000001        -0.66547554731369019     
  0.12509999999999999        -0.60414481163024902     
  0.12540000000000001        -0.51544100046157837     
  0.12570000000000003        -0.40550416707992554     
  0.12600000000000000        -0.28273782134056091     
  0.12630000000000002        -0.15531750023365021     
  0.12659999999999999         -3.2423645257949829E-002
  0.12690000000000001          7.9040013253688812E-002
  0.12719999999999998         0.17130596935749054     
  0.12750000000000000         0.24036905169487000     
  0.12780000000000002         0.28200170397758484     
  0.12809999999999999         0.29639181494712830     
  0.12840000000000001         0.28397351503372192     
  0.12869999999999998         0.24876201152801514     
  0.12900000000000000         0.19486682116985321     
  0.12930000000000003         0.12866075336933136     
  0.12959999999999999          5.6668978184461594E-002
  0.12990000000000002         -1.4728542417287827E-002
  0.13019999999999998         -7.9111114144325256E-002
  0.13050000000000000        -0.13229492306709290     
  0.13080000000000003        -0.16875851154327393     
  0.13109999999999999        -0.18756873905658722     
  0.13140000000000002        -0.18573580682277679     
  0.13169999999999998        -0.16558209061622620     
  0.13200000000000001        -0.12679778039455414     
  0.13229999999999997         -7.4055939912796021E-002
  0.13260000000000000         -9.7340382635593414E-003
  0.13290000000000002          6.0239523649215698E-002
  0.13319999999999999         0.13167718052864075     
  0.13350000000000001         0.19856569170951843     
  0.13380000000000003         0.25624075531959534     
  0.13410000000000000         0.30063244700431824     
  0.13440000000000002         0.32782989740371704     
  0.13469999999999999         0.33632171154022217     
  0.13500000000000001         0.32525128126144409     
  0.13529999999999998         0.29605361819267273     
  0.13560000000000000         0.25064292550086975     
  0.13590000000000002         0.19290684163570404     
  0.13619999999999999         0.12720362842082977     
  0.13650000000000001          5.8256689459085464E-002
  0.13680000000000003         -9.0146744623780251E-003
  0.13710000000000000         -7.0711672306060791E-002
  0.13740000000000002        -0.12286087125539780     
  0.13769999999999999        -0.16364495456218719     
  0.13800000000000001        -0.19076767563819885     
  0.13829999999999998        -0.20453119277954102     
  0.13860000000000000        -0.20480841398239136     
  0.13890000000000002        -0.19303399324417114     
  0.13919999999999999        -0.17108204960823059     
  0.13950000000000001        -0.14115196466445923     
  0.13979999999999998        -0.10583022981882095     
  0.14010000000000000         -6.7786149680614471E-002
  0.14040000000000002         -2.9828071594238281E-002
  0.14069999999999999          5.5005829781293869E-003
  0.14100000000000001          3.5498198121786118E-002
  0.14130000000000004          5.8101996779441833E-002
  0.14160000000000000          7.1925565600395203E-002
  0.14189999999999997          7.5863629579544067E-002
  0.14219999999999999          7.0079967379570007E-002
  0.14250000000000002          5.5279251188039780E-002
  0.14279999999999998          3.3066041767597198E-002
  0.14310000000000000          5.4222666658461094E-003
  0.14339999999999997         -2.4664068594574928E-002
  0.14369999999999999         -5.4549448192119598E-002
  0.14400000000000002         -8.1333965063095093E-002
  0.14429999999999998        -0.10286345332860947     
  0.14460000000000001        -0.11729916930198669     
  0.14490000000000003        -0.12376061826944351     
  0.14520000000000000        -0.12154704332351685     
  0.14550000000000002        -0.11154165118932724     
  0.14579999999999999         -9.4131536781787872E-002
  0.14610000000000001         -7.1332290768623352E-002
  0.14640000000000003         -4.3898880481719971E-002
  0.14670000000000000         -1.4766669832170010E-002
  0.14699999999999996          1.5382519923150539E-002
  0.14729999999999999          4.3780576437711716E-002
  0.14760000000000001          7.0015788078308105E-002
  0.14789999999999998          9.1651886701583862E-002
  0.14820000000000000         0.10814729332923889     