  -1.4999999999999999E-002     0.0000000000000000     
  -1.4700000000000000E-002     0.0000000000000000     
  -1.4400000000000000E-002     0.0000000000000000     
  -1.4100000000000000E-002     0.0000000000000000     
  -1.3800000000000000E-002     0.0000000000000000     
  -1.3500000000000000E-002     0.0000000000000000     
  -1.3200000000000000E-002     0.0000000000000000     
  -1.2899999999999998E-002     0.0000000000000000     
  -1.2600000000000000E-002     0.0000000000000000     
  -1.2299999999999998E-002     0.0000000000000000     
  -1.2000000000000000E-002     0.0000000000000000     
  -1.1699999999999999E-002     0.0000000000000000     
  -1.1399999999999999E-002     0.0000000000000000     
  -1.1099999999999999E-002     0.0000000000000000     
  -1.0799999999999999E-002     0.0000000000000000     
  -1.0499999999999999E-002     0.0000000000000000     
  -1.0199999999999999E-002     0.0000000000000000     
  -9.8999999999999991E-003     0.0000000000000000     
  -9.5999999999999992E-003     0.0000000000000000     
  -9.2999999999999992E-003     0.0000000000000000     
  -8.9999999999999993E-003     0.0000000000000000     
  -8.6999999999999994E-003     0.0000000000000000     
  -8.3999999999999995E-003     0.0000000000000000     
  -8.0999999999999996E-003     0.0000000000000000     
  -7.7999999999999988E-003     0.0000000000000000     
  -7.4999999999999997E-003     0.0000000000000000     
  -7.1999999999999998E-003     0.0000000000000000     
  -6.8999999999999981E-003     0.0000000000000000     
  -6.5999999999999982E-003     0.0000000000000000     
  -6.3000000000000000E-003     0.0000000000000000     
  -6.0000000000000001E-003     0.0000000000000000     
  -5.6999999999999985E-003     0.0000000000000000     
  -5.3999999999999986E-003     0.0000000000000000     
  -5.1000000000000004E-003     0.0000000000000000     
  -4.7999999999999987E-003     0.0000000000000000     
  -4.5000000000000005E-003     0.0000000000000000     
  -4.1999999999999989E-003     0.0000000000000000     
  -3.8999999999999990E-003     0.0000000000000000     
  -3.5999999999999990E-003     0.0000000000000000     
  -3.2999999999999991E-003     0.0000000000000000     
  -2.9999999999999992E-003     0.0000000000000000     
  -2.6999999999999993E-003     0.0000000000000000     
  -2.3999999999999994E-003     0.0000000000000000     
  -2.0999999999999977E-003     0.0000000000000000     
  -1.7999999999999995E-003     0.0000000000000000     
  -1.4999999999999979E-003     0.0000000000000000     
  -1.1999999999999997E-003     0.0000000000000000     
  -8.9999999999999976E-004     0.0000000000000000     
  -5.9999999999999810E-004     0.0000000000000000     
  -2.9999999999999992E-004     0.0000000000000000     
   0.0000000000000000          0.0000000000000000     
   3.0000000000000165E-004     0.0000000000000000     
   5.9999999999999984E-004     0.0000000000000000     
   9.0000000000000149E-004     0.0000000000000000     
   1.2000000000000031E-003     0.0000000000000000     
   1.5000000000000013E-003     0.0000000000000000     
   1.8000000000000030E-003     0.0000000000000000     
   2.1000000000000012E-003     0.0000000000000000     
   2.3999999999999994E-003     0.0000000000000000     
   2.7000000000000010E-003     0.0000000000000000     
   2.9999999999999992E-003     0.0000000000000000     
   3.3000000000000008E-003     0.0000000000000000     
   3.6000000000000025E-003     0.0000000000000000     
   3.9000000000000007E-003     0.0000000000000000     
   4.2000000000000023E-003     0.0000000000000000     
   4.5000000000000005E-003     0.0000000000000000     
   4.7999999999999987E-003     0.0000000000000000     
   5.1000000000000004E-003     0.0000000000000000     
   5.4000000000000020E-003     0.0000000000000000     
   5.7000000000000037E-003     0.0000000000000000     
   5.9999999999999984E-003     0.0000000000000000     
   6.3000000000000000E-003     0.0000000000000000     
   6.6000000000000017E-003     0.0000000000000000     
   6.9000000000000034E-003     0.0000000000000000     
   7.2000000000000015E-003     0.0000000000000000     
   7.5000000000000032E-003     0.0000000000000000     
   7.8000000000000014E-003     0.0000000000000000     
   8.0999999999999996E-003     0.0000000000000000     
   8.4000000000000012E-003     0.0000000000000000     
   8.7000000000000029E-003     2.4753199728786273E-037
   9.0000000000000011E-003    -5.9226677325878164E-036
   9.2999999999999992E-003     4.7557347458948577E-035
   9.6000000000000009E-003    -1.2648203272533914E-034
   9.8999999999999991E-003     1.8922187408688200E-034
   1.0200000000000001E-002    -4.8794224081431014E-034
   1.0500000000000002E-002     5.2484307478528530E-034
   1.0800000000000004E-002     2.5147850232240296E-033
   1.1099999999999999E-002    -8.8728987849714382E-033
   1.1400000000000000E-002     9.4219060746832949E-033
   1.1700000000000002E-002     1.7709793647345128E-032
   1.2000000000000004E-002    -7.4601908496475639E-032
   1.2300000000000002E-002     8.1600413948135767E-032
   1.2600000000000000E-002     1.2837942910556360E-031
   1.2900000000000002E-002    -5.8273505557833365E-031
   1.3200000000000000E-002     6.9206928978108367E-031
   1.3500000000000002E-002     7.8500039369381528E-031
   1.3800000000000003E-002    -4.0601811857062936E-030
   1.4100000000000001E-002     5.1582941540071709E-030
   1.4400000000000000E-002     3.9740311795650376E-030
   1.4700000000000001E-002    -2.4723468136551064E-029
   1.4999999999999999E-002     3.3230741558310817E-029
   1.5300000000000001E-002     1.7015484229734626E-029
   1.5600000000000003E-002    -1.3219508508488642E-028
   1.5899999999999997E-002     1.8311356725244961E-028
   1.6199999999999999E-002     6.1227106454330938E-029
   1.6500000000000001E-002    -6.1297997528171402E-028
   1.6800000000000002E-002     8.6730133555398178E-028
   1.7100000000000004E-002     1.4882492441274904E-028
   1.7400000000000006E-002    -2.4069611850980749E-027
   1.7700000000000000E-002     3.5542397714924901E-027
   1.8000000000000002E-002    -2.3094909298741063E-028
   1.8300000000000004E-002    -7.4675545440484030E-027
   1.8600000000000005E-002     1.2977948263731387E-026
   1.8900000000000000E-002    -6.9764747638527236E-027
   1.9200000000000002E-002    -1.4811126962740889E-026
   1.9500000000000003E-002     4.6425712274860508E-026
   1.9799999999999998E-002    -6.3282729965620669E-026
   2.0100000000000000E-002     5.2770465068770707E-027
   2.0400000000000001E-002     1.9027090840849567E-025
   2.0700000000000003E-002    -4.0796617175654721E-025
   2.0999999999999998E-002     1.7244302172905013E-025
   2.1299999999999999E-002     9.4232699040645212E-025
   2.1600000000000001E-002    -2.0587839815877695E-024
   2.1900000000000003E-002     5.4435248157162767E-025
   2.2200000000000004E-002     4.7694940537333089E-024
   2.2500000000000006E-002    -8.1573968395851682E-024
   2.2800000000000001E-002    -5.1580597199439492E-025
   2.3100000000000002E-002     1.8133422566014184E-023
   2.3400000000000004E-002    -1.7606797958350362E-023
   2.3699999999999999E-002    -1.0422510743592341E-023
   2.4000000000000000E-002    -9.0964191930520363E-025
   2.4300000000000002E-002     4.2053610032924001E-023
   2.4599999999999997E-002     3.5701517115088230E-022
   2.4900000000000005E-002    -1.2267422708749724E-021
   2.5200000000000000E-002    -2.3950776337370667E-021
   2.5499999999999995E-002     2.0423042471907370E-020
   2.5800000000000003E-002    -2.8304398345679877E-020
   2.6099999999999998E-002    -1.1549364546164452E-019
   2.6400000000000007E-002     5.4233362739245619E-019
   2.6700000000000002E-002    -5.0837517491016360E-019
   2.6999999999999996E-002    -2.5801889159703194E-018
   2.7300000000000005E-002     9.8804639674315522E-018
   2.7600000000000000E-002    -9.2021493953584678E-018
   2.7900000000000008E-002    -3.1507001820956954E-017
   2.8200000000000003E-002     1.2722561922701679E-016
   2.8499999999999998E-002    -1.9944479974533111E-016
   2.8800000000000006E-002     3.7254983944636888E-017
   2.9100000000000001E-002     8.8498002329129299E-016
   2.9400000000000003E-002    -4.0916697317100979E-015
   2.9700000000000004E-002     1.0149235171361647E-014
   3.0000000000000006E-002    -3.3416684319702772E-015
   3.0300000000000001E-002    -6.9973032630708115E-014
   3.0600000000000002E-002     2.2904131390978633E-013
   3.0900000000000004E-002    -1.4797166855533284E-013
   3.1199999999999999E-002    -1.0099285773987332E-012
   3.1500000000000007E-002     3.0742481043483094E-012
   3.1800000000000002E-002    -1.2500222211497825E-012
   3.2099999999999997E-002    -1.2170075711082085E-011
   3.2400000000000005E-002     2.7620898623847978E-011
   3.2700000000000000E-002     3.9313430982845787E-012
   3.3000000000000002E-002    -1.1453127335414592E-010
   3.3300000000000003E-002     1.5370266170933178E-010
   3.3599999999999998E-002     1.9307337673080127E-010
   3.3900000000000000E-002    -7.6138689797389247E-010
   3.4200000000000001E-002     2.7813501501938731E-010
   3.4500000000000003E-002     2.0858710314541895E-009
   3.4799999999999998E-002    -3.1445011039465953E-009
   3.5099999999999999E-002    -2.9942701651464176E-009
   3.5400000000000001E-002     1.3735263593162017E-008
   3.5699999999999996E-002    -1.0296142605170644E-008
   3.6000000000000004E-002    -4.8300357491370960E-008
   3.6299999999999999E-002     1.1332346616654831E-007
   3.6600000000000008E-002     9.0205531932951999E-008
   3.6900000000000002E-002    -5.0167312792837038E-007
   3.7199999999999997E-002     3.1896836389933014E-006
   3.7500000000000006E-002     2.1178702809265815E-005
   3.7800000000000000E-002     5.1644201448652893E-005
   3.8100000000000009E-002     7.3698349297046661E-005
   3.8400000000000004E-002     7.9145902418531477E-005
   3.8699999999999998E-002     9.5201670774258673E-005
   3.9000000000000007E-002     1.4986912719905376E-004
   3.9300000000000002E-002     2.4156221479643136E-004
   3.9600000000000003E-002     3.6333542084321380E-004
   3.9900000000000005E-002     5.2507029613479972E-004
   4.0200000000000000E-002     7.4634747579693794E-004
   4.0500000000000001E-002     1.0522527154535055E-003
   4.0800000000000003E-002     1.4668086078017950E-003
   4.1100000000000005E-002     2.0015409681946039E-003
   4.1399999999999999E-002     2.6606032624840736E-003
   4.1700000000000008E-002     3.4504823852330446E-003
   4.2000000000000003E-002     4.3706125579774380E-003
   4.2299999999999997E-002     5.3794309496879578E-003
   4.2600000000000006E-002     6.3682971522212029E-003
   4.2900000000000001E-002     7.1807028725743294E-003
   4.3200000000000002E-002     7.6151201501488686E-003
   4.3500000000000004E-002     7.3717236518859863E-003
   4.3799999999999999E-002     6.0178199782967567E-003
   4.4100000000000000E-002     2.9935576021671295E-003
   4.4400000000000002E-002    -2.3664114996790886E-003
   4.4700000000000004E-002    -1.0808129794895649E-002
   4.4999999999999998E-002    -2.3156637325882912E-002
   4.5300000000000000E-002    -4.0257576853036880E-002
   4.5600000000000002E-002    -6.2823876738548279E-002
   4.5899999999999996E-002    -9.1349951922893524E-002
   4.6200000000000005E-002   -0.12602537870407104     
   4.6500000000000000E-002   -0.16648581624031067     
   4.6799999999999994E-002   -0.21162028610706329     
   4.7100000000000003E-002   -0.25952506065368652     
   4.7399999999999998E-002   -0.30735754966735840     
   4.7700000000000006E-002   -0.35122507810592651     
   4.8000000000000001E-002   -0.38629710674285889     
   4.8300000000000010E-002   -0.40702772140502930     
   4.8600000000000004E-002   -0.40739446878433228     
   4.8899999999999999E-002   -0.38132756948471069     
   4.9200000000000008E-002   -0.32330161333084106     
   4.9500000000000002E-002   -0.22898083925247192     
   4.9800000000000011E-002    -9.5917716622352600E-002
   5.0100000000000006E-002     7.5870484113693237E-002
   5.0400000000000000E-002    0.28330510854721069     
   5.0700000000000009E-002    0.51991826295852661     
   5.1000000000000004E-002    0.77589613199234009     
   5.1299999999999998E-002     1.0381937026977539     
   5.1600000000000007E-002     1.2912478446960449     
   5.1900000000000002E-002     1.5179004669189453     
   5.2200000000000010E-002     1.7005525827407837     
   5.2500000000000005E-002     1.8226525783538818     
   5.2800000000000000E-002     1.8701384067535400     
   5.3099999999999994E-002     1.8328177928924561     
   5.3400000000000003E-002     1.7055991888046265     
   5.3699999999999998E-002     1.4892301559448242     
   5.4000000000000006E-002     1.1906337738037109     
   5.4300000000000001E-002    0.82281327247619629     
   5.4599999999999996E-002    0.40401068329811096     
   5.4900000000000004E-002    -4.3620966374874115E-002
   5.5199999999999999E-002   -0.49539813399314880     
   5.5499999999999994E-002   -0.92625218629837036     
   5.5800000000000002E-002    -1.3125666379928589     
   5.6099999999999997E-002    -1.6338845491409302     
   5.6400000000000006E-002    -1.8748521804809570     
   5.6700000000000000E-002    -2.0258331298828125     
   5.6999999999999995E-002    -2.0840115547180176     
   5.7300000000000004E-002    -2.0532131195068359     
   5.7599999999999998E-002    -1.9431298971176147     
   5.7900000000000007E-002    -1.7687683105468750     
   5.8200000000000002E-002    -1.5488139390945435     
   5.8499999999999996E-002    -1.3037966489791870     
   5.8800000000000005E-002    -1.0548105239868164     
   5.9100000000000000E-002   -0.82148951292037964     
   5.9400000000000008E-002   -0.62052863836288452     
   5.9700000000000003E-002   -0.46488255262374878     
   6.0000000000000012E-002   -0.36248496174812317     
   6.0300000000000006E-002   -0.31621202826499939     
   6.0600000000000001E-002   -0.32386422157287598     
   6.0900000000000010E-002   -0.37824767827987671     
   6.1200000000000004E-002   -0.46833840012550354     
   6.1500000000000013E-002   -0.57994800806045532     
   6.1800000000000008E-002   -0.69672644138336182     
   6.2100000000000002E-002   -0.80175387859344482     
   6.2399999999999997E-002   -0.87851095199584961     
   6.2700000000000006E-002   -0.91191405057907104     
   6.3000000000000000E-002   -0.88973712921142578     
   6.3300000000000009E-002   -0.80333822965621948     
   6.3600000000000004E-002   -0.64806973934173584     
   6.3899999999999998E-002   -0.42417618632316589     
   6.4199999999999993E-002   -0.13662108778953552     
   6.4500000000000002E-002    0.20506238937377930     
   6.4800000000000010E-002    0.58733439445495605     
   6.5100000000000005E-002    0.99301856756210327     
   6.5400000000000000E-002     1.4030137062072754     
   6.5700000000000008E-002     1.7969245910644531     
   6.5999999999999989E-002     2.1544857025146484     
   6.6299999999999998E-002     2.4571349620819092     
   6.6600000000000006E-002     2.6887478828430176     
   6.6900000000000001E-002     2.8368151187896729     
   6.7199999999999996E-002     2.8934257030487061     
   6.7500000000000004E-002     2.8549239635467529     
   6.7800000000000013E-002     2.7224824428558350     
   6.8099999999999994E-002     2.5018153190612793     
   6.8400000000000002E-002     2.2019541263580322     
   6.8700000000000011E-002     1.8352922201156616     
   6.8999999999999992E-002     1.4163891077041626     
   6.9300000000000000E-002    0.96081942319869995     
   6.9600000000000009E-002    0.48502960801124573     
   6.9900000000000004E-002     5.1184818148612976E-003
   7.0199999999999999E-002   -0.46348166465759277     
   7.0500000000000007E-002   -0.90611773729324341     
   7.0800000000000016E-002    -1.3098759651184082     
   7.1099999999999997E-002    -1.6630760431289673     
   7.1400000000000005E-002    -1.9555823802947998     
   7.1700000000000000E-002    -2.1795899868011475     
   7.1999999999999995E-002    -2.3291475772857666     
   7.2300000000000003E-002    -2.4005570411682129     
   7.2600000000000012E-002    -2.3930733203887939     
   7.2900000000000006E-002    -2.3082420825958252     
   7.3200000000000001E-002    -2.1508305072784424     
   7.3499999999999996E-002    -1.9283912181854248     
   7.3800000000000004E-002    -1.6506663560867310     
   7.4099999999999999E-002    -1.3300399780273438     
   7.4400000000000008E-002   -0.98014265298843384     
   7.4700000000000003E-002   -0.61539691686630249     
   7.5000000000000011E-002   -0.25062537193298340     
   7.5299999999999992E-002    0.10038483142852783     
   7.5600000000000001E-002    0.42512625455856323     
   7.5900000000000009E-002    0.71280103921890259     
   7.6200000000000004E-002    0.95502483844757080     
   7.6499999999999999E-002     1.1454467773437500     
   7.6800000000000007E-002     1.2803593873977661     
   7.7099999999999988E-002     1.3581064939498901     
   7.7399999999999997E-002     1.3785200119018555     
   7.7700000000000005E-002     1.3435027599334717     
   7.8000000000000014E-002     1.2561851739883423     
   7.8299999999999995E-002     1.1207774877548218     
   7.8600000000000003E-002    0.94312667846679688     
   7.8900000000000012E-002    0.73020917177200317     
   7.9199999999999993E-002    0.49044400453567505     
   7.9500000000000001E-002    0.23389767110347748     
   7.9800000000000010E-002    -2.8084807097911835E-002
   8.0100000000000018E-002   -0.28254038095474243     
   8.0399999999999999E-002   -0.51568847894668579     
   8.0700000000000008E-002   -0.71378052234649658     
   8.1000000000000003E-002   -0.86323106288909912     
   8.1299999999999997E-002   -0.95225858688354492     
   8.1600000000000006E-002   -0.97189581394195557     
   8.1900000000000014E-002   -0.91654747724533081     
   8.2199999999999995E-002   -0.78540563583374023     
   8.2500000000000004E-002   -0.58267283439636230     
   8.2799999999999999E-002   -0.31766951084136963     
   8.3100000000000007E-002    -4.9862582236528397E-003
   8.3400000000000002E-002    0.33681413531303406     
   8.3700000000000011E-002    0.68623697757720947     
   8.4000000000000005E-002     1.0198889970779419     
   8.4300000000000000E-002     1.3147747516632080     
   8.4599999999999995E-002     1.5498211383819580     
   8.4900000000000003E-002     1.7074804306030273     
   8.5199999999999998E-002     1.7754046916961670     
   8.5500000000000007E-002     1.7473171949386597     
   8.5800000000000001E-002     1.6236166954040527     
   8.6100000000000010E-002     1.4114465713500977     
   8.6399999999999991E-002     1.1241085529327393     
   8.6699999999999999E-002    0.78031337261199951     
   8.7000000000000008E-002    0.40231838822364807     
   8.7300000000000003E-002     1.4614583924412727E-002
   8.7599999999999997E-002   -0.35792255401611328     
   8.7900000000000006E-002   -0.69224721193313599     
   8.8200000000000014E-002   -0.96824336051940918     
   8.8499999999999995E-002    -1.1705085039138794     
   8.8800000000000004E-002    -1.2893077135086060     
   8.9100000000000013E-002    -1.3205708265304565     
   8.9399999999999993E-002    -1.2667213678359985     
   8.9700000000000002E-002    -1.1358397006988525     
   9.0000000000000011E-002   -0.94048881530761719     
   9.0299999999999991E-002   -0.69757449626922607     
   9.0600000000000000E-002   -0.42632091045379639     
   9.0900000000000009E-002   -0.14701148867607117     
   9.1200000000000017E-002    0.11976897716522217     
   9.1499999999999998E-002    0.35503280162811279     
   9.1800000000000007E-002    0.54208689928054810     
   9.2100000000000001E-002    0.66685187816619873     
   9.2399999999999996E-002    0.71934068202972412     
   9.2700000000000005E-002    0.69343197345733643     
   9.3000000000000013E-002    0.58685064315795898     
   9.3300000000000008E-002    0.40199393033981323     
   9.3600000000000003E-002    0.14515635371208191     
   9.3899999999999997E-002   -0.17351873219013214     
   9.4200000000000006E-002   -0.53998368978500366     
   9.4500000000000001E-002   -0.93729496002197266     
   9.4800000000000009E-002    -1.3458995819091797     
   9.5100000000000004E-002    -1.7442394495010376     
   9.5399999999999999E-002    -2.1103351116180420     
   9.5699999999999993E-002    -2.4224934577941895     
   9.6000000000000002E-002    -2.6604061126708984     
   9.6300000000000011E-002    -2.8070187568664551     
   9.6600000000000005E-002    -2.8492925167083740     
   9.6900000000000000E-002    -2.7793083190917969     
   9.7200000000000009E-002    -2.5953431129455566     
   9.7499999999999989E-002    -2.3018238544464111     
   9.7799999999999998E-002    -1.9093281030654907     
   9.8100000000000007E-002    -1.4343192577362061     
   9.8400000000000015E-002   -0.89762091636657715     
   9.8699999999999996E-002   -0.32326698303222656     
   9.9000000000000005E-002    0.26299971342086792     
   9.9300000000000013E-002    0.83582270145416260     
   9.9599999999999994E-002     1.3713939189910889     
   9.9900000000000003E-002     1.8488053083419800     
  0.10020000000000001          2.2512631416320801     
  0.10049999999999999          2.5665977001190186     
  0.10080000000000000          2.7866849899291992     
  0.10110000000000001          2.9079804420471191     
  0.10140000000000000          2.9303894042968750     
  0.10170000000000000          2.8563816547393799     
  0.10200000000000001          2.6910393238067627     
  0.10230000000000002          2.4407227039337158     
  0.10260000000000000          2.1131842136383057     
  0.10290000000000001          1.7177753448486328     
  0.10320000000000000          1.2652268409729004     
  0.10350000000000001         0.76858454942703247     
  0.10380000000000000         0.24334596097469330     
  0.10410000000000001        -0.29222822189331055     
  0.10440000000000001        -0.81697720289230347     
  0.10470000000000000         -1.3075335025787354     
  0.10500000000000000         -1.7391904592514038     
  0.10530000000000000         -2.0872366428375244     
  0.10560000000000000         -2.3288168907165527     
  0.10590000000000001         -2.4448859691619873     
  0.10620000000000000         -2.4222283363342285     
  0.10650000000000001         -2.2549724578857422     
  0.10679999999999999         -1.9457383155822754     
  0.10710000000000000         -1.5064554214477539     
  0.10740000000000001        -0.95731860399246216     
  0.10770000000000000        -0.32628449797630310     
  0.10800000000000000         0.35276237130165100     
  0.10830000000000001          1.0431499481201172     
  0.10859999999999999          1.7076402902603149     
  0.10890000000000000          2.3113543987274170     
  0.10920000000000001          2.8248593807220459     
  0.10950000000000001          3.2258024215698242     
  0.10979999999999999          3.5007619857788086     
  0.11009999999999999          3.6459851264953613     
  0.11040000000000001          3.6667714118957520     
  0.11070000000000001          3.5770576000213623     
  0.11100000000000000          3.3973286151885986     
  0.11130000000000000          3.1519877910614014     
  0.11160000000000002          2.8674478530883789     
  0.11190000000000001          2.5690057277679443     
  0.11220000000000001          2.2782294750213623     
  0.11250000000000000          2.0117425918579102     
  0.11280000000000000          1.7789870500564575     
  0.11309999999999999          1.5816280841827393     
  0.11340000000000001          1.4148209095001221     
  0.11369999999999998          1.2662295103073120     
  0.11400000000000000          1.1193320751190186     
  0.11430000000000000         0.95534837245941162     
  0.11460000000000002         0.75399374961853027     
  0.11489999999999999         0.49854096770286560     
  0.11520000000000001         0.17624981701374054     
  0.11550000000000001        -0.21981847286224365     
  0.11580000000000000        -0.68755316734313965     
  0.11609999999999999         -1.2181628942489624     
  0.11640000000000002         -1.7948439121246338     
  0.11670000000000001         -2.3934094905853271     
  0.11700000000000001         -2.9867489337921143     
  0.11730000000000000         -3.5447854995727539     
  0.11760000000000000         -4.0373787879943848     
  0.11789999999999999         -4.4396243095397949     
  0.11820000000000001         -4.7305564880371094     
  0.11850000000000001         -4.8972172737121582     
  0.11880000000000000         -4.9368271827697754     
  0.11910000000000000         -4.8536915779113770     
  0.11940000000000002         -4.6618719100952148     
  0.11970000000000001         -4.3830375671386719     
  0.12000000000000001         -4.0420899391174316     
  0.12030000000000000         -3.6679570674896240     
  0.12060000000000000         -3.2887370586395264     
  0.12089999999999999         -2.9284367561340332     
  0.12119999999999999         -2.6069779396057129     
  0.12150000000000001         -2.3360033035278320     
  0.12180000000000001         -2.1187033653259277     
  0.12210000000000000         -1.9508942365646362     
  0.12239999999999999         -1.8194411993026733     
  0.12270000000000002         -1.7060647010803223     
  0.12300000000000001         -1.5888024568557739     
  0.12330000000000001         -1.4438203573226929     
  0.12360000000000000         -1.2499089241027832     
  0.12390000000000000        -0.98986327648162842     
  0.12419999999999999        -0.65302437543869019     
  0.12450000000000001        -0.23739662766456604     
  0.12480000000000001         0.25125658512115479     
  0.12509999999999999         0.79761451482772827     
  0.12540000000000001          1.3789052963256836     
  0.12570000000000003          1.9678939580917358     
  0.12600000000000000          2.5331504344940186     
  0.12630000000000002          3.0429677963256836     
  0.12659999999999999          3.4693841934204102     
  0.12690000000000001          3.7874989509582520     
  0.12719999999999998          3.9813435077667236     
  0.12750000000000000          4.0428504943847656     
  0.12780000000000002          3.9725692272186279     
  0.12809999999999999          3.7816085815429688     
  0.12840000000000001          3.4880704879760742     
  0.12869999999999998          3.1166529655456543     
  0.12900000000000000          2.6977500915527344     
  0.12930000000000003          2.2619829177856445     
  0.12959999999999999          1.8404368162155151     
  0.12990000000000002          1.4614379405975342     
  0.13019999999999998          1.1462775468826294     
  0.13050000000000000         0.91081607341766357     
  0.13080000000000003         0.76203268766403198     
  0.13109999999999999         0.69714570045471191     
  0.13140000000000002         0.70645189285278320     
  0.13169999999999998         0.77115648984909058     
  0.13200000000000001         0.86679685115814209     
  0.13229999999999997         0.96638447046279907     
  0.13260000000000000          1.0395169258117676     
  0.13290000000000002          1.0594806671142578     
  0.13319999999999999          1.0037188529968262     
  0.13350000000000001         0.85454744100570679     
  0.13380000000000003         0.60545605421066284     
  0.13410000000000000         0.25876644253730774     
  0.13440000000000002        -0.17468920350074768     
  0.13469999999999999        -0.67202758789062500     
  0.13500000000000001         -1.2044203281402588     
  0.13529999999999998         -1.7375749349594116     
  0.13560000000000000         -2.2324197292327881     
  0.13590000000000002         -2.6527342796325684     
  0.13619999999999999         -2.9644689559936523     
  0.13650000000000001         -3.1385698318481445     
  0.13680000000000003         -3.1564919948577881     
  0.13710000000000000         -3.0077934265136719     
  0.13740000000000002         -2.6920807361602783     
  0.13769999999999999         -2.2211380004882812     
  0.13800000000000001         -1.6144098043441772     
  0.13829999999999998        -0.90033686161041260     
  0.13860000000000000        -0.11536757647991180     
  0.13890000000000002         0.70023888349533081     
  0.13919999999999999          1.5011080503463745     
  0.13950000000000001          2.2393105030059814     
  0.13979999999999998          2.8669836521148682     
  0.14010000000000000          3.3357553482055664     
  0.14040000000000002          3.6006102561950684     
  0.14069999999999999          3.6228811740875244     
  0.14100000000000001          3.3724420070648193     
  0.14130000000000004          2.8328623771667480     
  0.14160000000000000          2.0061535835266113     
  0.14189999999999997         0.91658693552017212     
  0.14219999999999999        -0.38587385416030884     
  0.14250000000000002         -1.8226847648620605     
  0.14279999999999998         -3.2882256507873535     
  0.14310000000000000         -4.6543102264404297     
  0.14339999999999997         -5.7762012481689453     
  0.14369999999999999         -6.5051369667053223     
  0.14400000000000002         -6.7026348114013672     
  0.14429999999999998         -6.2546863555908203     
  0.14460000000000001         -5.0898232460021973     
  0.14490000000000003         -3.1934504508972168     
  0.14520000000000000        -0.61632156372070312     
  0.14550000000000002          2.5174264907836914     
  0.14579999999999999          6.0135893821716309     
  0.14610000000000001          9.6193609237670898     
  0.14640000000000003          13.036717414855957     
  0.14670000000000000          15.949617385864258     
  0.14699999999999996          18.051565170288086     
  0.14729999999999999          19.072832107543945     
  0.14760000000000001          18.812837600708008     
  0.14789999999999998          17.162479400634766     
  0.14820000000000000          14.119432449340820     