  -1.4999999999999999E-002     0.0000000000000000     
  -1.4700000000000000E-002     0.0000000000000000     
  -1.4400000000000000E-002     8.2151764964703414E-030
  -1.4100000000000000E-002     3.0809361144717327E-026
  -1.3800000000000000E-002    -1.1802328106530393E-024
  -1.3500000000000000E-002    -1.4609714917022542E-022
  -1.3200000000000000E-002     1.4131300028264330E-021
  -1.2899999999999998E-002     8.2762356801177026E-021
  -1.2600000000000000E-002    -7.6524681504232281E-020
  -1.2299999999999998E-002    -5.3255438097506312E-020
  -1.2000000000000000E-002     8.6244919291497612E-019
  -1.1699999999999999E-002     1.1236354894457771E-018
  -1.1399999999999999E-002    -6.8548222949793252E-018
  -1.1099999999999999E-002    -1.0195393470517910E-017
  -1.0799999999999999E-002     1.8455020281001048E-017
  -1.0499999999999999E-002     1.0202011994662543E-016
  -1.0199999999999999E-002     1.9072104429879326E-017
  -9.8999999999999991E-003    -5.8869457032467984E-016
  -9.5999999999999992E-003    -4.0005998868897672E-016
  -9.2999999999999992E-003     1.6070125497574493E-015
  -8.9999999999999993E-003     2.4366210402097340E-015
  -8.6999999999999994E-003     1.1310128750984077E-015
  -8.3999999999999995E-003    -1.2568164753088341E-014
  -8.0999999999999996E-003    -2.1439531098845657E-014
  -7.7999999999999988E-003     4.3406920331079558E-014
  -7.4999999999999997E-003     4.2914072765640364E-014
  -7.1999999999999998E-003     5.8348430349750170E-015
  -6.8999999999999981E-003    -4.2939457889153608E-014
  -6.5999999999999982E-003    -4.4874310664767631E-013
  -6.3000000000000000E-003     1.5252033676773072E-013
  -6.0000000000000001E-003     1.1197896460758477E-012
  -5.6999999999999985E-003    -3.3718520149684729E-013
  -5.3999999999999986E-003     5.1702681360209139E-013
  -5.1000000000000004E-003    -2.3028985807487613E-012
  -4.7999999999999987E-003    -5.6536794719711941E-012
  -4.5000000000000005E-003     9.7609135147207140E-012
  -4.1999999999999989E-003     5.0580524252839193E-012
  -3.8999999999999990E-003    -4.0950876398276983E-012
  -3.5999999999999990E-003     1.0499657544747668E-011
  -3.2999999999999991E-003    -4.8220382719099530E-011
  -2.9999999999999992E-003    -1.0711367461833885E-011
  -2.6999999999999993E-003     9.1486533345000226E-011
  -2.3999999999999994E-003    -2.8263768893313927E-011
  -2.0999999999999977E-003     6.8262214128600765E-011
  -1.7999999999999995E-003    -2.4580487125488479E-011
  -1.4999999999999979E-003    -3.8527806530393480E-010
  -1.1999999999999997E-003     2.5899647001808075E-010
  -8.9999999999999976E-004     1.6019934578425677E-010
  -5.9999999999999810E-004    -4.1722442351010926E-011
  -2.9999999999999992E-004     8.8051241089964957E-010
   0.0000000000000000         -1.2987170568541316E-009
   3.0000000000000165E-004    -9.1990266603550551E-010
   5.9999999999999984E-004     1.8614431778293112E-009
   9.0000000000000149E-004    -2.0287904501110090E-009
   1.2000000000000031E-003     2.1610959241090966E-009
   1.5000000000000013E-003     5.4315922776957491E-009
   1.8000000000000030E-003    -9.7703194587806323E-009
   2.1000000000000012E-003    -3.6726911119606032E-009
   2.3999999999999994E-003     1.5113264809541485E-008
   2.7000000000000010E-003    -7.5081858335916721E-009
   2.9999999999999992E-003    -1.6721056629669390E-008
   3.3000000000000008E-003     3.1636935432715764E-008
   3.6000000000000025E-003     1.5095509916936231E-008
   3.9000000000000007E-003    -6.5931261376112570E-008
   4.2000000000000023E-003     3.4784078633258051E-010
   4.5000000000000005E-003     8.2840173937544994E-008
   4.7999999999999987E-003    -2.8725725152261237E-008
   5.1000000000000004E-003    -5.1348861002735854E-008
   5.4000000000000020E-003     2.9183428423457388E-008
   5.7000000000000037E-003    -5.1291107622967186E-009
   5.9999999999999984E-003     3.4116001934374898E-008
   6.3000000000000000E-003     1.6083424223429770E-008
   6.6000000000000017E-003    -1.1120629829210743E-007
   6.9000000000000034E-003     2.2684900113931942E-008
   7.2000000000000015E-003     1.1334417574155287E-007
   7.5000000000000032E-003    -5.6581599561103871E-009
   7.8000000000000014E-003    -1.2423982326596469E-008
   8.0999999999999996E-003    -1.7795156739166041E-007
   8.4000000000000012E-003    -2.1090160164034267E-007
   8.7000000000000029E-003     5.3245106659205965E-007
   9.0000000000000011E-003     1.5417157918905673E-006
   9.2999999999999992E-003     2.6848991315520527E-006
   9.6000000000000009E-003     4.4475589366805017E-006
   9.8999999999999991E-003     6.5946319337661778E-006
   1.0200000000000001E-002     9.9660586505629007E-006
   1.0500000000000002E-002     1.6345633194199242E-005
   1.0800000000000004E-002     2.6334435440115642E-005
   1.1099999999999999E-002     3.9335081508345146E-005
   1.1400000000000000E-002     5.3629266840648018E-005
   1.1700000000000002E-002     7.1717996867323719E-005
   1.2000000000000004E-002     9.7712043063658341E-005
   1.2300000000000002E-002     1.1900128462611790E-004
   1.2600000000000000E-002     1.2436829913477080E-004
   1.2900000000000002E-002     1.2498687471707882E-004
   1.3200000000000000E-002     1.1210960818013559E-004
   1.3500000000000002E-002     5.0989760809320040E-005
   1.3800000000000003E-002    -7.9782161874699981E-005
   1.4100000000000001E-002    -3.0771333267890465E-004
   1.4400000000000000E-002    -7.1349059880295926E-004
   1.4700000000000001E-002    -1.4385643985314125E-003
   1.4999999999999999E-002    -2.6264675091605683E-003
   1.5300000000000001E-002    -4.4702869364694475E-003
   1.5600000000000003E-002    -7.3305143492959635E-003
   1.5899999999999997E-002    -1.1614246999503697E-002
   1.6199999999999999E-002    -1.7731165783370084E-002
   1.6500000000000001E-002    -2.6269962728760032E-002
   1.6800000000000002E-002    -3.7990827364336122E-002
   1.7100000000000004E-002    -5.3701640853092147E-002
   1.7400000000000006E-002    -7.4178057668064845E-002
   1.7700000000000000E-002   -0.10023605759408083     
   1.8000000000000002E-002   -0.13274352265779932     
   1.8300000000000004E-002   -0.17225602036978316     
   1.8600000000000005E-002   -0.21885667474965143     
   1.8900000000000000E-002   -0.27219346081330364     
   1.9200000000000002E-002   -0.33118778993274667     
   1.9500000000000003E-002   -0.39371399560822162     
   1.9799999999999998E-002   -0.45644371974264075     
   2.0100000000000000E-002   -0.51475131373075911     
   2.0400000000000001E-002   -0.56263181583186039     
   2.0700000000000003E-002   -0.59268492525234251     
   2.0999999999999998E-002   -0.59639591748886289     
   2.1299999999999999E-002   -0.56452009527989411     
   2.1600000000000001E-002   -0.48765700463316630     
   2.1900000000000003E-002   -0.35707949365315095     
   2.2200000000000004E-002   -0.16576603409950330     
   2.2500000000000006E-002     9.0519218379972788E-002
   2.2800000000000001E-002    0.41220998740245385     
   2.3100000000000002E-002    0.79484949470014854     
   2.3400000000000004E-002     1.2281106415540037     
   2.3699999999999999E-002     1.6956405640412200     
   2.4000000000000000E-002     2.1752067654254290     
   2.4300000000000002E-002     2.6391974330911836     
   2.4599999999999997E-002     3.0560501153187971     
   2.4900000000000005E-002     3.3921821235357328     
   2.5200000000000000E-002     3.6147011753680403     
   2.5499999999999995E-002     3.6941771749110472     
   2.5800000000000003E-002     3.6075238585679585     
   2.6099999999999998E-002     3.3408124205764338     
   2.6400000000000007E-002     2.8911906067354174     
   2.6700000000000002E-002     2.2683132494077398     
   2.6999999999999996E-002     1.4943135153441247     
   2.7300000000000005E-002    0.60292769914159194     
   2.7600000000000000E-002   -0.36295571431094475     
   2.7900000000000008E-002    -1.3541198627462094     
   2.8200000000000003E-002    -2.3194170192210635     
   2.8499999999999998E-002    -3.2099603899473976     
   2.8800000000000006E-002    -3.9836887664494043     
   2.9100000000000001E-002    -4.6083541823853409     
   2.9400000000000003E-002    -5.0641730590673149     
   2.9700000000000004E-002    -5.3453235822324814     
   3.0000000000000006E-002    -5.4595170520177305     
   3.0300000000000001E-002    -5.4264884733227632     
   3.0600000000000002E-002    -5.2746754983371318     
   3.0900000000000004E-002    -5.0374710537668079     
   3.1199999999999999E-002    -4.7490916139611272     
   3.1500000000000007E-002    -4.4403393293823967     
   3.1800000000000002E-002    -4.1346162419333297     
   3.2099999999999997E-002    -3.8457185779175944     
   3.2400000000000005E-002    -3.5766461626258916     
   3.2700000000000000E-002    -3.3192891673692912     
   3.3000000000000002E-002    -3.0564546668323311     
   3.3300000000000003E-002    -2.7646430586077742     
   3.3599999999999998E-002    -2.4170372698306792     
   3.3900000000000000E-002    -1.9876193936608928     
   3.4200000000000001E-002    -1.4560498249601110     
   3.4500000000000003E-002   -0.81037098528759799     
   3.4799999999999998E-002    -5.0490393971170278E-002
   3.5099999999999999E-002    0.81066117157994411     
   3.5400000000000001E-002     1.7460073524826356     
   3.5699999999999996E-002     2.7148284174102670     
   3.6000000000000004E-002     3.6644253569819369     
   3.6299999999999999E-002     4.5339056628694436     
   3.6600000000000008E-002     5.2577223030172320     
   3.6900000000000002E-002     5.7710534885440339     
   3.7199999999999997E-002     6.0142442991702296     
   3.7500000000000006E-002     5.9397839812499456     
   3.7800000000000000E-002     5.5184665345323936     
   3.8100000000000009E-002     4.7458780711239399     
   3.8400000000000004E-002     3.6459790176294575     
   3.8699999999999998E-002     2.2752900525599955     
   3.9000000000000007E-002    0.72453104295016146     
   3.9300000000000002E-002   -0.88271659179651252     
   3.9600000000000003E-002    -2.3954044106554875     
   3.9900000000000005E-002    -3.6434352045347964     
   4.0200000000000000E-002    -4.4499542155212026     
   4.0500000000000001E-002    -4.6460333690491211     
   4.0800000000000003E-002    -4.0886163802323381     
   4.1100000000000005E-002    -2.6786039175759129     
   4.1399999999999999E-002   -0.37707939589493833     
   4.1700000000000008E-002     2.7806318017723868     
   4.2000000000000003E-002     6.6778897978079499     
   4.2299999999999997E-002     11.115125474038962     
   4.2600000000000006E-002     15.817840903837634     
   4.2900000000000001E-002     20.452092539830858     
   4.3200000000000002E-002     24.647919422718587     
   4.3500000000000004E-002     28.028656745233775     
   4.3799999999999999E-002     30.243405149953581     
   4.4100000000000000E-002     30.999894912727882     
   4.4400000000000002E-002     30.094243023514537     
   4.4700000000000004E-002     27.431706534903810     
   4.4999999999999998E-002     23.041108824568141     
   4.5300000000000000E-002     17.079411796551085     
   4.5600000000000002E-002     9.8194862161109313     
   4.5899999999999996E-002     1.6302610341543868     
   4.6200000000000005E-002    -7.0500053455812335     
   4.6500000000000000E-002    -15.750536414630204     
   4.6799999999999994E-002    -24.001010442130053     
   4.7100000000000003E-002    -31.371276505614560     
   4.7399999999999998E-002    -37.503625701622923     
   4.7700000000000006E-002    -42.130901646105940     
   4.8000000000000001E-002    -45.092220710971560     
   4.8300000000000010E-002    -46.336122270920100     
   4.8600000000000004E-002    -45.915937924965590     
   4.8899999999999999E-002    -43.975655512192503     
   4.9200000000000008E-002    -40.724502938789612     
   4.9500000000000002E-002    -36.414974473118477     
   4.9800000000000011E-002    -31.317921236743985     
   5.0100000000000006E-002    -25.702832753190364     
   5.0400000000000000E-002    -19.817537331792494     
   5.0700000000000009E-002    -13.873897163455467     
   5.1000000000000004E-002    -8.0420651717724354     
   5.1299999999999998E-002    -2.4500636599333063     
   5.1600000000000007E-002     2.8087753372425794     
   5.1900000000000002E-002     7.6707926376499103     
   5.2200000000000010E-002     12.095522614756760     
   5.2500000000000005E-002     16.054087139700925     
   5.2800000000000000E-002     19.520224798829076     
   5.3099999999999994E-002     22.464966936401538     
   5.3400000000000003E-002     24.856994761642795     
   5.3699999999999998E-002     26.665888971198683     
   5.4000000000000006E-002     27.859376940779043     
   5.4300000000000001E-002     28.409329890090362     
   5.4599999999999996E-002     28.302608311380482     
   5.4900000000000004E-002     27.543628124650070     
   5.5199999999999999E-002     26.157982796648980     
   5.5499999999999994E-002     24.193890398127166     
   5.5800000000000002E-002     21.725484980230135     
   5.6099999999999997E-002     18.850193535892323     
   5.6400000000000006E-002     15.683002308098324     
   5.6700000000000000E-002     12.351493851750845     
   5.6999999999999995E-002     8.9874230433299829     
   5.7300000000000004E-002     5.7214247913752274     
   5.7599999999999998E-002     2.6744545033406268     
   5.7900000000000007E-002    -5.1588985935424603E-002
   5.8200000000000002E-002    -2.3779323845187932     
   5.8499999999999996E-002    -4.2532025481467883     
   5.8800000000000005E-002    -5.6548956682358948     
   5.9100000000000000E-002    -6.5918532688677089     
   5.9400000000000008E-002    -7.1013987829061591     
   5.9700000000000003E-002    -7.2452488616833932     
   6.0000000000000012E-002    -7.1021471917628958     
   6.0300000000000006E-002    -6.7614402495396462     
   6.0600000000000001E-002    -6.3178708031560973     
   6.0900000000000010E-002    -5.8599956413264209     
   6.1200000000000004E-002    -5.4662327417170502     
   6.1500000000000013E-002    -5.1968602881723172     
   6.1800000000000008E-002    -5.0905767745862249     
   6.2100000000000002E-002    -5.1625373089001414     
   6.2399999999999997E-002    -5.4054906833710845     
   6.2700000000000006E-002    -5.7903084595573944     
   6.3000000000000000E-002    -6.2712274702936668     
   6.3300000000000009E-002    -6.7897659135743140     
   6.3600000000000004E-002    -7.2798910886522776     
   6.3899999999999998E-002    -7.6779711895394485     
   6.4199999999999993E-002    -7.9251025804588267     
   6.4500000000000002E-002    -7.9720787473002019     
   6.4800000000000010E-002    -7.7838860056575072     
   6.5100000000000005E-002    -7.3429372953594907     
   6.5400000000000000E-002    -6.6507538525917624     
   6.5700000000000008E-002    -5.7269158914544018     
   6.5999999999999989E-002    -4.6052052594164579     
   6.6299999999999998E-002    -3.3345642038999443     
   6.6600000000000006E-002    -1.9749581863001424     
   6.6900000000000001E-002   -0.59310698915854942     
   6.7199999999999996E-002    0.74392714005323990     
   6.7500000000000004E-002     1.9744504294130465     
   6.7800000000000013E-002     3.0409720993740024     
   6.8099999999999994E-002     3.8974711832273385     
   6.8400000000000002E-002     4.5132197155941469     
   6.8700000000000011E-002     4.8752178303984977     
   6.8999999999999992E-002     4.9862845708220505     
   6.9300000000000000E-002     4.8639996432335550     
   6.9600000000000009E-002     4.5397203522655474     
   6.9900000000000004E-002     4.0583402993784006     
   7.0199999999999999E-002     3.4714252342485850     
   7.0500000000000007E-002     2.8326068564683062     
   7.0800000000000016E-002     2.1946816905768802     
   7.1099999999999997E-002     1.6073213584456054     
   7.1400000000000005E-002     1.1118312592523623     
   7.1700000000000000E-002    0.73793464052349567     
   7.1999999999999995E-002    0.50395163843973023     
   7.2300000000000003E-002    0.41688816150432650     
   7.2600000000000012E-002    0.47056992888050075     
   7.2900000000000006E-002    0.64714233673988275     
   7.3200000000000001E-002    0.91868413224526790     
   7.3499999999999996E-002     1.2523701417206041     
   7.3800000000000004E-002     1.6109866412337723     
   7.4099999999999999E-002     1.9538356254283968     
   7.4400000000000008E-002     2.2406375078719805     
   7.4700000000000003E-002     2.4381776933695178     
   7.5000000000000011E-002     2.5216040008923244     
   7.5299999999999992E-002     2.4729160868429858     
   7.5600000000000001E-002     2.2826957792144782     
   7.5900000000000009E-002     1.9547788172600642     
   7.6200000000000004E-002     1.5068565347842480     
   7.6499999999999999E-002    0.96648717226681669     
   7.6800000000000007E-002    0.36513714706512701     
   7.7099999999999988E-002   -0.25951670618681444     
   7.7399999999999997E-002   -0.86404102858852028     
   7.7700000000000005E-002    -1.4067257570843097     
   7.8000000000000014E-002    -1.8531530396070295     
   7.8299999999999995E-002    -2.1787185414965720     
   7.8600000000000003E-002    -2.3671527625412878     
   7.8900000000000012E-002    -2.4115880645989094     
   7.9199999999999993E-002    -2.3192725342194933     
   7.9500000000000001E-002    -2.1112843055967403     
   7.9800000000000010E-002    -1.8160737971817369     
   8.0100000000000018E-002    -1.4672579440618776     
   8.0399999999999999E-002    -1.0999119276996758     
   8.0700000000000008E-002   -0.75155814384198294     
   8.1000000000000003E-002   -0.45445695594688118     
   8.1299999999999997E-002   -0.23150491049634780     
   8.1600000000000006E-002    -9.5480257874483554E-002
   8.1900000000000014E-002    -4.9787346780640229E-002
   8.2199999999999995E-002    -8.7345253964361547E-002
   8.2500000000000004E-002   -0.19117166637173155     
   8.2799999999999999E-002   -0.33748928212989426     
   8.3100000000000007E-002   -0.49836216573921455     
   8.3400000000000002E-002   -0.64662890007747720     
   8.3700000000000011E-002   -0.75696482373458451     
   8.4000000000000005E-002   -0.81028036843467888     
   8.4300000000000000E-002   -0.79458578119420409     
   8.4599999999999995E-002   -0.70698655999616733     
   8.4900000000000003E-002   -0.55218698651392373     
   8.5199999999999998E-002   -0.34278862035897895     
   8.5500000000000007E-002    -9.7304039092940720E-002
   8.5800000000000001E-002    0.16284813738560344     
   8.6100000000000010E-002    0.41721551379048893     
   8.6399999999999991E-002    0.64567562356732555     
   8.6699999999999999E-002    0.83207952371580518     
   8.7000000000000008E-002    0.96422442764287020     
   8.7300000000000003E-002     1.0368359052519445     
   8.7599999999999997E-002     1.0496686754034634     
   8.7900000000000006E-002     1.0061204109755248     
   8.8200000000000014E-002    0.91172022322181867     
   8.8499999999999995E-002    0.77550352607316775     
   8.8800000000000004E-002    0.60731507426897036     
   8.9100000000000013E-002    0.41743193446409599     
   8.9399999999999993E-002    0.21484812230717765     
   8.9700000000000002E-002     8.2932756155535969E-003
   9.0000000000000011E-002   -0.19350317810913076     
   9.0299999999999991E-002   -0.38218935899313689     
   9.0600000000000000E-002   -0.54870892262562032     
   9.0900000000000009E-002   -0.68503175232909208     
   9.1200000000000017E-002   -0.78369392079361933     
   9.1499999999999998E-002   -0.83846104721689163     
   9.1800000000000007E-002   -0.84327677628578090     
   9.2100000000000001E-002   -0.79383513328938271     
   9.2399999999999996E-002   -0.69085031697826693     
   9.2700000000000005E-002   -0.53829131556807752     
   9.3000000000000013E-002   -0.34265709517888254     
   9.3300000000000008E-002   -0.11170672738863274     
   9.3600000000000003E-002    0.14179295095270739     
   9.3899999999999997E-002    0.40207639504578463     
   9.4200000000000006E-002    0.65329278853587880     
   9.4500000000000001E-002    0.88163409075399102     
   9.4800000000000009E-002     1.0743845784848389     
   9.5100000000000004E-002     1.2181030395184962     
   9.5399999999999999E-002     1.3021977404722094     
   9.5699999999999993E-002     1.3219511574743219     
   9.6000000000000002E-002     1.2777367057436928     
   9.6300000000000011E-002     1.1705940408074023     
   9.6600000000000005E-002     1.0045355150129627     
   9.6900000000000000E-002    0.78852193476296861     
   9.7200000000000009E-002    0.53693527611642367     
   9.7499999999999989E-002    0.26443637103080242     
   9.7799999999999998E-002    -1.5667849478167462E-002
   9.8100000000000007E-002   -0.28812799113318732     
   9.8400000000000015E-002   -0.53660860481619110     
   9.8699999999999996E-002   -0.74689117981032993     
   9.9000000000000005E-002   -0.90997355237163546     
   9.9300000000000013E-002    -1.0200704854904430     
   9.9599999999999994E-002    -1.0733800609870663     
   9.9900000000000003E-002    -1.0697366519524998     
  0.10020000000000001         -1.0140130312005855     
  0.10049999999999999        -0.91457594087533334     
  0.10080000000000000        -0.78140893389663635     
  0.10110000000000001        -0.62609245232079891     
  0.10140000000000000        -0.46023154449969272     
  0.10170000000000000        -0.29604197060368787     
  0.10200000000000001        -0.14389635356076269     
  0.10230000000000002         -1.3068325249416368E-002
  0.10260000000000000          8.9423799665356629E-002
  0.10290000000000001         0.15957722194863777     
  0.10320000000000000         0.19678187558863147     
  0.10350000000000001         0.20242768389302679     
  0.10380000000000000         0.17870356232727858     
  0.10410000000000001         0.13114278240989963     
  0.10440000000000001          6.7751571164056168E-002
  0.10470000000000000         -1.9856508228189435E-003
  0.10500000000000000         -7.0734584045817339E-002
  0.10530000000000000        -0.13194693464926677     
  0.10560000000000000        -0.17760506136683119     
  0.10590000000000001        -0.20044793690673901     
  0.10620000000000000        -0.19748200983559272     
  0.10650000000000001        -0.16967266311424378     
  0.10679999999999999        -0.11805754275099289     
  0.10710000000000000         -4.4164149950178810E-002
  0.10740000000000001          4.6991223387787801E-002
  0.10770000000000000         0.14726884127015749     
  0.10800000000000000         0.24942522137859591     
  0.10830000000000001         0.34650727760621258     
  0.10859999999999999         0.43319002310417432     
  0.10890000000000000         0.50242125688443195     
  0.10920000000000001         0.54877563663821327     
  0.10950000000000001         0.56975160549704817     
  0.10979999999999999         0.56472875239134890     
  0.11009999999999999         0.53370019580332784     
  0.11040000000000001         0.47758964369725654     
  0.11070000000000001         0.40021331118055059     
  0.11100000000000000         0.30688726008624467     
  0.11130000000000000         0.20301365254330417     
  0.11160000000000002          9.3902870810500971E-002
  0.11190000000000001         -1.3372601357459990E-002
  0.11220000000000001        -0.11257858282326261     
  0.11250000000000000        -0.19813091438995656     
  0.11280000000000000        -0.26567562806356460     
  0.11309999999999999        -0.31263806978719444     
  0.11340000000000001        -0.33744404959308305     
  0.11369999999999998        -0.34041669900030413     
  0.11400000000000000        -0.32340236273077494     
  0.11430000000000000        -0.28917499465233454     
  0.11460000000000002        -0.24230441638792621     
  0.11489999999999999        -0.18844289660101032     
  0.11520000000000001        -0.13150147689978331     
  0.11550000000000001         -7.5567842952338538E-002
  0.11580000000000000         -2.4567146008184437E-002
  0.11609999999999999          1.6668274432711905E-002
  0.11640000000000002          4.5760977583626294E-002
  0.11670000000000001          6.2642492188649257E-002
  0.11700000000000001          6.7913128205448453E-002
  0.11730000000000000          5.9993034836494319E-002
  0.11760000000000000          3.9020246308008488E-002
  0.11789999999999999          8.1180929529242052E-003
  0.11820000000000001         -2.7988196787048447E-002
  0.11850000000000001         -6.7180491063723258E-002
  0.11880000000000000        -0.10776196053055331     
  0.11910000000000000        -0.14604130146067007     
  0.11940000000000002        -0.17628831581360860     
  0.11970000000000001        -0.19525916579061509     
  0.12000000000000001        -0.20225587238977338     
  0.12030000000000000        -0.19708996168810378     
  0.12060000000000000        -0.17857314632069354     
  0.12089999999999999        -0.14662530413635144     
  0.12119999999999999        -0.10440079984717032     
  0.12150000000000001         -5.5678583620309752E-002
  0.12180000000000001         -3.7670771532707370E-003
  0.12210000000000000          4.8550705706430053E-002
  0.12239999999999999          9.8066209361496348E-002
  0.12270000000000002         0.14110477517234932     
  0.12300000000000001         0.17545703535177459     
  0.12330000000000001         0.20017054429465198     
  0.12360000000000000         0.21453497229264862     
  0.12390000000000000         0.21816216675547606     
  0.12419999999999999         0.21186177926165728     
  0.12450000000000001         0.19591603220092380     
  0.12480000000000001         0.17195264923480258     
  0.12509999999999999         0.14142226951328785     
  0.12540000000000001         0.10662312025185638     
  0.12570000000000003          6.9216653350334223E-002
  0.12600000000000000          3.0837650448003906E-002
  0.12630000000000002         -5.6369759797753050E-003
  0.12659999999999999         -3.7014195702919195E-002
  0.12690000000000001         -6.1734309096654671E-002
  0.12719999999999998         -7.9226802308513644E-002
  0.12750000000000000         -8.8431830549235535E-002
  0.12780000000000002         -8.7960024164041029E-002
  0.12809999999999999         -7.8210075628990572E-002
  0.12840000000000001         -6.2149016995991735E-002
  0.12869999999999998         -4.2347138918908289E-002
  0.12900000000000000         -1.9609892282024699E-002
  0.12930000000000003          4.7221605954022583E-003
  0.12959999999999999          2.6679850526896698E-002
  0.12990000000000002          4.3494628727279494E-002
  0.13019999999999998          5.4938102882484463E-002
  0.13050000000000000          6.1597909941709661E-002
  0.13080000000000003          6.3215425143231752E-002
  0.13109999999999999          5.8105706062042961E-002
  0.13140000000000002          4.6929057635530569E-002
  0.13169999999999998          3.2178497279053975E-002
  0.13200000000000001          1.5139625710184568E-002
  0.13229999999999997         -4.4100681195802238E-003
  0.13260000000000000         -2.5938052978446730E-002
  0.13290000000000002         -4.7652660695123750E-002
  0.13319999999999999         -6.7433324012620366E-002
  0.13350000000000001         -8.4360418092305434E-002
  0.13380000000000003         -9.7901262436239200E-002
  0.13410000000000000        -0.10688152593915046     
  0.13440000000000002        -0.10971906727810188     
  0.13469999999999999        -0.10624417676517361     
  0.13500000000000001         -9.7170258905943663E-002
  0.13529999999999998         -8.2577945582216206E-002
  0.13560000000000000         -6.3615092109446270E-002
  0.13590000000000002         -4.2308917739307006E-002
  0.13619999999999999         -2.0206289763441188E-002
  0.13650000000000001          1.2524336405542735E-003
  0.13680000000000003          2.0429806718813143E-002
  0.13710000000000000          3.5750420297478769E-002
  0.13740000000000002          4.6768994188951307E-002
  0.13769999999999999          5.3049612002284530E-002
  0.13800000000000001          5.5470613265316215E-002
  0.13829999999999998          5.3909895623553084E-002
  0.13860000000000000          4.8646310075710575E-002
  0.13890000000000002          4.0881240322966472E-002
  0.13919999999999999          3.1804882614729246E-002
  0.13950000000000001          2.1693857164386099E-002
  0.13979999999999998          1.0810317740778230E-002
  0.14010000000000000          3.2404858385665092E-004
  0.14040000000000002         -9.0404131444293372E-003
  0.14069999999999999         -1.6545265032512912E-002
  0.14100000000000001         -2.1924571298567397E-002
  0.14130000000000004         -2.4588700703713995E-002
  0.14160000000000000         -2.3792137348869424E-002
  0.14189999999999997         -1.9366401679111578E-002
  0.14219999999999999         -1.1925587459168052E-002
  0.14250000000000002         -2.2003989556124703E-003
  0.14279999999999998          9.1307314604441303E-003
  0.14310000000000000          2.1011439746285221E-002
  0.14339999999999997          3.2244269297141304E-002
  0.14369999999999999          4.1639589062195892E-002
  0.14400000000000002          4.7657779242714193E-002
  0.14429999999999998          4.9932561641875317E-002
  0.14460000000000001          4.8769021889440767E-002
  0.14490000000000003          4.4986550333646180E-002
  0.14520000000000000          3.8349792108907765E-002
  0.14550000000000002          2.9011109928533785E-002
  0.14579999999999999          1.8248824929776697E-002
  0.14610000000000001          8.1191257069402889E-003
  0.14640000000000003         -5.4645942938447156E-004
  0.14670000000000000         -8.8382128188363440E-003
  0.14699999999999996         -1.6913665234613753E-002
  0.14729999999999999         -2.3168705272407608E-002
  0.14760000000000001         -2.6418580028447658E-002
  0.14789999999999998         -2.8028981191022928E-002
  0.14820000000000000         -2.9212018419485841E-002