  -1.4999999999999999E-002     0.0000000000000000     
  -1.4700000000000000E-002     0.0000000000000000     
  -1.4400000000000000E-002     0.0000000000000000     
  -1.4100000000000000E-002     0.0000000000000000     
  -1.3800000000000000E-002     0.0000000000000000     
  -1.3500000000000000E-002     0.0000000000000000     
  -1.3200000000000000E-002     0.0000000000000000     
  -1.2899999999999998E-002     0.0000000000000000     
  -1.2600000000000000E-002     0.0000000000000000     
  -1.2299999999999998E-002     0.0000000000000000     
  -1.2000000000000000E-002     0.0000000000000000     
  -1.1699999999999999E-002     0.0000000000000000     
  -1.1399999999999999E-002     0.0000000000000000     
  -1.1099999999999999E-002     0.0000000000000000     
  -1.0799999999999999E-002     0.0000000000000000     
  -1.0499999999999999E-002     0.0000000000000000     
  -1.0199999999999999E-002     0.0000000000000000     
  -9.8999999999999991E-003     0.0000000000000000     
  -9.5999999999999992E-003     0.0000000000000000     
  -9.2999999999999992E-003     0.0000000000000000     
  -8.9999999999999993E-003     0.0000000000000000     
  -8.6999999999999994E-003     0.0000000000000000     
  -8.3999999999999995E-003     0.0000000000000000     
  -8.0999999999999996E-003     0.0000000000000000     
  -7.7999999999999988E-003     0.0000000000000000     
  -7.4999999999999997E-003     0.0000000000000000     
  -7.1999999999999998E-003     0.0000000000000000     
  -6.8999999999999981E-003     0.0000000000000000     
  -6.5999999999999982E-003     0.0000000000000000     
  -6.3000000000000000E-003     0.0000000000000000     
  -6.0000000000000001E-003     0.0000000000000000     
  -5.6999999999999985E-003     0.0000000000000000     
  -5.3999999999999986E-003     0.0000000000000000     
  -5.1000000000000004E-003     0.0000000000000000     
  -4.7999999999999987E-003     0.0000000000000000     
  -4.5000000000000005E-003     0.0000000000000000     
  -4.1999999999999989E-003     0.0000000000000000     
  -3.8999999999999990E-003     0.0000000000000000     
  -3.5999999999999990E-003     0.0000000000000000     
  -3.2999999999999991E-003     0.0000000000000000     
  -2.9999999999999992E-003     0.0000000000000000     
  -2.6999999999999993E-003     0.0000000000000000     
  -2.3999999999999994E-003     0.0000000000000000     
  -2.0999999999999977E-003     0.0000000000000000     
  -1.7999999999999995E-003     0.0000000000000000     
  -1.4999999999999979E-003     0.0000000000000000     
  -1.1999999999999997E-003     0.0000000000000000     
  -8.9999999999999976E-004     0.0000000000000000     
  -5.9999999999999810E-004     0.0000000000000000     
  -2.9999999999999992E-004     0.0000000000000000     
   0.0000000000000000          0.0000000000000000     
   3.0000000000000165E-004     0.0000000000000000     
   5.9999999999999984E-004     0.0000000000000000     
   9.0000000000000149E-004     0.0000000000000000     
   1.2000000000000031E-003     0.0000000000000000     
   1.5000000000000013E-003     0.0000000000000000     
   1.8000000000000030E-003     0.0000000000000000     
   2.1000000000000012E-003     0.0000000000000000     
   2.3999999999999994E-003     0.0000000000000000     
   2.7000000000000010E-003     0.0000000000000000     
   2.9999999999999992E-003     0.0000000000000000     
   3.3000000000000008E-003     0.0000000000000000     
   3.6000000000000025E-003     0.0000000000000000     
   3.9000000000000007E-003     0.0000000000000000     
   4.2000000000000023E-003     0.0000000000000000     
   4.5000000000000005E-003     0.0000000000000000     
   4.7999999999999987E-003     0.0000000000000000     
   5.1000000000000004E-003     0.0000000000000000     
   5.4000000000000020E-003     0.0000000000000000     
   5.7000000000000037E-003     0.0000000000000000     
   5.9999999999999984E-003     0.0000000000000000     
   6.3000000000000000E-003     0.0000000000000000     
   6.6000000000000017E-003     0.0000000000000000     
   6.9000000000000034E-003     0.0000000000000000     
   7.2000000000000015E-003     0.0000000000000000     
   7.5000000000000032E-003     0.0000000000000000     
   7.8000000000000014E-003     0.0000000000000000     
   8.0999999999999996E-003     0.0000000000000000     
   8.4000000000000012E-003     0.0000000000000000     
   8.7000000000000029E-003     0.0000000000000000     
   9.0000000000000011E-003     0.0000000000000000     
   9.2999999999999992E-003     0.0000000000000000     
   9.6000000000000009E-003     0.0000000000000000     
   9.8999999999999991E-003     0.0000000000000000     
   1.0200000000000001E-002     0.0000000000000000     
   1.0500000000000002E-002     0.0000000000000000     
   1.0800000000000004E-002     0.0000000000000000     
   1.1099999999999999E-002     0.0000000000000000     
   1.1400000000000000E-002     0.0000000000000000     
   1.1700000000000002E-002     0.0000000000000000     
   1.2000000000000004E-002     0.0000000000000000     
   1.2300000000000002E-002     0.0000000000000000     
   1.2600000000000000E-002     0.0000000000000000     
   1.2900000000000002E-002     0.0000000000000000     
   1.3200000000000000E-002     0.0000000000000000     
   1.3500000000000002E-002     0.0000000000000000     
   1.3800000000000003E-002     0.0000000000000000     
   1.4100000000000001E-002     0.0000000000000000     
   1.4400000000000000E-002     0.0000000000000000     
   1.4700000000000001E-002     0.0000000000000000     
   1.4999999999999999E-002     0.0000000000000000     
   1.5300000000000001E-002     0.0000000000000000     
   1.5600000000000003E-002     0.0000000000000000     
   1.5899999999999997E-002     0.0000000000000000     
   1.6199999999999999E-002     0.0000000000000000     
   1.6500000000000001E-002     0.0000000000000000     
   1.6800000000000002E-002     0.0000000000000000     
   1.7100000000000004E-002     0.0000000000000000     
   1.7400000000000006E-002     0.0000000000000000     
   1.7700000000000000E-002     0.0000000000000000     
   1.8000000000000002E-002     0.0000000000000000     
   1.8300000000000004E-002     0.0000000000000000     
   1.8600000000000005E-002     0.0000000000000000     
   1.8900000000000000E-002     0.0000000000000000     
   1.9200000000000002E-002     0.0000000000000000     
   1.9500000000000003E-002     0.0000000000000000     
   1.9799999999999998E-002     0.0000000000000000     
   2.0100000000000000E-002     0.0000000000000000     
   2.0400000000000001E-002     0.0000000000000000     
   2.0700000000000003E-002     0.0000000000000000     
   2.0999999999999998E-002     0.0000000000000000     
   2.1299999999999999E-002     0.0000000000000000     
   2.1600000000000001E-002     0.0000000000000000     
   2.1900000000000003E-002     0.0000000000000000     
   2.2200000000000004E-002     0.0000000000000000     
   2.2500000000000006E-002     0.0000000000000000     
   2.2800000000000001E-002     0.0000000000000000     
   2.3100000000000002E-002     0.0000000000000000     
   2.3400000000000004E-002     0.0000000000000000     
   2.3699999999999999E-002     0.0000000000000000     
   2.4000000000000000E-002     0.0000000000000000     
   2.4300000000000002E-002     0.0000000000000000     
   2.4599999999999997E-002     0.0000000000000000     
   2.4900000000000005E-002     0.0000000000000000     
   2.5200000000000000E-002     0.0000000000000000     
   2.5499999999999995E-002     0.0000000000000000     
   2.5800000000000003E-002     0.0000000000000000     
   2.6099999999999998E-002     0.0000000000000000     
   2.6400000000000007E-002     0.0000000000000000     
   2.6700000000000002E-002     0.0000000000000000     
   2.6999999999999996E-002     0.0000000000000000     
   2.7300000000000005E-002     0.0000000000000000     
   2.7600000000000000E-002     0.0000000000000000     
   2.7900000000000008E-002     0.0000000000000000     
   2.8200000000000003E-002     0.0000000000000000     
   2.8499999999999998E-002     0.0000000000000000     
   2.8800000000000006E-002     0.0000000000000000     
   2.9100000000000001E-002     0.0000000000000000     
   2.9400000000000003E-002     0.0000000000000000     
   2.9700000000000004E-002     0.0000000000000000     
   3.0000000000000006E-002     0.0000000000000000     
   3.0300000000000001E-002     0.0000000000000000     
   3.0600000000000002E-002     4.0630541801791519E-036
   3.0900000000000004E-002    -1.0139022189038689E-034
   3.1199999999999999E-002     6.1814913274325443E-034
   3.1500000000000007E-002    -3.0736657307988243E-033
   3.1800000000000002E-002     1.0152073206904190E-032
   3.2099999999999997E-002    -3.5491577507470490E-032
   3.2400000000000005E-002     1.4940977535815885E-031
   3.2700000000000000E-002    -7.3395511574664584E-031
   3.3000000000000002E-002     3.7119158757158574E-030
   3.3300000000000003E-002    -1.7651035092851338E-029
   3.3599999999999998E-002     7.5705224625951222E-029
   3.3900000000000000E-002    -2.8700737661993295E-028
   3.4200000000000001E-002     9.4233460322233629E-028
   3.4500000000000003E-002    -2.5731236799450002E-027
   3.4799999999999998E-002     5.2033600420188262E-027
   3.5099999999999999E-002    -3.7643995581399586E-027
   3.5400000000000001E-002    -2.8679787010872262E-026
   3.5699999999999996E-002     1.8362540855744578E-025
   3.6000000000000004E-002    -6.7642672976735035E-025
   3.6299999999999999E-002     1.7510976601914976E-024
   3.6600000000000008E-002    -2.6963699613952055E-024
   3.6900000000000002E-002    -1.9414357943402601E-024
   3.7199999999999997E-002     3.1255666185040687E-023
   3.7500000000000006E-002    -1.2557471591252365E-022
   3.7800000000000000E-002     3.0379969995727843E-022
   3.8100000000000009E-002    -3.0853680338224336E-022
   3.8400000000000004E-002    -1.1592108296524563E-021
   3.8699999999999998E-002     7.6950722148861510E-021
   3.9000000000000007E-002    -2.4605776558922655E-020
   3.9300000000000002E-002     4.7426565210615499E-020
   3.9600000000000003E-002    -2.0931278719248716E-020
   3.9900000000000005E-002    -2.4086362064201905E-019
   4.0200000000000000E-002     1.0921503441963733E-018
   4.0500000000000001E-002    -2.7169963174804647E-018
   4.0800000000000003E-002     3.7826133959631277E-018
   4.1100000000000005E-002     1.1379337571254177E-018
   4.1399999999999999E-002    -2.2951424768845461E-017
   4.1700000000000008E-002     7.0757519288708619E-017
   4.2000000000000003E-002    -1.2805260131622281E-016
   4.2299999999999997E-002     1.2612225293409966E-016
   4.2600000000000006E-002     2.9622363439483487E-017
   4.2900000000000001E-002    -3.7322315123009724E-016
   4.3200000000000002E-002     1.1405974143554589E-015
   4.3500000000000004E-002    -4.5308800317839758E-015
   4.3799999999999999E-002     1.7916107169341743E-014
   4.4100000000000000E-002    -4.8309663561174609E-014
   4.4400000000000002E-002     5.3391119243838617E-014
   4.4700000000000004E-002     1.8753367728076981E-013
   4.4999999999999998E-002    -1.1313736406060038E-012
   4.5300000000000000E-002     2.6695772328833023E-012
   4.5600000000000002E-002    -1.0897014627447854E-012
   4.5899999999999996E-002    -1.4481764745721826E-011
   4.6200000000000005E-002     5.0652478739143802E-011
   4.6500000000000000E-002    -5.2030307146067045E-011
   4.6799999999999994E-002    -1.7333351420845133E-010
   4.7100000000000003E-002     7.4342570988150669E-010
   4.7399999999999998E-002    -7.0196620738371962E-010
   4.7700000000000006E-002    -2.7426840798483454E-009
   4.8000000000000001E-002     9.1784180256127001E-009
   4.8300000000000010E-002    -9.8346042420871527E-010
   4.8600000000000004E-002    -4.7012413517677487E-008
   4.8899999999999999E-002     6.1990007793610857E-008
   4.9200000000000008E-002     1.6029717642140895E-007
   4.9500000000000002E-002    -4.4206009874869778E-007
   4.9800000000000011E-002    -5.2418960194700048E-007
   5.0100000000000006E-002     3.2429611565021332E-006
   5.0400000000000000E-002     1.0701998689910397E-005
   5.0700000000000009E-002     1.8219096091343090E-005
   5.1000000000000004E-002     2.6160307243117131E-005
   5.1299999999999998E-002     3.7212255847407505E-005
   5.1600000000000007E-002     5.1992567023262382E-005
   5.1900000000000002E-002     7.4839044827967882E-005
   5.2200000000000010E-002     1.1227747017983347E-004
   5.2500000000000005E-002     1.6797713760752231E-004
   5.2800000000000000E-002     2.5151501176878810E-004
   5.3099999999999994E-002     3.7594829336740077E-004
   5.3400000000000003E-002     5.4641487076878548E-004
   5.3699999999999998E-002     7.7102083014324307E-004
   5.4000000000000006E-002     1.0685223387554288E-003
   5.4300000000000001E-002     1.4579579001292586E-003
   5.4599999999999996E-002     1.9542102236300707E-003
   5.4900000000000004E-002     2.5669897440820932E-003
   5.5199999999999999E-002     3.3035119995474815E-003
   5.5499999999999994E-002     4.1645364835858345E-003
   5.5800000000000002E-002     5.1231775432825089E-003
   5.6099999999999997E-002     6.1277048662304878E-003
   5.6400000000000006E-002     7.1063279174268246E-003
   5.6700000000000000E-002     7.9383999109268188E-003
   5.6999999999999995E-002     8.4481369704008102E-003
   5.7300000000000004E-002     8.4086880087852478E-003
   5.7599999999999998E-002     7.5329854153096676E-003
   5.7900000000000007E-002     5.4967561736702919E-003
   5.8200000000000002E-002     1.9458221504464746E-003
   5.8499999999999996E-002    -3.5219111014157534E-003
   5.8800000000000005E-002    -1.1311341077089310E-002
   5.9100000000000000E-002    -2.1761110052466393E-002
   5.9400000000000008E-002    -3.5108253359794617E-002
   5.9700000000000003E-002    -5.1445625722408295E-002
   6.0000000000000012E-002    -7.0699147880077362E-002
   6.0300000000000006E-002    -9.2565558850765228E-002
   6.0600000000000001E-002   -0.11644303798675537     
   6.0900000000000010E-002   -0.14145787060260773     
   6.1200000000000004E-002   -0.16649952530860901     
   6.1500000000000013E-002   -0.19024166464805603     
   6.1800000000000008E-002   -0.21119983494281769     
   6.2100000000000002E-002   -0.22783909738063812     
   6.2399999999999997E-002   -0.23869290947914124     
   6.2700000000000006E-002   -0.24249885976314545     
   6.3000000000000000E-002   -0.23828764259815216     
   6.3300000000000009E-002   -0.22551010549068451     
   6.3600000000000004E-002   -0.20406816899776459     
   6.3899999999999998E-002   -0.17439179122447968     
   6.4199999999999993E-002   -0.13734832406044006     
   6.4500000000000002E-002    -9.4239689409732819E-002
   6.4800000000000010E-002    -4.6640627086162567E-002
   6.5100000000000005E-002     3.6562033928930759E-003
   6.5400000000000000E-002     5.4861515760421753E-002
   6.5700000000000008E-002    0.10520520061254501     
   6.5999999999999989E-002    0.15302643179893494     
   6.6299999999999998E-002    0.19687154889106750     
   6.6600000000000006E-002    0.23545680940151215     
   6.6900000000000001E-002    0.26766416430473328     
   6.7199999999999996E-002    0.29241260886192322     
   6.7500000000000004E-002    0.30875873565673828     
   6.7800000000000013E-002    0.31572923064231873     
   6.8099999999999994E-002    0.31246423721313477     
   6.8400000000000002E-002    0.29821634292602539     
   6.8700000000000011E-002    0.27253618836402893     
   6.8999999999999992E-002    0.23547731339931488     
   6.9300000000000000E-002    0.18772266805171967     
   6.9600000000000009E-002    0.13083498179912567     
   6.9900000000000004E-002     6.7299932241439819E-002
   7.0199999999999999E-002     6.4317602664232254E-004
   7.0500000000000007E-002    -6.4650528132915497E-002
   7.0800000000000016E-002   -0.12349333614110947     
   7.1099999999999997E-002   -0.17038592696189880     
   7.1400000000000005E-002   -0.19996017217636108     
   7.1700000000000000E-002   -0.20748741924762726     
   7.1999999999999995E-002   -0.18939678370952606     
   7.2300000000000003E-002   -0.14371280372142792     
   7.2600000000000012E-002    -7.0457994937896729E-002
   7.2900000000000006E-002     2.8233107179403305E-002
   7.3200000000000001E-002    0.14808495342731476     
   7.3499999999999996E-002    0.28292357921600342     
   7.3800000000000004E-002    0.42517346143722534     
   7.4099999999999999E-002    0.56629943847656250     
   7.4400000000000008E-002    0.69762337207794189     
   7.4700000000000003E-002    0.81097650527954102     
   7.5000000000000011E-002    0.89925807714462280     
   7.5299999999999992E-002    0.95718705654144287     
   7.5600000000000001E-002    0.98144036531448364     
   7.5900000000000009E-002    0.97086596488952637     
   7.6200000000000004E-002    0.92645299434661865     
   7.6499999999999999E-002    0.85102087259292603     
   7.6800000000000007E-002    0.74889105558395386     
   7.7099999999999988E-002    0.62513840198516846     
   7.7399999999999997E-002    0.48540490865707397     
   7.7700000000000005E-002    0.33506157994270325     
   7.8000000000000014E-002    0.17901784181594849     
   7.8299999999999995E-002     2.1376013755798340E-002
   7.8600000000000003E-002   -0.13473889231681824     
   7.8900000000000012E-002   -0.28695771098136902     
   7.9199999999999993E-002   -0.43384096026420593     
   7.9500000000000001E-002   -0.57419967651367188     
   7.9800000000000010E-002   -0.70732682943344116     
   8.0100000000000018E-002   -0.83212256431579590     
   8.0399999999999999E-002   -0.94744992256164551     
   8.0700000000000008E-002    -1.0515434741973877     
   8.1000000000000003E-002    -1.1423231363296509     
   8.1299999999999997E-002    -1.2172442674636841     
   8.1600000000000006E-002    -1.2735729217529297     
   8.1900000000000014E-002    -1.3085929155349731     
   8.2199999999999995E-002    -1.3200045824050903     
   8.2500000000000004E-002    -1.3059768676757812     
   8.2799999999999999E-002    -1.2655751705169678     
   8.3100000000000007E-002    -1.1989500522613525     
   8.3400000000000002E-002    -1.1073547601699829     
   8.3700000000000011E-002   -0.99309062957763672     
   8.4000000000000005E-002   -0.85957050323486328     
   8.4300000000000000E-002   -0.71099072694778442     
   8.4599999999999995E-002   -0.55202043056488037     
   8.4900000000000003E-002   -0.38766154646873474     
   8.5199999999999998E-002   -0.22260862588882446     
   8.5500000000000007E-002    -6.1319522559642792E-002
   8.5800000000000001E-002     9.2615880072116852E-002
   8.6100000000000010E-002    0.23627436161041260     
   8.6399999999999991E-002    0.36787146329879761     
   8.6699999999999999E-002    0.48621687293052673     
   8.7000000000000008E-002    0.59094882011413574     
   8.7300000000000003E-002    0.68209445476531982     
   8.7599999999999997E-002    0.75962895154953003     
   8.7900000000000006E-002    0.82362461090087891     
   8.8200000000000014E-002    0.87336319684982300     
   8.8499999999999995E-002    0.90786260366439819     
   8.8800000000000004E-002    0.92527794837951660     
   8.9100000000000013E-002    0.92355698347091675     
   8.9399999999999993E-002    0.90021020174026489     
   8.9700000000000002E-002    0.85325580835342407     
   9.0000000000000011E-002    0.78119444847106934     
   9.0299999999999991E-002    0.68368464708328247     
   9.0600000000000000E-002    0.56201624870300293     
   9.0900000000000009E-002    0.41904219985008240     
   9.1200000000000017E-002    0.25959175825119019     
   9.1499999999999998E-002     8.9927494525909424E-002
   9.1800000000000007E-002    -8.2362100481987000E-002
   9.2100000000000001E-002   -0.24916917085647583     
   9.2399999999999996E-002   -0.40229663252830505     
   9.2700000000000005E-002   -0.53442156314849854     
   9.3000000000000013E-002   -0.63972836732864380     
   9.3300000000000008E-002   -0.71424764394760132     
   9.3600000000000003E-002   -0.75657445192337036     
   9.3899999999999997E-002   -0.76738697290420532     
   9.4200000000000006E-002   -0.74986940622329712     
   9.4500000000000001E-002   -0.70878130197525024     
   9.4800000000000009E-002   -0.65003550052642822     
   9.5100000000000004E-002   -0.57993662357330322     
   9.5399999999999999E-002   -0.50434350967407227     
   9.5699999999999993E-002   -0.42815119028091431     
   9.6000000000000002E-002   -0.35446712374687195     
   9.6300000000000011E-002   -0.28484779596328735     
   9.6600000000000005E-002   -0.21878480911254883     
   9.6900000000000000E-002   -0.15450334548950195     
   9.7200000000000009E-002    -8.8998958468437195E-002
   9.7499999999999989E-002    -1.9068678840994835E-002
   9.7799999999999998E-002     5.8098319917917252E-002
   9.8100000000000007E-002    0.14416447281837463     
   9.8400000000000015E-002    0.23922407627105713     
   9.8699999999999996E-002    0.34145984053611755     
   9.9000000000000005E-002    0.44704338908195496     
   9.9300000000000013E-002    0.55048179626464844     
   9.9599999999999994E-002    0.64504843950271606     
   9.9900000000000003E-002    0.72375881671905518     
  0.10020000000000001         0.78011149168014526     
  0.10049999999999999         0.80878424644470215     
  0.10080000000000000         0.80652940273284912     
  0.10110000000000001         0.77289944887161255     
  0.10140000000000000         0.71005350351333618     
  0.10170000000000000         0.62337636947631836     
  0.10200000000000001         0.52031797170639038     
  0.10230000000000002         0.41047716140747070     
  0.10260000000000000         0.30428287386894226     
  0.10290000000000001         0.21220754086971283     
  0.10320000000000000         0.14373122155666351     
  0.10350000000000001         0.10646606236696243     
  0.10380000000000000         0.10551138967275620     
  0.10410000000000001         0.14262999594211578     
  0.10440000000000001         0.21656814217567444     
  0.10470000000000000         0.32260802388191223     
  0.10500000000000000         0.45349520444869995     
  0.10530000000000000         0.59953445196151733     
  0.10560000000000000         0.74954360723495483     
  0.10590000000000001         0.89172053337097168     
  0.10620000000000000          1.0142959356307983     
  0.10650000000000001          1.1065726280212402     
  0.10679999999999999          1.1592681407928467     
  0.10710000000000000          1.1651332378387451     
  0.10740000000000001          1.1194628477096558     
  0.10770000000000000          1.0198489427566528     
  0.10800000000000000         0.86673009395599365     
  0.10830000000000001         0.66283667087554932     
  0.10859999999999999         0.41349014639854431     
  0.10890000000000000         0.12603275477886200     
  0.10920000000000001        -0.19000668823719025     
  0.10950000000000001        -0.52345365285873413     
  0.10979999999999999        -0.86160647869110107     
  0.11009999999999999         -1.1907370090484619     
  0.11040000000000001         -1.4964739084243774     
  0.11070000000000001         -1.7642586231231689     
  0.11100000000000000         -1.9804002046585083     
  0.11130000000000000         -2.1324408054351807     
  0.11160000000000002         -2.2105898857116699     
  0.11190000000000001         -2.2081422805786133     
  0.11220000000000001         -2.1224236488342285     
  0.11250000000000000         -1.9555572271347046     
  0.11280000000000000         -1.7144639492034912     
  0.11309999999999999         -1.4110679626464844     
  0.11340000000000001         -1.0615510940551758     
  0.11369999999999998        -0.68555861711502075     
  0.11400000000000000        -0.30491554737091064     
  0.11430000000000000          5.8170784264802933E-002
  0.11460000000000002         0.38251906633377075     
  0.11489999999999999         0.64983403682708740     
  0.11520000000000001         0.84608930349349976     
  0.11550000000000001         0.96273702383041382     
  0.11580000000000000         0.99731105566024780     
  0.11609999999999999         0.95336991548538208     
  0.11640000000000002         0.84023821353912354     
  0.11670000000000001         0.67176663875579834     
  0.11700000000000001         0.46525934338569641     
  0.11730000000000000         0.23959138989448547     
  0.11760000000000000          1.3580241240561008E-002
  0.11789999999999999        -0.19541648030281067     
  0.11820000000000001        -0.37311658263206482     
  0.11850000000000001        -0.50906419754028320     
  0.11880000000000000        -0.59719592332839966     
  0.11910000000000000        -0.63597798347473145     
  0.11940000000000002        -0.62772774696350098     
  0.11970000000000001        -0.57840019464492798     
  0.12000000000000001        -0.49601352214813232     
  0.12030000000000000        -0.39010474085807800     
  0.12060000000000000        -0.27027213573455811     
  0.12089999999999999        -0.14546521008014679     
  0.12119999999999999         -2.3061305284500122E-002
  0.12150000000000001          9.1566883027553558E-002
  0.12180000000000001         0.19510221481323242     
  0.12210000000000000         0.28649836778640747     
  0.12239999999999999         0.36620655655860901     
  0.12270000000000002         0.43635347485542297     
  0.12300000000000001         0.49928835034370422     
  0.12330000000000001         0.55782389640808105     
  0.12360000000000000         0.61391866207122803     
  0.12390000000000000         0.66872936487197876     
  0.12419999999999999         0.72199755907058716     
  0.12450000000000001         0.77192223072052002     
  0.12480000000000001         0.81547236442565918     
  0.12509999999999999         0.84840148687362671     
  0.12540000000000001         0.86578279733657837     
  0.12570000000000003         0.86238247156143188     
  0.12600000000000000         0.83350771665573120     
  0.12630000000000002         0.77540832757949829     
  0.12659999999999999         0.68609583377838135     
  0.12690000000000001         0.56540763378143311     
  0.12719999999999998         0.41585129499435425     
  0.12750000000000000         0.24188347160816193     
  0.12780000000000002          5.0830144435167313E-002
  0.12809999999999999        -0.14880272746086121     
  0.12840000000000001        -0.34650132060050964     
  0.12869999999999998        -0.53176069259643555     
  0.12900000000000000        -0.69411081075668335     
  0.12930000000000003        -0.82426905632019043     
  0.12959999999999999        -0.91512417793273926     
  0.12990000000000002        -0.96186184883117676     
  0.13019999999999998        -0.96330940723419189     
  0.13050000000000000        -0.92087644338607788     
  0.13080000000000003        -0.84000349044799805     
  0.13109999999999999        -0.72816103696823120     
  0.13140000000000002        -0.59585458040237427     
  0.13169999999999998        -0.45454490184783936     
  0.13200000000000001        -0.31656241416931152     
  0.13229999999999997        -0.19372068345546722     
  0.13260000000000000         -9.6560329198837280E-002
  0.13290000000000002         -3.3644601702690125E-002
  0.13319999999999999         -1.0396925732493401E-002
  0.13350000000000001         -2.9100948944687843E-002
  0.13380000000000003         -8.8248603045940399E-002
  0.13410000000000000        -0.18258477747440338     
  0.13440000000000002        -0.30334421992301941     
  0.13469999999999999        -0.43849796056747437     
  0.13500000000000001        -0.57377099990844727     
  0.13529999999999998        -0.69322085380554199     
  0.13560000000000000        -0.78058016300201416     
  0.13590000000000002        -0.82022351026535034     
  0.13619999999999999        -0.79893642663955688     
  0.13650000000000001        -0.70686775445938110     
  0.13680000000000003        -0.53861117362976074     
  0.13710000000000000        -0.29479014873504639     
  0.13740000000000002          1.8387950956821442E-002
  0.13769999999999999         0.38801681995391846     
  0.13800000000000001         0.79587554931640625     
  0.13829999999999998          1.2186642885208130     
  0.13860000000000000          1.6303124427795410     
  0.13890000000000002          2.0032255649566650     
  0.13919999999999999          2.3112368583679199     
  0.13950000000000001          2.5314650535583496     
  0.13979999999999998          2.6466715335845947     
  0.14010000000000000          2.6470806598663330     
  0.14040000000000002          2.5313103199005127     
  0.14069999999999999          2.3070838451385498     
  0.14100000000000001          1.9906688928604126     
  0.14130000000000004          1.6053942441940308     
  0.14160000000000000          1.1798331737518311     
  0.14189999999999997         0.74556559324264526     
  0.14219999999999999         0.33376994729042053     
  0.14250000000000002         -2.6837289333343506E-002
  0.14279999999999998        -0.31320372223854065     
  0.14310000000000000        -0.50924253463745117     
  0.14339999999999997        -0.60753792524337769     
  0.14369999999999999        -0.60978913307189941     
  0.14400000000000002        -0.52615994215011597     
  0.14429999999999998        -0.37454843521118164     
  0.14460000000000001        -0.17871882021427155     
  0.14490000000000003          3.3901978284120560E-002
  0.14520000000000000         0.23438182473182678     
  0.14550000000000002         0.39485776424407959     
  0.14579999999999999         0.49053788185119629     
  0.14610000000000001         0.50154900550842285     
  0.14640000000000003         0.41456320881843567     
  0.14670000000000000         0.22347839176654816     
  0.14699999999999996         -6.9858476519584656E-002
  0.14729999999999999        -0.45649933815002441     
  0.14760000000000001        -0.91985893249511719     
  0.14789999999999998         -1.4382209777832031     
  0.14820000000000000         -1.9846705198287964     