  -1.4999999999999999E-002     0.0000000000000000     
  -1.4700000000000000E-002     0.0000000000000000     
  -1.4400000000000000E-002     0.0000000000000000     
  -1.4100000000000000E-002     0.0000000000000000     
  -1.3800000000000000E-002     0.0000000000000000     
  -1.3500000000000000E-002     0.0000000000000000     
  -1.3200000000000000E-002     0.0000000000000000     
  -1.2899999999999998E-002     0.0000000000000000     
  -1.2600000000000000E-002     0.0000000000000000     
  -1.2299999999999998E-002     0.0000000000000000     
  -1.2000000000000000E-002     0.0000000000000000     
  -1.1699999999999999E-002     0.0000000000000000     
  -1.1399999999999999E-002    -1.7089631831007652E-036
  -1.1099999999999999E-002    -1.3310041317343847E-035
  -1.0799999999999999E-002     8.3398734694406228E-035
  -1.0499999999999999E-002    -1.1766255083206685E-033
  -1.0199999999999999E-002     2.5507706495453898E-033
  -9.8999999999999991E-003     9.4817439463557763E-033
  -9.5999999999999992E-003    -2.8533604570239590E-032
  -9.2999999999999992E-003    -1.2284508785239315E-031
  -8.9999999999999993E-003     3.3549406848046537E-031
  -8.6999999999999994E-003     9.8681136840963185E-031
  -8.3999999999999995E-003    -1.5578476339167022E-030
  -8.0999999999999996E-003    -8.8674912020985233E-030
  -7.7999999999999988E-003    -4.2551234016986293E-030
  -7.4999999999999997E-003     9.5160962347745640E-029
  -7.1999999999999998E-003     5.3157032304129268E-029
  -6.8999999999999981E-003    -6.4036826046177463E-028
  -6.5999999999999982E-003    -1.2339984516439679E-028
  -6.3000000000000000E-003     1.5454060514456136E-027
  -6.0000000000000001E-003     2.8087768192685285E-027
  -5.6999999999999985E-003     6.4033665843044965E-027
  -5.3999999999999986E-003    -5.1530706186037624E-026
  -5.1000000000000004E-003    -4.7052388944197876E-027
  -4.7999999999999987E-003     2.5229108982102398E-025
  -4.5000000000000005E-003    -3.0255416031066164E-025
  -4.1999999999999989E-003     3.0515527817445040E-025
  -3.8999999999999990E-003     2.5815493972374677E-026
  -3.5999999999999990E-003    -7.1001843655888096E-024
  -3.2999999999999991E-003     2.3215645125843105E-023
  -2.9999999999999992E-003    -2.4569499936899047E-023
  -2.6999999999999993E-003    -1.5774433762798526E-023
  -2.3999999999999994E-003     1.4023672748600963E-022
  -2.0999999999999977E-003    -4.7872859660425097E-022
  -1.7999999999999995E-003     9.0385150749850149E-022
  -1.4999999999999979E-003    -5.9967869296444413E-022
  -1.1999999999999997E-003    -1.2962194152751837E-021
  -8.9999999999999976E-004     5.9555615269861309E-021
  -5.9999999999999810E-004    -1.5744927410423098E-020
  -2.9999999999999992E-004     2.6841241669461200E-020
   0.0000000000000000         -1.8270367580532676E-020
   3.0000000000000165E-004    -5.1618301191304951E-020
   5.9999999999999984E-004     2.4869760930417581E-019
   9.0000000000000149E-004    -5.6495489814803623E-019
   1.2000000000000031E-003     5.7393742964346019E-019
   1.5000000000000013E-003     7.6758385206303105E-019
   1.8000000000000030E-003    -4.2544464950851014E-018
   2.1000000000000012E-003     7.9079095448861224E-018
   2.3999999999999994E-003    -3.8653570157827914E-018
   2.7000000000000010E-003    -1.8562304794984496E-017
   2.9999999999999992E-003     5.3646281779029276E-017
   3.3000000000000008E-003    -5.4505292138905460E-017
   3.6000000000000025E-003    -4.9832599388711081E-017
   3.9000000000000007E-003     2.5401918388860294E-016
   4.2000000000000023E-003    -3.4600559996727044E-016
   4.5000000000000005E-003    -3.7939146989332310E-017
   4.7999999999999987E-003     9.5308441869154964E-016
   5.1000000000000004E-003    -1.5714913065213407E-015
   5.4000000000000020E-003     4.4925221614121386E-016
   5.7000000000000037E-003     2.8173535024258617E-015
   5.9999999999999984E-003    -5.7424578904354641E-015
   6.3000000000000000E-003     3.5719518738874131E-015
   6.6000000000000017E-003     6.0499541707402391E-015
   6.9000000000000034E-003    -1.7485188281220145E-014
   7.2000000000000015E-003     1.7597575655427099E-014
   7.5000000000000032E-003     4.4817637962037187E-015
   7.8000000000000014E-003    -4.3233356230247304E-014
   8.0999999999999996E-003     6.8094759109133313E-014
   8.4000000000000012E-003    -3.4224973003073288E-014
   8.7000000000000029E-003    -7.7832047219011162E-014
   9.0000000000000011E-003     2.1073041251132939E-013
   9.2999999999999992E-003    -2.1772876161925037E-013
   9.6000000000000009E-003    -4.5930343023265573E-014
   9.8999999999999991E-003     5.2052039430404815E-013
   1.0200000000000001E-002    -8.0085679477242376E-013
   1.0500000000000002E-002     3.4055217631601633E-013
   1.0800000000000004E-002     9.5918898065502297E-013
   1.1099999999999999E-002    -2.2180073935024315E-012
   1.1400000000000000E-002     1.8461043366066927E-012
   1.1700000000000002E-002     1.0194233597669101E-012
   1.2000000000000004E-002    -4.8645801026052707E-012
   1.2300000000000002E-002     5.9183649836879695E-012
   1.2600000000000000E-002    -1.0219135499195450E-012
   1.2900000000000002E-002    -8.3183305308259123E-012
   1.3200000000000000E-002     1.4538456849829590E-011
   1.3500000000000002E-002    -8.8285680991561150E-012
   1.3800000000000003E-002    -9.6631485874010025E-012
   1.4100000000000001E-002     2.8523610313524793E-011
   1.4400000000000000E-002    -2.8269018016690009E-011
   1.4700000000000001E-002    -8.3257606868773328E-013
   1.4999999999999999E-002     4.3670353396905614E-011
   1.5300000000000001E-002    -6.4549642289867855E-011
   1.5600000000000003E-002     3.4005994046050665E-011
   1.5899999999999997E-002     4.2048492279853924E-011
   1.6199999999999999E-002    -1.1530608058494284E-010
   1.6500000000000001E-002     1.1942148538339561E-010
   1.6800000000000002E-002    -1.5727932151002107E-011
   1.7100000000000004E-002    -1.5919156570509091E-010
   1.7400000000000006E-002     2.6956430045541108E-010
   1.7700000000000000E-002    -1.5480824810381797E-010
   1.8000000000000002E-002    -1.4900809638134817E-010
   1.8300000000000004E-002     3.0784312642735330E-010
   1.8600000000000005E-002    -9.7101975610703532E-011
   1.8900000000000000E-002    -2.3491130156486191E-011
   1.9200000000000002E-002    -1.0538440215218728E-009
   1.9500000000000003E-002     3.5674313210860199E-009
   1.9799999999999998E-002    -7.0865067473380401E-010
   2.0100000000000000E-002    -2.3305192244797648E-008
   2.0400000000000001E-002     3.9087614950270423E-008
   2.0700000000000003E-002     7.4305717957937998E-008
   2.0999999999999998E-002    -2.5776110141179451E-007
   2.1299999999999999E-002    -1.9338701069676022E-007
   2.1600000000000001E-002     2.1206529271200753E-006
   2.1900000000000003E-002     7.1346072385224606E-006
   2.2200000000000004E-002     1.3297268357769944E-005
   2.2500000000000006E-002     1.9149455898460628E-005
   2.2800000000000001E-002     2.5085905676591389E-005
   2.3100000000000002E-002     3.4237703371377856E-005
   2.3400000000000004E-002     5.1037869500956999E-005
   2.3699999999999999E-002     7.7328628627067490E-005
   2.4000000000000000E-002     1.1282757171785689E-004
   2.4300000000000002E-002     1.6244274267400959E-004
   2.4599999999999997E-002     2.3549608347353708E-004
   2.4900000000000005E-002     3.3572331571765646E-004
   2.5200000000000000E-002     4.6707945580234077E-004
   2.5499999999999995E-002     6.3819162073285376E-004
   2.5800000000000003E-002     8.4530130605288759E-004
   2.6099999999999998E-002     1.0795759365540940E-003
   2.6400000000000007E-002     1.3448363457485013E-003
   2.6700000000000002E-002     1.6345364004640220E-003
   2.6999999999999996E-002     1.9112044076446122E-003
   2.7300000000000005E-002     2.1088236972673716E-003
   2.7600000000000000E-002     2.1291340086650595E-003
   2.7900000000000008E-002     1.8379965051846317E-003
   2.8200000000000003E-002     1.0585764695832597E-003
   2.8499999999999998E-002    -4.5381588933653821E-004
   2.8800000000000006E-002    -3.0273649642698769E-003
   2.9100000000000001E-002    -7.0463837937149018E-003
   2.9400000000000003E-002    -1.2939395829284731E-002
   2.9700000000000004E-002    -2.1218703011311679E-002
   3.0000000000000006E-002    -3.2480977121573662E-002
   3.0300000000000001E-002    -4.7348452677185238E-002
   3.0600000000000002E-002    -6.6416313639833136E-002
   3.0900000000000004E-002    -9.0221239388889707E-002
   3.1199999999999999E-002   -0.11919190574635063     
   3.1500000000000007E-002   -0.15358239298739029     
   3.1800000000000002E-002   -0.19343578274352158     
   3.2099999999999997E-002   -0.23852248371768514     
   3.2400000000000005E-002   -0.28828164873231277     
   3.2700000000000000E-002   -0.34181813435506125     
   3.3000000000000002E-002   -0.39791319702353078     
   3.3300000000000003E-002   -0.45503308480547133     
   3.3599999999999998E-002   -0.51138455278790218     
   3.3900000000000000E-002   -0.56498850726292638     
   3.4200000000000001E-002   -0.61375984908992898     
   3.4500000000000003E-002   -0.65560410008269443     
   3.4799999999999998E-002   -0.68853045091543308     
   3.5099999999999999E-002   -0.71066375615827582     
   3.5400000000000001E-002   -0.72033912828975488     
   3.5699999999999996E-002   -0.71606724562725788     
   3.6000000000000004E-002   -0.69656697727619132     
   3.6299999999999999E-002   -0.66067918652191082     
   3.6600000000000008E-002   -0.60731110425622958     
   3.6900000000000002E-002   -0.53530675907907366     
   3.7199999999999997E-002   -0.44365055812885679     
   3.7500000000000006E-002   -0.33139479391604176     
   3.7800000000000000E-002   -0.19775540364789368     
   3.8100000000000009E-002    -4.2399664176975826E-002
   3.8400000000000004E-002    0.13433312986793933     
   3.8699999999999998E-002    0.33112209590407771     
   3.9000000000000007E-002    0.54531926612386261     
   3.9300000000000002E-002    0.77252859650096184     
   3.9600000000000003E-002     1.0068327323580775     
   3.9900000000000005E-002     1.2402911000211354     
   4.0200000000000000E-002     1.4636400366310838     
   4.0500000000000001E-002     1.6662744201357569     
   4.0800000000000003E-002     1.8373638579903329     
   4.1100000000000005E-002     1.9664712305916083     
   4.1399999999999999E-002     2.0446493721320778     
   4.1700000000000008E-002     2.0654274292780954     
   4.2000000000000003E-002     2.0256790815986676     
   4.2299999999999997E-002     1.9264194617151844     
   4.2600000000000006E-002     1.7730979399277373     
   4.2900000000000001E-002     1.5754537821751171     
   4.3200000000000002E-002     1.3470760087888110     
   4.3500000000000004E-002     1.1041652865260332     
   4.3799999999999999E-002    0.86448606256263005     
   4.4100000000000000E-002    0.64548568682726781     
   4.4400000000000002E-002    0.46265328603625022     
   4.4700000000000004E-002    0.32773145868624809     
   4.4999999999999998E-002    0.24782302822149305     
   4.5300000000000000E-002    0.22371032339192443     
   4.5600000000000002E-002    0.25030965358306023     
   4.5899999999999996E-002    0.31614045624885145     
   4.6200000000000005E-002    0.40495790057148628     
   4.6500000000000000E-002    0.49613401278295743     
   4.6799999999999994E-002    0.56754996632733068     
   4.7100000000000003E-002    0.59646028646072047     
   4.7399999999999998E-002    0.56280144489159056     
   4.7700000000000006E-002    0.45005812891316666     
   4.8000000000000001E-002    0.24768938031418575     
   4.8300000000000010E-002    -4.7734786276947716E-002
   4.8600000000000004E-002   -0.43203995902521086     
   4.8899999999999999E-002   -0.89278202352052816     
   4.9200000000000008E-002    -1.4102672257667059     
   4.9500000000000002E-002    -1.9579338245798343     
   4.9800000000000011E-002    -2.5043545894875869     
   5.0100000000000006E-002    -3.0149042527654260     
   5.0400000000000000E-002    -3.4543062532824678     
   5.0700000000000009E-002    -3.7890898238193245     
   5.1000000000000004E-002    -3.9901997402579497     
   5.1299999999999998E-002    -4.0351961059616315     
   5.1600000000000007E-002    -3.9108207726589654     
   5.1900000000000002E-002    -3.6140270987911975     
   5.2200000000000010E-002    -3.1536750161915137     
   5.2500000000000005E-002    -2.5497072167476347     
   5.2800000000000000E-002    -1.8331219268919270     
   5.3099999999999994E-002    -1.0442876329934094     
   5.3400000000000003E-002   -0.22988033833895738     
   5.3699999999999998E-002    0.55949228853332400     
   5.4000000000000006E-002     1.2739752259400206     
   5.4300000000000001E-002     1.8673046986057251     
   5.4599999999999996E-002     2.3012425864959560     
   5.4900000000000004E-002     2.5483834572236645     
   5.5199999999999999E-002     2.5947154697860881     
   5.5499999999999994E-002     2.4411591597314128     
   5.5800000000000002E-002     2.1030375418556204     
   5.6099999999999997E-002     1.6100867906598424     
   5.6400000000000006E-002     1.0031424414969266     
   5.6700000000000000E-002    0.33123973725205236     
   5.6999999999999995E-002   -0.35246384067855274     
   5.7300000000000004E-002   -0.99472354640472105     
   5.7599999999999998E-002    -1.5465879089635806     
   5.7900000000000007E-002    -1.9675611039951946     
   5.8200000000000002E-002    -2.2278625444231084     
   5.8499999999999996E-002    -2.3106910249978370     
   5.8800000000000005E-002    -2.2128983659561285     
   5.9100000000000000E-002    -1.9446015744539409     
   5.9400000000000008E-002    -1.5269165281658275     
   5.9700000000000003E-002   -0.99065895242754820     
   6.0000000000000012E-002   -0.37118546438246103     
   6.0300000000000006E-002    0.29240351510856399     
   6.0600000000000001E-002    0.96347322204101715     
   6.0900000000000010E-002     1.6079004543938851     
   6.1200000000000004E-002     2.1988076889369488     
   6.1500000000000013E-002     2.7162441145208396     
   6.1800000000000008E-002     3.1484606527704031     
   6.2100000000000002E-002     3.4914361604932935     
   6.2399999999999997E-002     3.7474325678351832     
   6.2700000000000006E-002     3.9238072029907016     
   6.3000000000000000E-002     4.0301078354156772     
   6.3300000000000009E-002     4.0767225578806716     
   6.3600000000000004E-002     4.0728590392148902     
   6.3899999999999998E-002     4.0251552054628661     
   6.4199999999999993E-002     3.9361213589929207     
   6.4500000000000002E-002     3.8053839495610475     
   6.4800000000000010E-002     3.6281915166070604     
   6.5100000000000005E-002     3.3987624234121938     
   6.5400000000000000E-002     3.1090834657783404     
   6.5700000000000008E-002     2.7532105371037403     
   6.5999999999999989E-002     2.3264649543241376     
   6.6299999999999998E-002     1.8287308924209427     
   6.6600000000000006E-002     1.2643044823137686     
   6.6900000000000001E-002    0.64292930865486397     
   6.7199999999999996E-002    -2.0573282345743849E-002
   6.7500000000000004E-002   -0.70690636889954561     
   6.7800000000000013E-002    -1.3931968098738388     
   6.8099999999999994E-002    -2.0548357220331557     
   6.8400000000000002E-002    -2.6675357884172133     
   6.8700000000000011E-002    -3.2084040667586393     
   6.8999999999999992E-002    -3.6581190475465917     
   6.9300000000000000E-002    -4.0025159463278186     
   6.9600000000000009E-002    -4.2325750361956693     
   6.9900000000000004E-002    -4.3462795964376966     
   7.0199999999999999E-002    -4.3475411865744036     
   7.0500000000000007E-002    -4.2464086463484989     
   7.0800000000000016E-002    -4.0582428881890991     
   7.1099999999999997E-002    -3.8021224140708796     
   7.1400000000000005E-002    -3.5003363053702685     
   7.1700000000000000E-002    -3.1761598636591089     
   7.1999999999999995E-002    -2.8534827680454526     
   7.2300000000000003E-002    -2.5547858622065434     
   7.2600000000000012E-002    -2.3003484657090212     
   7.2900000000000006E-002    -2.1080298534410460     
   7.3200000000000001E-002    -1.9908236462477120     
   7.3499999999999996E-002    -1.9591555754049637     
   7.3800000000000004E-002    -2.0169556023463144     
   7.4099999999999999E-002    -2.1654277277600045     
   7.4400000000000008E-002    -2.3991230735652920     
   7.4700000000000003E-002    -2.7098001544835739     
   7.5000000000000011E-002    -3.0822038860833345     
   7.5299999999999992E-002    -3.4977769921231072     
   7.5600000000000001E-002    -3.9315090779007704     
   7.5900000000000009E-002    -4.3539196368349025     
   7.6200000000000004E-002    -4.7299481302371618     
   7.6499999999999999E-002    -5.0195931493493049     
   7.6800000000000007E-002    -5.1787488207327499     
   7.7099999999999988E-002    -5.1600488199403287     
   7.7399999999999997E-002    -4.9168958759972838     
   7.7700000000000005E-002    -4.4042043530945847     
   7.8000000000000014E-002    -3.5850168060419207     
   7.8299999999999995E-002    -2.4347221915938917     
   7.8600000000000003E-002   -0.94570598618161839     
   7.8900000000000012E-002    0.86504079876193885     
   7.9199999999999993E-002     2.9538900790852693     
   7.9500000000000001E-002     5.2447537325981841     
   7.9800000000000010E-002     7.6321345906773956     
   8.0100000000000018E-002     9.9801595504187759     
   8.0399999999999999E-002     12.131900071750763     
   8.0700000000000008E-002     13.916930085931096     
   8.1000000000000003E-002     15.165553629651612     
   8.1299999999999997E-002     15.724044469767847     
   8.1600000000000006E-002     15.469910434619464     
   8.1900000000000014E-002     14.328206816396317     
   8.2199999999999995E-002     12.282750034121079     
   8.2500000000000004E-002     9.3872432001516017     
   8.2799999999999999E-002     5.7644378790780451     
   8.3100000000000007E-002     1.6064011190456853     
   8.3400000000000002E-002    -2.8391730983569232     
   8.3700000000000011E-002    -7.2830549538195442     
   8.4000000000000005E-002    -11.417737453521966     
   8.4300000000000000E-002    -14.940281759798154     
   8.4599999999999995E-002    -17.578608738546450     
   8.4900000000000003E-002    -19.114619224930067     
   8.5199999999999998E-002    -19.402665480081609     
   8.5500000000000007E-002    -18.383939865884329     
   8.5800000000000001E-002    -16.091485166842119     
   8.6100000000000010E-002    -12.648360179556107     
   8.6399999999999991E-002    -8.2578843108095441     
   8.6699999999999999E-002    -3.1867370590432387     
   8.7000000000000008E-002     2.2551798680186437     
   8.7300000000000003E-002     7.7413036356514340     
   8.7599999999999997E-002     12.950433884964582     
   8.7900000000000006E-002     17.591375866235580     
   8.8200000000000014E-002     21.420695761952970     
   8.8499999999999995E-002     24.257139574935309     
   8.8800000000000004E-002     25.988643465834855     
   8.9100000000000013E-002     26.573949193735615     
   8.9399999999999993E-002     26.038920965463859     
   8.9700000000000002E-002     24.465837160177898     
   9.0000000000000011E-002     21.983905739302372     
   9.0299999999999991E-002     18.751593787628622     
   9.0600000000000000E-002     14.948542402297676     
   9.0900000000000009E-002     10.755766437940878     
   9.1200000000000017E-002     6.3505931098685124     
   9.1499999999999998E-002     1.8945722376986396     
   9.1800000000000007E-002    -2.4693624146711102     
   9.2100000000000001E-002    -6.6202429970246612     
   9.2399999999999996E-002    -10.460839628648557     
   9.2700000000000005E-002    -13.913760294171141     
   9.3000000000000013E-002    -16.922848933807131     
   9.3300000000000008E-002    -19.445025193033729     
   9.3600000000000003E-002    -21.454305105426712     
   9.3899999999999997E-002    -22.932436982363242     
   9.4200000000000006E-002    -23.873994631925882     
   9.4500000000000001E-002    -24.278303462622091     
   9.4800000000000009E-002    -24.156232267838504     
   9.5100000000000004E-002    -23.522699706669414     
   9.5399999999999999E-002    -22.405128325137298     
   9.5699999999999993E-002    -20.836521287191999     
   9.6000000000000002E-002    -18.861479912462187     
   9.6300000000000011E-002    -16.534270324821819     
   9.6600000000000005E-002    -13.916162770252413     
   9.6900000000000000E-002    -11.081449613113136     
   9.7200000000000009E-002    -8.1058206619101725     
   9.7499999999999989E-002    -5.0745585133228275     
   9.7799999999999998E-002    -2.0691410106698971     
   9.8100000000000007E-002    0.82633650634355149     
   9.8400000000000015E-002     3.5386369764029268     
   9.8699999999999996E-002     5.9995406943291414     
   9.9000000000000005E-002     8.1593300677408820     
   9.9300000000000013E-002     9.9784982753109546     
   9.9599999999999994E-002     11.438702447915162     
   9.9900000000000003E-002     12.536740756447106     
  0.10020000000000001          13.286619795940169     
  0.10049999999999999          13.716768079358843     
  0.10080000000000000          13.864194285555328     
  0.10110000000000001          13.777180362269121     
  0.10140000000000000          13.501436868909082     
  0.10170000000000000          13.085957139873813     
  0.10200000000000001          12.571098508344221     
  0.10230000000000002          11.990680588618716     
  0.10260000000000000          11.368391916080952     
  0.10290000000000001          10.716097005414781     
  0.10320000000000000          10.036536304091726     
  0.10350000000000001          9.3221904251529963     
  0.10380000000000000          8.5595162390136466     
  0.10410000000000001          7.7319468656373829     
  0.10440000000000001          6.8214117408287791     
  0.10470000000000000          5.8137042374159194     
  0.10500000000000000          4.7003693396493844     
  0.10530000000000000          3.4817248059508188     
  0.10560000000000000          2.1681311320880283     
  0.10590000000000001         0.77952911820485404     
  0.10620000000000000        -0.65288316239740141     
  0.10650000000000001         -2.0898326209838274     
  0.10679999999999999         -3.4860199936091760     
  0.10710000000000000         -4.7927985517054168     
  0.10740000000000001         -5.9636141862574732     
  0.10770000000000000         -6.9536396716795572     
  0.10800000000000000         -7.7288201854096670     
  0.10830000000000001         -8.2630344221818888     
  0.10859999999999999         -8.5451626733766375     
  0.10890000000000000         -8.5762220588573541     
  0.10920000000000001         -8.3719914113356992     
  0.10950000000000001         -7.9596896526483363     
  0.10979999999999999         -7.3781468180619640     
  0.11009999999999999         -6.6722326981259812     
  0.11040000000000001         -5.8926426846347226     
  0.11070000000000001         -5.0872916600081908     
  0.11100000000000000         -4.3053749488991429     
  0.11130000000000000         -3.5842848585513138     
  0.11160000000000002         -2.9575868405437973     
  0.11190000000000001         -2.4436021482985879     
  0.11220000000000001         -2.0515013934199899     
  0.11250000000000000         -1.7783147989415014     
  0.11280000000000000         -1.6087464927378292     
  0.11309999999999999         -1.5209709663213715     
  0.11340000000000001         -1.4817732164526376     
  0.11369999999999998         -1.4597707013188455     
  0.11400000000000000         -1.4159047003945489     
  0.11430000000000000         -1.3196386556552895     
  0.11460000000000002         -1.1389300583154807     
  0.11489999999999999        -0.85624160790911930     
  0.11520000000000001        -0.45688365424736332     
  0.11550000000000001          5.5875373069154577E-002
  0.11580000000000000         0.67347672728874386     
  0.11609999999999999          1.3699376380890769     
  0.11640000000000002          2.1144369019556066     
  0.11670000000000001          2.8645272737261003     
  0.11700000000000001          3.5751272357164385     
  0.11730000000000000          4.2000311039030294     
  0.11760000000000000          4.6933293196251071     
  0.11789999999999999          5.0200071753814939     
  0.11820000000000001          5.1503126664176051     
  0.11850000000000001          5.0727171233038462     
  0.11880000000000000          4.7864094191352251     
  0.11910000000000000          4.3081645076281774     
  0.11940000000000002          3.6701958412525073     
  0.11970000000000001          2.9144166775948293     
  0.12000000000000001          2.0963161133739519     
  0.12030000000000000          1.2706899830570926     
  0.12060000000000000         0.49783992205836292     
  0.12089999999999999        -0.17140542188411345     
  0.12119999999999999        -0.69293417352502473     
  0.12150000000000001         -1.0389728514540053     
  0.12180000000000001         -1.1945743079837357     
  0.12210000000000000         -1.1650867237598117     
  0.12239999999999999        -0.96912302071073686     
  0.12270000000000002        -0.64276031606400963     
  0.12300000000000001        -0.23056468569567556     
  0.12330000000000001         0.21559407379275441     
  0.12360000000000000         0.64140520530233047     
  0.12390000000000000         0.99858298959634695     
  0.12419999999999999          1.2415905449876792     
  0.12450000000000001          1.3437855932752925     
  0.12480000000000001          1.2832396052048658     
  0.12509999999999999          1.0624818864718577     
  0.12540000000000001         0.68972769613249874     
  0.12570000000000003         0.19276305666782179     
  0.12600000000000000        -0.39336161004630199     
  0.12630000000000002         -1.0262108979249547     
  0.12659999999999999         -1.6589282646812933     
  0.12690000000000001         -2.2461444843464449     
  0.12719999999999998         -2.7450264821284573     
  0.12750000000000000         -3.1210077359057387     
  0.12780000000000002         -3.3473573310000546     
  0.12809999999999999         -3.4083806617482537     
  0.12840000000000001         -3.2998359455393000     
  0.12869999999999998         -3.0285509934772676     
  0.12900000000000000         -2.6107185251215554     
  0.12930000000000003         -2.0734320404870772     
  0.12959999999999999         -1.4485311324281085     
  0.12990000000000002        -0.77464223738594207     
  0.13019999999999998         -9.1351168755412715E-002
  0.13050000000000000         0.56107104003434216     
  0.13080000000000003          1.1445794398428788     
  0.13109999999999999          1.6286533649771400     
  0.13140000000000002          1.9846999617904899     
  0.13169999999999998          2.1978437716605725     
  0.13200000000000001          2.2592134245610609     
  0.13229999999999997          2.1704181671373490     
  0.13260000000000000          1.9451759900992300     
  0.13290000000000002          1.6004439953671792     
  0.13319999999999999          1.1678252005718335     
  0.13350000000000001         0.67657840010540049     
  0.13380000000000003         0.16602952713351238     
  0.13410000000000000        -0.32994888876807948     
  0.13440000000000002        -0.77530176521210237     
  0.13469999999999999         -1.1414366610145592     
  0.13500000000000001         -1.4030377820265736     
  0.13529999999999998         -1.5460872125912104     
  0.13560000000000000         -1.5622270477544298     
  0.13590000000000002         -1.4556294246940453     
  0.13619999999999999         -1.2346215160780645     
  0.13650000000000001        -0.92005576503739306     
  0.13680000000000003        -0.53549497658353928     
  0.13710000000000000        -0.11003105576142413     
  0.13740000000000002         0.32412064101906068     
  0.13769999999999999         0.73877789784669545     
  0.13800000000000001          1.1016292380170034     
  0.13829999999999998          1.3920206507084805     
  0.13860000000000000          1.5886993110476055     
  0.13890000000000002          1.6820735503447573     
  0.13919999999999999          1.6687327321325398     
  0.13950000000000001          1.5511158026304415     
  0.13979999999999998          1.3428010676698250     
  0.14010000000000000          1.0595876947113076     
  0.14040000000000002         0.72569078128761788     
  0.14069999999999999         0.36609486461892882     
  0.14100000000000001          7.7012873764683576E-003
  0.14130000000000004        -0.32304137312256742     
  0.14160000000000000        -0.60319893801730906     
  0.14189999999999997        -0.81426046064292634     
  0.14219999999999999        -0.94218812799960716     
  0.14250000000000002        -0.98265896994641366     
  0.14279999999999998        -0.93472856425917072     
  0.14310000000000000        -0.80787826809342178     
  0.14339999999999997        -0.61516685809809601     
  0.14369999999999999        -0.37531774416904895     
  0.14400000000000002        -0.11166412037512374     
  0.14429999999999998         0.15459850080317938     
  0.14460000000000001         0.39729564795452887     
  0.14490000000000003         0.59924858465982223     
  0.14520000000000000         0.74072868597265007     
  0.14550000000000002         0.81232947893370522     
  0.14579999999999999         0.80697199578168721     
  0.14610000000000001         0.72568953639749267     
  0.14640000000000003         0.57432768236368048     
  0.14670000000000000         0.36514179887210485     
  0.14699999999999996         0.11216154506642706     
  0.14729999999999999        -0.16357973837147277     
  0.14760000000000001        -0.44493612535280036     
  0.14789999999999998        -0.70871485919614763     
  0.14820000000000000        -0.93871517104101487     