  -1.4999999999999999E-002     0.0000000000000000     
  -1.4700000000000000E-002     0.0000000000000000     
  -1.4400000000000000E-002     0.0000000000000000     
  -1.4100000000000000E-002     0.0000000000000000     
  -1.3800000000000000E-002     0.0000000000000000     
  -1.3500000000000000E-002     0.0000000000000000     
  -1.3200000000000000E-002     0.0000000000000000     
  -1.2899999999999998E-002     0.0000000000000000     
  -1.2600000000000000E-002     0.0000000000000000     
  -1.2299999999999998E-002     0.0000000000000000     
  -1.2000000000000000E-002     0.0000000000000000     
  -1.1699999999999999E-002     0.0000000000000000     
  -1.1399999999999999E-002     0.0000000000000000     
  -1.1099999999999999E-002     0.0000000000000000     
  -1.0799999999999999E-002     0.0000000000000000     
  -1.0499999999999999E-002     0.0000000000000000     
  -1.0199999999999999E-002     0.0000000000000000     
  -9.8999999999999991E-003     0.0000000000000000     
  -9.5999999999999992E-003     0.0000000000000000     
  -9.2999999999999992E-003     0.0000000000000000     
  -8.9999999999999993E-003     0.0000000000000000     
  -8.6999999999999994E-003     0.0000000000000000     
  -8.3999999999999995E-003     0.0000000000000000     
  -8.0999999999999996E-003     0.0000000000000000     
  -7.7999999999999988E-003     0.0000000000000000     
  -7.4999999999999997E-003     0.0000000000000000     
  -7.1999999999999998E-003     0.0000000000000000     
  -6.8999999999999981E-003     0.0000000000000000     
  -6.5999999999999982E-003     0.0000000000000000     
  -6.3000000000000000E-003     0.0000000000000000     
  -6.0000000000000001E-003     0.0000000000000000     
  -5.6999999999999985E-003     0.0000000000000000     
  -5.3999999999999986E-003     0.0000000000000000     
  -5.1000000000000004E-003     0.0000000000000000     
  -4.7999999999999987E-003     0.0000000000000000     
  -4.5000000000000005E-003     0.0000000000000000     
  -4.1999999999999989E-003     0.0000000000000000     
  -3.8999999999999990E-003     0.0000000000000000     
  -3.5999999999999990E-003     0.0000000000000000     
  -3.2999999999999991E-003     0.0000000000000000     
  -2.9999999999999992E-003     0.0000000000000000     
  -2.6999999999999993E-003     0.0000000000000000     
  -2.3999999999999994E-003     0.0000000000000000     
  -2.0999999999999977E-003     0.0000000000000000     
  -1.7999999999999995E-003     0.0000000000000000     
  -1.4999999999999979E-003     0.0000000000000000     
  -1.1999999999999997E-003     0.0000000000000000     
  -8.9999999999999976E-004     0.0000000000000000     
  -5.9999999999999810E-004     0.0000000000000000     
  -2.9999999999999992E-004     0.0000000000000000     
   0.0000000000000000          0.0000000000000000     
   3.0000000000000165E-004     0.0000000000000000     
   5.9999999999999984E-004     0.0000000000000000     
   9.0000000000000149E-004     0.0000000000000000     
   1.2000000000000031E-003     0.0000000000000000     
   1.5000000000000013E-003     0.0000000000000000     
   1.8000000000000030E-003     0.0000000000000000     
   2.1000000000000012E-003     0.0000000000000000     
   2.3999999999999994E-003     0.0000000000000000     
   2.7000000000000010E-003     0.0000000000000000     
   2.9999999999999992E-003     0.0000000000000000     
   3.3000000000000008E-003     0.0000000000000000     
   3.6000000000000025E-003     0.0000000000000000     
   3.9000000000000007E-003     0.0000000000000000     
   4.2000000000000023E-003     0.0000000000000000     
   4.5000000000000005E-003     0.0000000000000000     
   4.7999999999999987E-003     0.0000000000000000     
   5.1000000000000004E-003     0.0000000000000000     
   5.4000000000000020E-003     0.0000000000000000     
   5.7000000000000037E-003     0.0000000000000000     
   5.9999999999999984E-003     0.0000000000000000     
   6.3000000000000000E-003     0.0000000000000000     
   6.6000000000000017E-003     0.0000000000000000     
   6.9000000000000034E-003     0.0000000000000000     
   7.2000000000000015E-003     0.0000000000000000     
   7.5000000000000032E-003     2.0996637201202226E-037
   7.8000000000000014E-003     2.8498327941161122E-036
   8.0999999999999996E-003    -5.3594056582411868E-036
   8.4000000000000012E-003    -1.4631030694054946E-036
   8.7000000000000029E-003     2.4270362052101394E-035
   9.0000000000000011E-003    -6.2495680796012040E-035
   9.2999999999999992E-003     2.8334860279483679E-034
   9.6000000000000009E-003    -3.8459218879495306E-034
   9.8999999999999991E-003    -4.5491387172743049E-034
   1.0200000000000001E-002     2.9356825735780124E-033
   1.0500000000000002E-002    -7.5266049289785479E-033
   1.0800000000000004E-002     1.2962112749341244E-032
   1.1099999999999999E-002    -1.0527300787201801E-032
   1.1400000000000000E-002    -2.2966074460042417E-032
   1.1700000000000002E-002     1.1671962312938733E-031
   1.2000000000000004E-002    -2.4810188754670904E-031
   1.2300000000000002E-002     2.1800190384653878E-031
   1.2600000000000000E-002     4.3684903204542377E-031
   1.2900000000000002E-002    -2.1258907485631488E-030
   1.3200000000000000E-002     4.0487244801727064E-030
   1.3500000000000002E-002    -2.5903911988198722E-030
   1.3800000000000003E-002    -8.2441266592654314E-030
   1.4100000000000001E-002     3.0158569483973581E-029
   1.4400000000000000E-002    -4.6749206348432437E-029
   1.4700000000000001E-002     1.4199867828306561E-029
   1.4999999999999999E-002     1.1587262697329570E-028
   1.5300000000000001E-002    -3.1891122532464219E-028
   1.5600000000000003E-002     3.9842710620417902E-028
   1.5899999999999997E-002     7.6975447819237267E-030
   1.6199999999999999E-002    -1.1533681440066738E-027
   1.6500000000000001E-002     2.6372406936221362E-027
   1.6800000000000002E-002    -2.9349621302132754E-027
   1.7100000000000004E-002    -3.2901085417485766E-028
   1.7400000000000006E-002     8.7889226852887653E-027
   1.7700000000000000E-002    -2.0290359063276552E-026
   1.8000000000000002E-002     2.4885671542826371E-026
   1.8300000000000004E-002    -2.3157294100619378E-027
   1.8600000000000005E-002    -7.0515916195913636E-026
   1.8900000000000000E-002     1.8541876202822939E-025
   1.9200000000000002E-002    -2.3583955921370101E-025
   1.9500000000000003E-002    -2.3299697333011943E-026
   1.9799999999999998E-002     8.1527405071123864E-025
   2.0100000000000000E-002    -1.8146483244995556E-024
   2.0400000000000001E-002     1.5302739609163052E-024
   2.0700000000000003E-002     2.2331492375946980E-024
   2.0999999999999998E-002    -9.3840804570632008E-024
   2.1299999999999999E-002     1.2954273258862081E-023
   2.1600000000000001E-002     7.4058167268230953E-025
   2.1900000000000003E-002    -3.8107280208284681E-023
   2.2200000000000004E-002     7.2496529177147821E-023
   2.2500000000000006E-002    -3.6219075660101259E-023
   2.2800000000000001E-002    -1.2338047877941470E-022
   2.3100000000000002E-002     3.2364422802597383E-022
   2.3400000000000004E-002    -2.8274992480342253E-022
   2.3699999999999999E-002    -2.8693876645674447E-022
   2.4000000000000000E-002     1.1991852306277242E-021
   2.4300000000000002E-002    -1.4640615734233666E-021
   2.4599999999999997E-002    -1.4917052999083403E-022
   2.4900000000000005E-002     3.5360486894714697E-021
   2.5200000000000000E-002    -6.0446057764694167E-021
   2.5499999999999995E-002     3.3554482615710598E-021
   2.5800000000000003E-002     8.1781276842975503E-021
   2.6099999999999998E-002    -2.7046807915074695E-020
   2.6400000000000007E-002     2.4812532671495335E-020
   2.6700000000000002E-002     9.5061365459939397E-020
   2.6999999999999996E-002    -3.8997672096439323E-019
   2.7300000000000005E-002     2.2819678304967941E-019
   2.7600000000000000E-002     2.4644057282296720E-018
   2.7900000000000008E-002    -8.3717955888964599E-018
   2.8200000000000003E-002     5.5575085873789528E-018
   2.8499999999999998E-002     3.8246387087417503E-017
   2.8800000000000006E-002    -1.3117446348311308E-016
   2.9100000000000001E-002     1.2749159400072813E-016
   2.9400000000000003E-002     3.3837336059331195E-016
   2.9700000000000004E-002    -1.4767303979308894E-015
   3.0000000000000006E-002     2.3380266235624719E-015
   3.0300000000000001E-002     3.8755802807137303E-016
   3.0600000000000002E-002    -1.2614874736728536E-014
   3.0900000000000004E-002     3.6658488513786129E-014
   3.1199999999999999E-002    -4.1796534778118780E-014
   3.1500000000000007E-002    -8.5943110281569770E-014
   3.1800000000000002E-002     4.7236229421815245E-013
   3.2099999999999997E-002    -7.7465588119816883E-013
   3.2400000000000005E-002    -4.3452972748649645E-013
   3.2700000000000000E-002     4.4966964324367277E-012
   3.3000000000000002E-002    -7.9182010519659407E-012
   3.3300000000000003E-002    -8.1232009981834336E-013
   3.3599999999999998E-002     2.9372436113541559E-011
   3.3900000000000000E-002    -5.3723108240281913E-011
   3.4200000000000001E-002     1.0133652200130930E-011
   3.4500000000000003E-002     1.4325271134751958E-010
   3.4799999999999998E-002    -2.9082101507867698E-010
   3.5099999999999999E-002     6.7970535352789356E-011
   3.5400000000000001E-002     7.9478058600495211E-010
   3.5699999999999996E-002    -1.4876628037334051E-009
   3.6000000000000004E-002     2.8132456527989309E-010
   3.6299999999999999E-002     3.1702973497042226E-009
   3.6600000000000008E-002    -1.7999882247788449E-008
   3.6900000000000002E-002     3.3139327140355780E-008
   3.7199999999999997E-002     7.8201173452880001E-008
   3.7500000000000006E-002    -3.9510579907751051E-007
   3.7800000000000000E-002     1.1442086647020295E-006
   3.8100000000000009E-002     1.1431240823971719E-005
   3.8400000000000004E-002     2.8533688949446232E-005
   3.8699999999999998E-002     3.8787339044736601E-005
   3.9000000000000007E-002     4.1501173879555280E-005
   3.9300000000000002E-002     5.1874510777888232E-005
   3.9600000000000003E-002     7.8101240592475321E-005
   3.9900000000000005E-002     1.2393589967000206E-004
   4.0200000000000000E-002     1.9219114601283548E-004
   4.0500000000000001E-002     2.8591255264252824E-004
   4.0800000000000003E-002     4.2083778448112966E-004
   4.1100000000000005E-002     6.0619395553499628E-004
   4.1399999999999999E-002     8.4439295004831022E-004
   4.1700000000000008E-002     1.1591909350673335E-003
   4.2000000000000003E-002     1.5710254215352375E-003
   4.2299999999999997E-002     2.0756143137033445E-003
   4.2600000000000006E-002     2.6721503897478918E-003
   4.2900000000000001E-002     3.3688426643995184E-003
   4.3200000000000002E-002     4.1457135619219765E-003
   4.3500000000000004E-002     4.9444109174740652E-003
   4.3799999999999999E-002     5.6904169687393702E-003
   4.4100000000000000E-002     6.2752149385457145E-003
   4.4400000000000002E-002     6.5151380201690923E-003
   4.4700000000000004E-002     6.1670310406805040E-003
   4.4999999999999998E-002     4.9630030641697465E-003
   4.5300000000000000E-002     2.5611509455424897E-003
   4.5600000000000002E-002    -1.4577611229376897E-003
   4.5899999999999996E-002    -7.5064930650084669E-003
   4.6200000000000005E-002    -1.5988689204685269E-002
   4.6500000000000000E-002    -2.7336274058263221E-002
   4.6799999999999994E-002    -4.1905276403682024E-002
   4.7100000000000003E-002    -5.9849076755644992E-002
   4.7399999999999998E-002    -8.1165723068257423E-002
   4.7700000000000006E-002   -0.10567237053101186     
   4.8000000000000001E-002   -0.13291352056255423     
   4.8300000000000010E-002   -0.16215896390443563     
   4.8600000000000004E-002   -0.19243067976611172     
   4.8899999999999999E-002   -0.22253963721974834     
   4.9200000000000008E-002   -0.25113895532385921     
   4.9500000000000002E-002   -0.27685962494523420     
   4.9800000000000011E-002   -0.29843724209029965     
   5.0100000000000006E-002   -0.31473204381875419     
   5.0400000000000000E-002   -0.32491141759490105     
   5.0700000000000009E-002   -0.32849199439292498     
   5.1000000000000004E-002   -0.32539558530670298     
   5.1299999999999998E-002   -0.31587382662522501     
   5.1600000000000007E-002   -0.30045070711368105     
   5.1900000000000002E-002   -0.27981202150551177     
   5.2200000000000010E-002   -0.25465548788594283     
   5.2500000000000005E-002   -0.22550343601935108     
   5.2800000000000000E-002   -0.19252049040022268     
   5.3099999999999994E-002   -0.15555615858573546     
   5.3400000000000003E-002   -0.11395351267993759     
   5.3699999999999998E-002    -6.6794991117992364E-002
   5.4000000000000006E-002    -1.2973100080668529E-002
   5.4300000000000001E-002     4.8585641646889277E-002
   5.4599999999999996E-002    0.11866527676348737     
   5.4900000000000004E-002    0.19742478351943671     
   5.5199999999999999E-002    0.28421226369493358     
   5.5499999999999994E-002    0.37744289521844543     
   5.5800000000000002E-002    0.47455877045900685     
   5.6099999999999997E-002    0.57209261724449512     
   5.6400000000000006E-002    0.66595181126638892     
   5.6700000000000000E-002    0.75172026049469309     
   5.6999999999999995E-002    0.82493117928964921     
   5.7300000000000004E-002    0.88168595996696197     
   5.7599999999999998E-002    0.91864112101535866     
   5.7900000000000007E-002    0.93365528322051006     
   5.8200000000000002E-002    0.92554264169091738     
   5.8499999999999996E-002    0.89438131109752916     
   5.8800000000000005E-002    0.84126715451426648     
   5.9100000000000000E-002    0.76812334871955557     
   5.9400000000000008E-002    0.67758598906252132     
   5.9700000000000003E-002    0.57280277118175960     
   6.0000000000000012E-002    0.45724561682560427     
   6.0300000000000006E-002    0.33464510760252075     
   6.0600000000000001E-002    0.20895798221961481     
   6.0900000000000010E-002     8.4487818345480026E-002
   6.1200000000000004E-002    -3.4263999160808023E-002
   6.1500000000000013E-002   -0.14234510943210843     
   6.1800000000000008E-002   -0.23460089455084410     
   6.2100000000000002E-002   -0.30591950694058934     
   6.2399999999999997E-002   -0.35154044085533798     
   6.2700000000000006E-002   -0.36741445399581352     
   6.3000000000000000E-002   -0.35089398281949080     
   6.3300000000000009E-002   -0.30117664676846267     
   6.3600000000000004E-002   -0.21982670422640016     
   6.3899999999999998E-002   -0.11105292391252286     
   6.4199999999999993E-002     1.8310521394591106E-002
   6.4500000000000002E-002    0.15872632805701459     
   6.4800000000000010E-002    0.29896552157315137     
   6.5100000000000005E-002    0.42636983242718873     
   6.5400000000000000E-002    0.52840085103247247     
   6.5700000000000008E-002    0.59319959973907999     
   6.5999999999999989E-002    0.61121509943973251     
   6.6299999999999998E-002    0.57580665962808197     
   6.6600000000000006E-002    0.48421332090630465     
   6.6900000000000001E-002    0.33766768198467645     
   6.7199999999999996E-002    0.14181026748324133     
   6.7500000000000004E-002    -9.4230315837903866E-002
   6.7800000000000013E-002   -0.35797716338552599     
   6.8099999999999994E-002   -0.63527098394843406     
   6.8400000000000002E-002   -0.91079757999818334     
   6.8700000000000011E-002    -1.1696249842615494     
   6.8999999999999992E-002    -1.3982962931370118     
   6.9300000000000000E-002    -1.5852991834876136     
   6.9600000000000009E-002    -1.7223453975495460     
   6.9900000000000004E-002    -1.8037738830470360     
   7.0199999999999999E-002    -1.8275899007452452     
   7.0500000000000007E-002    -1.7941578888720215     
   7.0800000000000016E-002    -1.7065201599391813     
   7.1099999999999997E-002    -1.5695728510445264     
   7.1400000000000005E-002    -1.3896837202743768     
   7.1700000000000000E-002    -1.1742469262153463     
   7.1999999999999995E-002   -0.93117921307722895     
   7.2300000000000003E-002   -0.66919157019506770     
   7.2600000000000012E-002   -0.39738482721819679     
   7.2900000000000006E-002   -0.12537414770792665     
   7.3200000000000001E-002    0.13659784661512830     
   7.3499999999999996E-002    0.37806936745505126     
   7.3800000000000004E-002    0.58817466748405423     
   7.4099999999999999E-002    0.75655856833898838     
   7.4400000000000008E-002    0.87360125226199514     
   7.4700000000000003E-002    0.93173449367221650     
   7.5000000000000011E-002    0.92557655754358237     
   7.5299999999999992E-002    0.85366362575063093     
   7.5600000000000001E-002    0.71812410641118518     
   7.5900000000000009E-002    0.52637643069601658     
   7.6200000000000004E-002    0.28948125490951071     
   7.6499999999999999E-002     2.3336592692382085E-002
   7.6800000000000007E-002   -0.25358568720104735     
   7.7099999999999988E-002   -0.52052134696841335     
   7.7399999999999997E-002   -0.75663249736733462     
   7.7700000000000005E-002   -0.94272915800885215     
   7.8000000000000014E-002    -1.0623075202640031     
   7.8299999999999995E-002    -1.1040983083578944     
   7.8600000000000003E-002    -1.0621954830667519     
   7.8900000000000012E-002   -0.93737718010236648     
   7.9199999999999993E-002   -0.73656501937173502     
   7.9500000000000001E-002   -0.47262608935159633     
   7.9800000000000010E-002   -0.16326251611278897     
   8.0100000000000018E-002    0.17081350000695572     
   8.0399999999999999E-002    0.50731157077895261     
   8.0700000000000008E-002    0.82438055485435768     
   8.1000000000000003E-002     1.1025235291414930     
   8.1299999999999997E-002     1.3257070029305247     
   8.1600000000000006E-002     1.4830894276333737     
   8.1900000000000014E-002     1.5691684264443140     
   8.2199999999999995E-002     1.5842037551058894     
   8.2500000000000004E-002     1.5340582020450952     
   8.2799999999999999E-002     1.4289300785929839     
   8.3100000000000007E-002     1.2829386580415942     
   8.3400000000000002E-002     1.1124138000347443     
   8.3700000000000011E-002    0.93455100102116617     
   8.4000000000000005E-002    0.76632455574588221     
   8.4300000000000000E-002    0.62241284462929869     
   8.4599999999999995E-002    0.51530947700273799     
   8.4900000000000003E-002    0.45318623389859347     
   8.5199999999999998E-002    0.44054039377702203     
   8.5500000000000007E-002    0.47676216358829748     
   8.5800000000000001E-002    0.55755739681526784     
   8.6100000000000010E-002    0.67422486361004985     
   8.6399999999999991E-002    0.81489127182984333     
   8.6699999999999999E-002    0.96545431963372152     
   8.7000000000000008E-002     1.1104001957158474     
   8.7300000000000003E-002     1.2341698130214596     
   8.7599999999999997E-002     1.3222765257047513     
   8.7900000000000006E-002     1.3625025546957659     
   8.8200000000000014E-002     1.3454715638531880     
   8.8499999999999995E-002     1.2658835063731573     
   8.8800000000000004E-002     1.1223915080370688     
   8.9100000000000013E-002    0.91810630203482191     
   8.9399999999999993E-002    0.65989280878832801     
   8.9700000000000002E-002    0.35809074722976408     
   9.0000000000000011E-002     2.5513955142303590E-002
   9.0299999999999991E-002   -0.32359151278550513     
   9.0600000000000000E-002   -0.67429087219292505     
   9.0900000000000009E-002    -1.0127703560181089     
   9.1200000000000017E-002    -1.3259749379053218     
   9.1499999999999998E-002    -1.6035449582249868     
   9.1800000000000007E-002    -1.8370395197350788     
   9.2100000000000001E-002    -2.0210586874382912     
   9.2399999999999996E-002    -2.1518931498540539     
   9.2700000000000005E-002    -2.2282442290547024     
   9.3000000000000013E-002    -2.2497738875983799     
   9.3300000000000008E-002    -2.2173486460590226     
   9.3600000000000003E-002    -2.1320887829331383     
   9.3899999999999997E-002    -1.9957311785439131     
   9.4200000000000006E-002    -1.8099090300742660     
   9.4500000000000001E-002    -1.5776196203905002     
   9.4800000000000009E-002    -1.3019457943423731     
   9.5100000000000004E-002   -0.98853276896847930     
   9.5399999999999999E-002   -0.64437342707238265     
   9.5699999999999993E-002   -0.27958686516417597     
   9.6000000000000002E-002     9.3472306642508052E-002
   9.6300000000000011E-002    0.45974324322477500     
   9.6600000000000005E-002    0.80238725848743186     
   9.6900000000000000E-002     1.1035741281637519     
   9.7200000000000009E-002     1.3455346892442677     
   9.7499999999999989E-002     1.5124979848409623     
   9.7799999999999998E-002     1.5912819177599502     
   9.8100000000000007E-002     1.5735505876919120     
   9.8400000000000015E-002     1.4559900036792328     
   9.8699999999999996E-002     1.2422343974975121     
   9.9000000000000005E-002    0.94158365677990119     
   9.9300000000000013E-002    0.57027737209979357     
   9.9599999999999994E-002    0.14926405933245457     
   9.9900000000000003E-002   -0.29502988156047039     
  0.10020000000000001        -0.73456895741680128     
  0.10049999999999999         -1.1391315133148083     
  0.10080000000000000         -1.4800661080329811     
  0.10110000000000001         -1.7304745777823189     
  0.10140000000000000         -1.8686175029614915     
  0.10170000000000000         -1.8777463533574803     
  0.10200000000000001         -1.7487337498197277     
  0.10230000000000002         -1.4799459476368639     
  0.10260000000000000         -1.0786364486438131     
  0.10290000000000001        -0.56021158684698324     
  0.10320000000000000          5.1225257282172976E-002
  0.10350000000000001         0.72469365659382134     
  0.10380000000000000          1.4222797383260399     
  0.10410000000000001          2.1026746994581096     
  0.10440000000000001          2.7214006929381833     
  0.10470000000000000          3.2353647010561701     
  0.10500000000000000          3.6041669604146875     
  0.10530000000000000          3.7940486110810099     
  0.10560000000000000          3.7801769138448122     
  0.10590000000000001          3.5493340749727196     
  0.10620000000000000          3.1015955922480458     
  0.10650000000000001          2.4511716423283048     
  0.10679999999999999          1.6264484639847652     
  0.10710000000000000         0.66868798136156560     
  0.10740000000000001        -0.37057038841639667     
  0.10770000000000000         -1.4328431739247733     
  0.10800000000000000         -2.4565438401119479     
  0.10830000000000001         -3.3820254906688252     
  0.10859999999999999         -4.1551725215147002     
  0.10890000000000000         -4.7328992418126603     
  0.10920000000000001         -5.0843809738886989     
  0.10950000000000001         -5.1955354795332056     
  0.10979999999999999         -5.0675757977650449     
  0.11009999999999999         -4.7180022350570709     
  0.11040000000000001         -4.1774260072533309     
  0.11070000000000001         -3.4876861950764209     
  0.11100000000000000         -2.6967798743526998     
  0.11130000000000000         -1.8560289444711913     
  0.11160000000000002         -1.0142545289480900     
  0.11190000000000001        -0.21582005986123853     
  0.11220000000000001         0.50421973691012667     
  0.11250000000000000          1.1208523490582607     
  0.11280000000000000          1.6204493080328994     
  0.11309999999999999          2.0010310131531304     
  0.11340000000000001          2.2697237875945078     
  0.11369999999999998          2.4425149467956970     
  0.11400000000000000          2.5390857424049855     
  0.11430000000000000          2.5831510564895694     
  0.11460000000000002          2.5957852484944013     
  0.11489999999999999          2.5965673303218608     
  0.11520000000000001          2.5985572788058562     
  0.11550000000000001          2.6093134898269454     
  0.11580000000000000          2.6293798226726892     
  0.11609999999999999          2.6535353144340945     
  0.11640000000000002          2.6714205925814269     
  0.11670000000000001          2.6698498624678564     
  0.11700000000000001          2.6344516158262223     
  0.11730000000000000          2.5525850926988340     
  0.11760000000000000          2.4139044766892255     
  0.11789999999999999          2.2137161169061415     
  0.11820000000000001          1.9510684489047421     
  0.11850000000000001          1.6321563424554384     
  0.11880000000000000          1.2658330629023880     
  0.11910000000000000         0.86611583829727223     
  0.11940000000000002         0.44728140076766643     
  0.11970000000000001          2.4742932139650620E-002
  0.12000000000000001        -0.38907830072586336     
  0.12030000000000000        -0.78347080272486380     
  0.12060000000000000         -1.1531529647477221     
  0.12089999999999999         -1.4948126135431226     
  0.12119999999999999         -1.8110105737471045     
  0.12150000000000001         -2.1043292224528471     
  0.12180000000000001         -2.3801889148154274     
  0.12210000000000000         -2.6423477522014309     
  0.12239999999999999         -2.8934503698248903     
  0.12270000000000002         -3.1322429256067039     
  0.12300000000000001         -3.3546112483751784     
  0.12330000000000001         -3.5525216288454260     
  0.12360000000000000         -3.7154023607384232     
  0.12390000000000000         -3.8303568659554230     
  0.12419999999999999         -3.8853268317982810     
  0.12450000000000001         -3.8689421718167836     
  0.12480000000000001         -3.7736208026230287     
  0.12509999999999999         -3.5957239223813531     
  0.12540000000000001         -3.3369203798339555     
  0.12570000000000003         -3.0044552963510966     
  0.12600000000000000         -2.6098431760236878     
  0.12630000000000002         -2.1698967033901795     
  0.12659999999999999         -1.7025338414716344     
  0.12690000000000001         -1.2282460214189115     
  0.12719999999999998        -0.76567368495220123     
  0.12750000000000000        -0.33203438941431562     
  0.12780000000000002          5.9711660423785062E-002
  0.12809999999999999         0.40058980662426080     
  0.12840000000000001         0.68746180555382708     
  0.12869999999999998         0.92127377606697003     
  0.12900000000000000          1.1085845487282437     
  0.12930000000000003          1.2588752652464459     
  0.12959999999999999          1.3853368729612168     
  0.12990000000000002          1.5011892559943689     
  0.13019999999999998          1.6210442378702226     
  0.13050000000000000          1.7569260517455909     
  0.13080000000000003          1.9188563181583262     
  0.13109999999999999          2.1129843379058997     
  0.13140000000000002          2.3411261682366842     
  0.13169999999999998          2.6006266027288092     
  0.13200000000000001          2.8843750176426965     
  0.13229999999999997          3.1813878498503243     
  0.13260000000000000          3.4777502032047352     
  0.13290000000000002          3.7569952302462042     
  0.13319999999999999          4.0031532883773053     
  0.13350000000000001          4.1996760262321686     
  0.13380000000000003          4.3327587123142450     
  0.13410000000000000          4.3911656756540083     
  0.13440000000000002          4.3679360804694625     
  0.13469999999999999          4.2600766398621772     
  0.13500000000000001          4.0695118084648954     
  0.13529999999999998          3.8019210211507328     
  0.13560000000000000          3.4679581796849277     
  0.13590000000000002          3.0804863024576292     
  0.13619999999999999          2.6560019970351334     
  0.13650000000000001          2.2108730261195149     
  0.13680000000000003          1.7636564191276207     
  0.13710000000000000          1.3302118523394100     
  0.13740000000000002         0.92672908004227494     
  0.13769999999999999         0.56459816911268668     
  0.13800000000000001         0.25394479131544223     
  0.13829999999999998         -1.2850592570865516E-003
  0.13860000000000000        -0.19934933642502095     
  0.13890000000000002        -0.34450777965213497     
  0.13919999999999999        -0.44326866826778666     
  0.13950000000000001        -0.50738769803118311     
  0.13979999999999998        -0.54909974942061446     
  0.14010000000000000        -0.58414465459738363     
  0.14040000000000002        -0.62751873562450200     
  0.14069999999999999        -0.69474326820629884     
  0.14100000000000001        -0.80034903721083595     
  0.14130000000000004        -0.95651003952405311     
  0.14160000000000000         -1.1746709471505881     
  0.14189999999999997         -1.4609748230656692     
  0.14219999999999999         -1.8213249510430778     
  0.14250000000000002         -2.2543579274192815     
  0.14279999999999998         -2.7559832140539839     
  0.14310000000000000         -3.3133505643096512     
  0.14339999999999997         -3.9080696970089761     
  0.14369999999999999         -4.5111293983534893     
  0.14400000000000002         -5.0856867542578641     
  0.14429999999999998         -5.5851089765007345     
  0.14460000000000001         -5.9569222256844228     
  0.14490000000000003         -6.1431877166057802     
  0.14520000000000000         -6.0893971765334811     
  0.14550000000000002         -5.7469194107690669     
  0.14579999999999999         -5.0825710371612161     
  0.14610000000000001         -4.0852199817406074     
  0.14640000000000003         -2.7717313552773106     
  0.14670000000000000         -1.1926414870540629     
  0.14699999999999996         0.56776201081655131     
  0.14729999999999999          2.3919984150494855     
  0.14760000000000001          4.1373220811405815     
  0.14789999999999998          5.6447385750687431     
  0.14820000000000000          6.7533671542117872     