  -1.4999999999999999E-002     0.0000000000000000     
  -1.4700000000000000E-002     0.0000000000000000     
  -1.4400000000000000E-002     1.1946191377387400E-035
  -1.4100000000000000E-002     4.3053266959129147E-031
  -1.3800000000000000E-002     7.6004879027017438E-030
  -1.3500000000000000E-002    -2.2816811035989809E-026
  -1.3200000000000000E-002     1.4363978773246611E-025
  -1.2899999999999998E-002     7.7443929865175121E-024
  -1.2600000000000000E-002    -6.5181400486249932E-023
  -1.2299999999999998E-002    -1.1890881594990065E-022
  -1.2000000000000000E-002     1.7932475571001772E-021
  -1.1699999999999999E-002     5.5143762727355427E-022
  -1.1399999999999999E-002    -2.1676969703407676E-020
  -1.1099999999999999E-002    -7.8124124266532029E-021
  -1.0799999999999999E-002     1.5449715051109943E-019
  -1.0499999999999999E-002     1.7994277098724035E-019
  -1.0199999999999999E-002    -6.4607275712979399E-019
  -9.8999999999999991E-003    -2.2659484689356296E-018
  -9.5999999999999992E-003     1.1639555619757541E-018
  -9.2999999999999992E-003     1.7515166600366840E-017
  -8.9999999999999993E-003    -4.1196567639985868E-018
  -8.6999999999999994E-003    -5.0003424302697865E-017
  -8.3999999999999995E-003    -4.2818304997861505E-017
  -8.0999999999999996E-003     8.4357723182772790E-018
  -7.7999999999999988E-003     5.3979218197817053E-016
  -7.4999999999999997E-003     2.5857410321391264E-016
  -7.1999999999999998E-003    -2.3733704359443044E-015
  -6.8999999999999981E-003     5.1260960590819222E-016
  -6.5999999999999982E-003     1.8338376876438699E-016
  -6.3000000000000000E-003     2.1650335027097685E-015
  -6.0000000000000001E-003     2.2998368014852250E-014
  -5.6999999999999985E-003    -4.3118920090061323E-014
  -5.3999999999999986E-003    -2.6634377061353572E-014
  -5.1000000000000004E-003     8.7572989338748192E-014
  -4.7999999999999987E-003    -1.3242151526209179E-013
  -4.5000000000000005E-003     3.0034909535798348E-013
  -4.1999999999999989E-003     1.2022629441254902E-013
  -3.8999999999999990E-003    -1.3634908712077262E-012
  -3.5999999999999990E-003     1.6179582312756899E-012
  -3.2999999999999991E-003    -8.2270331917122740E-013
  -2.9999999999999992E-003    -1.2894979040282974E-012
  -2.6999999999999993E-003     8.6365991225325938E-012
  -2.3999999999999994E-003    -1.3446912277348610E-011
  -2.0999999999999977E-003     3.1236983246858002E-012
  -1.7999999999999995E-003     1.3394397438401915E-011
  -1.4999999999999979E-003    -3.8775280368832038E-011
  -1.1999999999999997E-003     7.3873205455885584E-011
  -8.9999999999999976E-004    -5.3192408782934095E-011
  -5.9999999999999810E-004    -3.9861841733716675E-011
  -2.9999999999999992E-004     1.8219868457160180E-010
   0.0000000000000000         -4.5456277232644533E-010
   3.0000000000000165E-004     5.9684353129033681E-010
   5.9999999999999984E-004     8.5353354932708314E-011
   9.0000000000000149E-004    -1.7448009240066354E-009
   1.2000000000000031E-003     3.3962262398171746E-009
   1.5000000000000013E-003    -2.2104248063939483E-009
   1.8000000000000030E-003    -4.8195376510352945E-009
   2.1000000000000012E-003     1.3003119347643983E-008
   2.3999999999999994E-003    -9.0637301266967076E-009
   2.7000000000000010E-003    -1.2092877218321159E-008
   2.9999999999999992E-003     3.2662100069922858E-008
   3.3000000000000008E-003    -2.1653530474032968E-008
   3.6000000000000025E-003    -2.6130978297792151E-008
   3.9000000000000007E-003     6.0397034957477387E-008
   4.2000000000000023E-003    -2.8809879664636197E-008
   4.5000000000000005E-003    -4.0201554131342280E-008
   4.7999999999999987E-003     7.0655822207858772E-008
   5.1000000000000004E-003    -3.4429939008455574E-008
   5.4000000000000020E-003    -3.1349710317909286E-008
   5.7000000000000037E-003     6.6852332048695959E-008
   5.9999999999999984E-003    -4.5543317243824666E-008
   6.3000000000000000E-003    -8.0800225849443607E-009
   6.6000000000000017E-003     5.7744233904995348E-008
   6.9000000000000034E-003    -6.0789378111274424E-008
   7.2000000000000015E-003     8.0667835506132072E-010
   7.5000000000000032E-003     5.1390865131853013E-008
   7.8000000000000014E-003    -4.6835526044227651E-008
   8.0999999999999996E-003     2.1320081419338283E-008
   8.4000000000000012E-003     3.3084889981592471E-008
   8.7000000000000029E-003    -8.8699574517165108E-008
   9.0000000000000011E-003     1.3687506802382629E-008
   9.2999999999999992E-003     9.3818004328778950E-008
   9.6000000000000009E-003    -1.5742030865081855E-008
   9.8999999999999991E-003     8.6429885415348078E-009
   1.0200000000000001E-002    -1.4649755793474631E-007
   1.0500000000000002E-002    -2.4479501153975986E-007
   1.0800000000000004E-002     6.1398309612348793E-007
   1.1099999999999999E-002     1.8596656335299744E-006
   1.1400000000000000E-002     3.1782338342791071E-006
   1.1700000000000002E-002     4.8148175486742109E-006
   1.2000000000000004E-002     6.5553986177461999E-006
   1.2300000000000002E-002     1.0582538775458643E-005
   1.2600000000000000E-002     1.7452323631562353E-005
   1.2900000000000002E-002     2.5610475245465289E-005
   1.3200000000000000E-002     4.3134918497217205E-005
   1.3500000000000002E-002     7.5861646316325421E-005
   1.3800000000000003E-002     1.0507390525903723E-004
   1.4100000000000001E-002     1.1593081159439085E-004
   1.4400000000000000E-002     1.2843986995432141E-004
   1.4700000000000001E-002     1.5743241275647342E-004
   1.4999999999999999E-002     1.8547049555428042E-004
   1.5300000000000001E-002     1.9939651230998969E-004
   1.5600000000000003E-002     1.9445358221934200E-004
   1.5899999999999997E-002     1.4169376143786157E-004
   1.6199999999999999E-002    -1.2583916499537325E-005
   1.6500000000000001E-002    -3.2397681714725797E-004
   1.6800000000000002E-002    -8.7362573896388167E-004
   1.7100000000000004E-002    -1.8464698368382073E-003
   1.7400000000000006E-002    -3.5072578055545568E-003
   1.7700000000000000E-002    -6.1067741242618462E-003
   1.8000000000000002E-002    -9.9590437348738015E-003
   1.8300000000000004E-002    -1.5565034211055623E-002
   1.8600000000000005E-002    -2.3558214365430430E-002
   1.8900000000000000E-002    -3.4611679497571046E-002
   1.9200000000000002E-002    -4.9464817994632537E-002
   1.9500000000000003E-002    -6.8974475898828436E-002
   1.9799999999999998E-002    -9.4028208381478295E-002
   2.0100000000000000E-002   -0.12537094076890964     
   2.0400000000000001E-002   -0.16349142944165074     
   2.0700000000000003E-002   -0.20854161623775047     
   2.0999999999999998E-002   -0.26016566220302817     
   2.1299999999999999E-002   -0.31721696562649360     
   2.1600000000000001E-002   -0.37750690788809660     
   2.1900000000000003E-002   -0.43771501765466247     
   2.2200000000000004E-002   -0.49320539389838203     
   2.2500000000000006E-002   -0.53794562370469023     
   2.2800000000000001E-002   -0.56459747970525243     
   2.3100000000000002E-002   -0.56474945833884860     
   2.3400000000000004E-002   -0.52934054317688961     
   2.3699999999999999E-002   -0.44929587733513898     
   2.4000000000000000E-002   -0.31641449961001555     
   2.4300000000000002E-002   -0.12432406225483250     
   2.4599999999999997E-002    0.13048980089381512     
   2.4900000000000005E-002    0.44755083349655944     
   2.5200000000000000E-002    0.82132792127415843     
   2.5499999999999995E-002     1.2405488989926710     
   2.5800000000000003E-002     1.6879634512582129     
   2.6099999999999998E-002     2.1406585198215140     
   2.6400000000000007E-002     2.5707626083100479     
   2.6700000000000002E-002     2.9469795380768886     
   2.6999999999999996E-002     3.2367877253812054     
   2.7300000000000005E-002     3.4089067765734740     
   2.7600000000000000E-002     3.4363089080791553     
   2.7900000000000008E-002     3.2990913754527043     
   2.8200000000000003E-002     2.9869705398676700     
   2.8499999999999998E-002     2.5014938413016097     
   2.8800000000000006E-002     1.8569594978261108     
   2.9100000000000001E-002     1.0803938702297771     
   2.9400000000000003E-002    0.21026765130048419     
   2.9700000000000004E-002   -0.70594435128932531     
   3.0000000000000006E-002    -1.6153002425231904     
   3.0300000000000001E-002    -2.4635965545484009     
   3.0600000000000002E-002    -3.2000043849362569     
   3.0900000000000004E-002    -3.7818010787666339     
   3.1199999999999999E-002    -4.1779837294523503     
   3.1500000000000007E-002    -4.3723259833487589     
   3.1800000000000002E-002    -4.3650064678387963     
   3.2099999999999997E-002    -4.1726226350592412     
   3.2400000000000005E-002    -3.8267490471528873     
   3.2700000000000000E-002    -3.3710854033817554     
   3.3000000000000002E-002    -2.8572328121468757     
   3.3300000000000003E-002    -2.3403898487579937     
   3.3599999999999998E-002    -1.8741475996733001     
   3.3900000000000000E-002    -1.5056076605733182     
   3.4200000000000001E-002    -1.2713668042152122     
   3.4500000000000003E-002    -1.1944326816830078     
   3.4799999999999998E-002    -1.2824572176966811     
   3.5099999999999999E-002    -1.5275380648590584     
   3.5400000000000001E-002    -1.9062250921821615     
   3.5699999999999996E-002    -2.3823036477025958     
   3.6000000000000004E-002    -2.9092675746707748     
   3.6299999999999999E-002    -3.4341725004549204     
   3.6600000000000008E-002    -3.9014155885425765     
   3.6900000000000002E-002    -4.2563728212288083     
   3.7199999999999997E-002    -4.4493150062544942     
   3.7500000000000006E-002    -4.4386720759789000     
   3.7800000000000000E-002    -4.1931474136979290     
   3.8100000000000009E-002    -3.6938004433561105     
   3.8400000000000004E-002    -2.9357589137807878     
   3.8699999999999998E-002    -1.9278688722130042     
   3.9000000000000007E-002   -0.69267803647056603     
   3.9300000000000002E-002    0.73391210029441112     
   3.9600000000000003E-002     2.3038014656894035     
   3.9900000000000005E-002     3.9588638788461736     
   4.0200000000000000E-002     5.6332213766372519     
   4.0500000000000001E-002     7.2553151346621672     
   4.0800000000000003E-002     8.7495351842466746     
   4.1100000000000005E-002     10.040688727634020     
   4.1399999999999999E-002     11.056570539271860     
   4.1700000000000008E-002     11.730491907467496     
   4.2000000000000003E-002     12.004486169985228     
   4.2299999999999997E-002     11.833278530032260     
   4.2600000000000006E-002     11.187855370824309     
   4.2900000000000001E-002     10.059149875228627     
   4.3200000000000002E-002     8.4598414596889597     
   4.3500000000000004E-002     6.4289009673969986     
   4.3799999999999999E-002     4.0352048179903619     
   4.4100000000000000E-002     1.3770508595637772     
   4.4400000000000002E-002    -1.4186110170114290     
   4.4700000000000004E-002    -4.1971779223682120     
   4.4999999999999998E-002    -6.7826633690200140     
   4.5300000000000000E-002    -8.9849078091172316     
   4.5600000000000002E-002    -10.611987236858340     
   4.5899999999999996E-002    -11.484810163709586     
   4.6200000000000005E-002    -11.452544843395586     
   4.6500000000000000E-002    -10.408481721787467     
   4.6799999999999994E-002    -8.3064695838137936     
   4.7100000000000003E-002    -5.1750997623428745     
   4.7399999999999998E-002    -1.1256850992373870     
   4.7700000000000006E-002     3.6460589395122156     
   4.8000000000000001E-002     8.8666641564701649     
   4.8300000000000010E-002     14.196585789813128     
   4.8600000000000004E-002     19.250912255722085     
   4.8899999999999999E-002     23.626812790248465     
   4.9200000000000008E-002     26.937252218284087     
   4.9500000000000002E-002     28.842673995962723     
   4.9800000000000011E-002     29.080627805438269     
   5.0100000000000006E-002     27.492583689779451     
   5.0400000000000000E-002     24.040847701520249     
   5.0700000000000009E-002     18.819513436991826     
   5.1000000000000004E-002     12.049750530595276     
   5.1299999999999998E-002     4.0651919780022467     
   5.1600000000000007E-002    -4.7113810851751055     
   5.1900000000000002E-002    -13.798163918922910     
   5.2200000000000010E-002    -22.688374642354802     
   5.2500000000000005E-002    -30.890150780776139     
   5.2800000000000000E-002    -37.960472269413799     
   5.3099999999999994E-002    -43.532847797867817     
   5.3400000000000003E-002    -47.339283466724837     
   5.3699999999999998E-002    -49.224922619965128     
   5.4000000000000006E-002    -49.151776721480417     
   5.4300000000000001E-002    -47.191252644083988     
   5.4599999999999996E-002    -43.513255521900987     
   5.4900000000000004E-002    -38.367129718298884     
   5.5199999999999999E-002    -32.057843434207598     
   5.5499999999999994E-002    -24.924655815532674     
   5.5800000000000002E-002    -17.314936032632431     
   5.6099999999999997E-002    -9.5679667258766727     
   5.6400000000000006E-002    -1.9954322576110144     
   5.6700000000000000E-002     5.1340241173855929     
   5.6999999999999995E-002     11.599967795608222     
   5.7300000000000004E-002     17.233532569487352     
   5.7599999999999998E-002     21.917848640906186     
   5.7900000000000007E-002     25.591073031420422     
   5.8200000000000002E-002     28.241042884961274     
   5.8499999999999996E-002     29.895565041852628     
   5.8800000000000005E-002     30.615357258546766     
   5.9100000000000000E-002     30.493298003585835     
   5.9400000000000008E-002     29.646519402502463     
   5.9700000000000003E-002     28.205097998067913     
   6.0000000000000012E-002     26.303937899102721     
   6.0300000000000006E-002     24.078048835671439     
   6.0600000000000001E-002     21.659793003055597     
   6.0900000000000010E-002     19.167638682309303     
   6.1200000000000004E-002     16.697746368536343     
   6.1500000000000013E-002     14.323994140960679     
   6.1800000000000008E-002     12.098915897767426     
   6.2100000000000002E-002     10.049988979996641     
   6.2399999999999997E-002     8.1803088199635852     
   6.2700000000000006E-002     6.4682923513790911     
   6.3000000000000000E-002     4.8810048240024742     
   6.3300000000000009E-002     3.3783678511655566     
   6.3600000000000004E-002     1.9165483651042123     
   6.3899999999999998E-002    0.45035509599929924     
   6.4199999999999993E-002    -1.0550208359503870     
   6.4500000000000002E-002    -2.6166774757414402     
   6.4800000000000010E-002    -4.2354888044004610     
   6.5100000000000005E-002    -5.8988511878112320     
   6.5400000000000000E-002    -7.5769396395186277     
   6.5700000000000008E-002    -9.2215838775397501     
   6.5999999999999989E-002    -10.772542572157825     
   6.6299999999999998E-002    -12.164446410527432     
   6.6600000000000006E-002    -13.332741007597718     
   6.6900000000000001E-002    -14.215321113785819     
   6.7199999999999996E-002    -14.757980706878470     
   6.7500000000000004E-002    -14.921701528639630     
   6.7800000000000013E-002    -14.688868488625133     
   6.8099999999999994E-002    -14.061986665875395     
   6.8400000000000002E-002    -13.064328890620743     
   6.8700000000000011E-002    -11.740116540769463     
   6.8999999999999992E-002    -10.153847757896017     
   6.9300000000000000E-002    -8.3851910486870338     
   6.9600000000000009E-002    -6.5217016333095614     
   6.9900000000000004E-002    -4.6547413269607176     
   7.0199999999999999E-002    -2.8723491816489286     
   7.0500000000000007E-002    -1.2538550540784730     
   7.0800000000000016E-002    0.13607729796881074     
   7.1099999999999997E-002     1.2529464026028094     
   7.1400000000000005E-002     2.0724539518246701     
   7.1700000000000000E-002     2.5919432436314480     
   7.1999999999999995E-002     2.8300836567832590     
   7.2300000000000003E-002     2.8252192286990869     
   7.2600000000000012E-002     2.6299479016933347     
   7.2900000000000006E-002     2.3053226901085431     
   7.3200000000000001E-002     1.9174930607576997     
   7.3499999999999996E-002     1.5328657550278528     
   7.3800000000000004E-002     1.2119433525743766     
   7.4099999999999999E-002     1.0048782246571921     
   7.4400000000000008E-002    0.94694250459903717     
   7.4700000000000003E-002     1.0578054520987148     
   7.5000000000000011E-002     1.3411053806811535     
   7.5299999999999992E-002     1.7845714026754091     
   7.5600000000000001E-002     2.3584319237216871     
   7.5900000000000009E-002     3.0195897045658562     
   7.6200000000000004E-002     3.7164220490198332     
   7.6499999999999999E-002     4.3933048610188621     
   7.6800000000000007E-002     4.9942860174306531     
   7.7099999999999988E-002     5.4652447581344461     
   7.7399999999999997E-002     5.7598352047410515     
   7.7700000000000005E-002     5.8467434347933533     
   7.8000000000000014E-002     5.7090730953257776     
   7.8299999999999995E-002     5.3443515554256749     
   7.8600000000000003E-002     4.7658788375596259     
   7.8900000000000012E-002     4.0026604457133459     
   7.9199999999999993E-002     3.0969171635722290     
   7.9500000000000001E-002     2.1004431903473559     
   7.9800000000000010E-002     1.0693538865070877     
   8.0100000000000018E-002     6.0196399670418899E-002
   8.0399999999999999E-002   -0.87219475170672212     
   8.0700000000000008E-002    -1.6787921113907771     
   8.1000000000000003E-002    -2.3212821225565037     
   8.1299999999999997E-002    -2.7735956385397600     
   8.1600000000000006E-002    -3.0219883381191366     
   8.1900000000000014E-002    -3.0670913599438592     
   8.2199999999999995E-002    -2.9214661573030014     
   8.2500000000000004E-002    -2.6093613833693894     
   8.2799999999999999E-002    -2.1645405787188565     
   8.3100000000000007E-002    -1.6299419900890797     
   8.3400000000000002E-002    -1.0516905886270855     
   8.3700000000000011E-002   -0.47615968997627256     
   8.4000000000000005E-002     5.1707681665726923E-002
   8.4300000000000000E-002    0.48976331160327646     
   8.4599999999999995E-002    0.80221214736133817     
   8.4900000000000003E-002    0.96406401372467387     
   8.5199999999999998E-002    0.96318593982804579     
   8.5500000000000007E-002    0.79744016296404396     
   8.5800000000000001E-002    0.47480390087929081     
   8.6100000000000010E-002     1.6465351448186283E-002
   8.6399999999999991E-002   -0.54223080749484254     
   8.6699999999999999E-002    -1.1577980105621419     
   8.7000000000000008E-002    -1.7836009665876507     
   8.7300000000000003E-002    -2.3699519133373279     
   8.7599999999999997E-002    -2.8659652474818955     
   8.7900000000000006E-002    -3.2231320516385580     
   8.8200000000000014E-002    -3.4040646914342290     
   8.8499999999999995E-002    -3.3856727993418048     
   8.8800000000000004E-002    -3.1585888705295417     
   8.9100000000000013E-002    -2.7261130547335028     
   8.9399999999999993E-002    -2.1096589318655816     
   8.9700000000000002E-002    -1.3472598144757235     
   9.0000000000000011E-002   -0.49129165544511988     
   9.0299999999999991E-002    0.39927344197804970     
   9.0600000000000000E-002     1.2629811402101936     
   9.0900000000000009E-002     2.0384500850389600     
   9.1200000000000017E-002     2.6690068570870409     
   9.1499999999999998E-002     3.1100988846020048     
   9.1800000000000007E-002     3.3340527777980320     
   9.2100000000000001E-002     3.3313340753480318     
   9.2399999999999996E-002     3.1092239638612966     
   9.2700000000000005E-002     2.6916813868015907     
   9.3000000000000013E-002     2.1171207118210091     
   9.3300000000000008E-002     1.4359223980883087     
   9.3600000000000003E-002    0.70494479856243775     
   9.3899999999999997E-002    -1.9897059421282393E-002
   9.4200000000000006E-002   -0.68721753605798597     
   9.4500000000000001E-002    -1.2521721585610734     
   9.4800000000000009E-002    -1.6803365326260220     
   9.5100000000000004E-002    -1.9505167683795719     
   9.5399999999999999E-002    -2.0553909748705497     
   9.5699999999999993E-002    -2.0009725939977194     
   9.6000000000000002E-002    -1.8020958181347169     
   9.6300000000000011E-002    -1.4834136731129419     
   9.6600000000000005E-002    -1.0758315606026478     
   9.6900000000000000E-002   -0.61518213784972353     
   9.7200000000000009E-002   -0.13604047308256639     
   9.7499999999999989E-002    0.32901350628408821     
   9.7799999999999998E-002    0.75028892808396819     
   9.8100000000000007E-002     1.1021430037091129     
   9.8400000000000015E-002     1.3663989656146391     
   9.8699999999999996E-002     1.5335952879818771     
   9.9000000000000005E-002     1.6004233129079264     
   9.9300000000000013E-002     1.5702694859134425     
   9.9599999999999994E-002     1.4515902488758030     
   9.9900000000000003E-002     1.2600284408179192     
  0.10020000000000001          1.0151984905253748     
  0.10049999999999999         0.73838102226957503     
  0.10080000000000000         0.44999620277769559     
  0.10110000000000001         0.17033874511949709     
  0.10140000000000000         -8.2940844002550307E-002
  0.10170000000000000        -0.29422086662429336     
  0.10200000000000001        -0.45362490730197536     
  0.10230000000000002        -0.55742024888658293     
  0.10260000000000000        -0.60532046680450247     
  0.10290000000000001        -0.60103659680925148     
  0.10320000000000000        -0.55101522392135394     
  0.10350000000000001        -0.46624051180671344     
  0.10380000000000000        -0.35999183965863679     
  0.10410000000000001        -0.24632731139058439     
  0.10440000000000001        -0.13681007803033030     
  0.10470000000000000         -4.2183363693319764E-002
  0.10500000000000000          2.7093825855580067E-002
  0.10530000000000000          6.1802615030863484E-002
  0.10560000000000000          5.8601074163887934E-002
  0.10590000000000001          1.8892500540430568E-002
  0.10620000000000000         -5.3899155735184667E-002
  0.10650000000000001        -0.15530408636712512     
  0.10679999999999999        -0.27807058066953605     
  0.10710000000000000        -0.40994304115512925     
  0.10740000000000001        -0.53738336812388621     
  0.10770000000000000        -0.65004072021228687     
  0.10800000000000000        -0.73940695767118569     
  0.10830000000000001        -0.79591798476771203     
  0.10859999999999999        -0.81205196298366644     
  0.10890000000000000        -0.78398174623415073     
  0.10920000000000001        -0.71394567861753799     
  0.10950000000000001        -0.60550571986225776     
  0.10979999999999999        -0.46280248882523267     
  0.11009999999999999        -0.29293644488882897     
  0.11040000000000001        -0.10651997316609041     
  0.11070000000000001          8.4405032665552326E-002
  0.11100000000000000         0.26966100523686620     
  0.11130000000000000         0.44066962103233465     
  0.11160000000000002         0.58818437042018790     
  0.11190000000000001         0.70297695554811890     
  0.11220000000000001         0.77943777353235077     
  0.11250000000000000         0.81546977692826772     
  0.11280000000000000         0.81179191032385845     
  0.11309999999999999         0.77005675708354460     
  0.11340000000000001         0.69380438394663102     
  0.11369999999999998         0.58964750392798493     
  0.11400000000000000         0.46744194239916936     
  0.11430000000000000         0.33664135667662265     
  0.11460000000000002         0.20616187822855636     
  0.11489999999999999          8.3143517987434690E-002
  0.11520000000000001         -2.4923295684967650E-002
  0.11550000000000001        -0.11039812605134536     
  0.11580000000000000        -0.16915069709226405     
  0.11609999999999999        -0.20197711467385060     
  0.11640000000000002        -0.21082276879487605     
  0.11670000000000001        -0.19662324218192984     
  0.11700000000000001        -0.16174381500479473     
  0.11730000000000000        -0.11174613959889390     
  0.11760000000000000         -5.4899855810182308E-002
  0.11789999999999999          2.4173468944965748E-003
  0.11820000000000001          5.6908846054105178E-002
  0.11850000000000001         0.10465036739445743     
  0.11880000000000000         0.13934145427045674     
  0.11910000000000000         0.15529698107268786     
  0.11940000000000002         0.15183549873428248     
  0.11970000000000001         0.13080916427355405     
  0.12000000000000001          9.2994288099808697E-002
  0.12030000000000000          3.8337590624110116E-002
  0.12060000000000000         -3.0052361786866211E-002
  0.12089999999999999        -0.10536071053442875     
  0.12119999999999999        -0.17995291592899809     
  0.12150000000000001        -0.24997163740632444     
  0.12180000000000001        -0.31151009834462240     
  0.12210000000000000        -0.35967846818138050     
  0.12239999999999999        -0.38920668867095287     
  0.12270000000000002        -0.39758667046908869     
  0.12300000000000001        -0.38559230522306187     
  0.12330000000000001        -0.35610257069401996     
  0.12360000000000000        -0.31107002732265698     
  0.12390000000000000        -0.25206241965897380     
  0.12419999999999999        -0.18232920704124922     
  0.12450000000000001        -0.10766174901464076     
  0.12480000000000001         -3.4391263033127867E-002
  0.12509999999999999          3.4756367744473327E-002
  0.12540000000000001          9.8673138277508787E-002
  0.12570000000000003         0.15424454327137349     
  0.12600000000000000         0.19699671184569945     
  0.12630000000000002         0.22368691928007545     
  0.12659999999999999         0.23550911585040168     
  0.12690000000000001         0.23514470620540884     
  0.12719999999999998         0.22156171031295102     
  0.12750000000000000         0.19386201733211106     
  0.12780000000000002         0.15517518077672143     
  0.12809999999999999         0.11175867950058560     
  0.12840000000000001          6.8301775933960585E-002
  0.12869999999999998          2.5696763122365462E-002
  0.12900000000000000         -1.4060254834932340E-002
  0.12930000000000003         -4.5585798433560989E-002
  0.12959999999999999         -6.4096686098576772E-002
  0.12990000000000002         -7.0456869569935021E-002
  0.13019999999999998         -6.7172020639352459E-002
  0.13050000000000000         -5.4719741777459419E-002
  0.13080000000000003         -3.2956127116277878E-002
  0.13109999999999999         -3.8302141663440481E-003
  0.13140000000000002          2.7566787829112815E-002
  0.13169999999999998          5.7817838739822713E-002
  0.13200000000000001          8.5590394388170177E-002
  0.13229999999999997         0.10998026942651595     
  0.13260000000000000         0.12841896331881841     
  0.13290000000000002         0.13899135754147807     
  0.13319999999999999         0.14112822909394840     
  0.13350000000000001         0.13561394065384658     
  0.13380000000000003         0.12225777209436739     
  0.13410000000000000         0.10137686064379015     
  0.13440000000000002          7.3813752403121713E-002
  0.13469999999999999          4.1138219172274337E-002
  0.13500000000000001          5.1625787888285313E-003
  0.13529999999999998         -3.1862051761197607E-002
  0.13560000000000000         -6.7096002135373700E-002
  0.13590000000000002         -9.8863917903490639E-002
  0.13619999999999999        -0.12516915636030457     
  0.13650000000000001        -0.14367366439604545     
  0.13680000000000003        -0.15266380444101202     
  0.13710000000000000        -0.15224553814534758     
  0.13740000000000002        -0.14389150177741428     
  0.13769999999999999        -0.12851590127921941     
  0.13800000000000001        -0.10649571204255759     
  0.13829999999999998         -8.0366244562362077E-002
  0.13860000000000000         -5.3559843587297928E-002
  0.13890000000000002         -2.8104856497293940E-002
  0.13919999999999999         -4.6763429469420248E-003
  0.13950000000000001          1.5907167264510136E-002
  0.13979999999999998          3.1780974702007789E-002
  0.14010000000000000          4.1665788625955269E-002
  0.14040000000000002          4.6758203473032056E-002
  0.14069999999999999          4.8009516918963158E-002
  0.14100000000000001          4.5155438281430316E-002
  0.14130000000000004          3.7815632379636033E-002
  0.14160000000000000          2.7041268107587668E-002
  0.14189999999999997          1.4787087885356501E-002
  0.14219999999999999          1.7856595265025588E-003
  0.14250000000000002         -1.1671266368189492E-002
  0.14279999999999998         -2.4434919020707491E-002
  0.14310000000000000         -3.4531750794149829E-002
  0.14339999999999997         -4.1151210381330294E-002
  0.14369999999999999         -4.3817221066425160E-002
  0.14400000000000002         -4.2012667612715493E-002
  0.14429999999999998         -3.5414191741947487E-002
  0.14460000000000001         -2.5099806517191736E-002
  0.14490000000000003         -1.2287869905129339E-002
  0.14520000000000000          2.3384854213527317E-003
  0.14550000000000002          1.7832789572786334E-002
  0.14579999999999999          3.2435201871926056E-002
  0.14610000000000001          4.4105512671551939E-002
  0.14640000000000003          5.2742557169570325E-002
  0.14670000000000000          5.8893034019473323E-002
  0.14699999999999996          6.2053090120713472E-002
  0.14729999999999999          6.0942257083395512E-002
  0.14760000000000001          5.6577864173122494E-002
  0.14789999999999998          5.0508133740554406E-002
  0.14820000000000000          4.3262891374948764E-002