  -1.4999999999999999E-002     0.0000000000000000     
  -1.4700000000000000E-002     0.0000000000000000     
  -1.4400000000000000E-002     0.0000000000000000     
  -1.4100000000000000E-002     0.0000000000000000     
  -1.3800000000000000E-002     0.0000000000000000     
  -1.3500000000000000E-002     0.0000000000000000     
  -1.3200000000000000E-002     0.0000000000000000     
  -1.2899999999999998E-002     0.0000000000000000     
  -1.2600000000000000E-002     0.0000000000000000     
  -1.2299999999999998E-002     0.0000000000000000     
  -1.2000000000000000E-002     0.0000000000000000     
  -1.1699999999999999E-002     0.0000000000000000     
  -1.1399999999999999E-002     0.0000000000000000     
  -1.1099999999999999E-002     0.0000000000000000     
  -1.0799999999999999E-002     0.0000000000000000     
  -1.0499999999999999E-002     0.0000000000000000     
  -1.0199999999999999E-002     0.0000000000000000     
  -9.8999999999999991E-003     0.0000000000000000     
  -9.5999999999999992E-003     0.0000000000000000     
  -9.2999999999999992E-003     0.0000000000000000     
  -8.9999999999999993E-003     0.0000000000000000     
  -8.6999999999999994E-003     0.0000000000000000     
  -8.3999999999999995E-003     0.0000000000000000     
  -8.0999999999999996E-003     0.0000000000000000     
  -7.7999999999999988E-003     0.0000000000000000     
  -7.4999999999999997E-003     0.0000000000000000     
  -7.1999999999999998E-003     0.0000000000000000     
  -6.8999999999999981E-003     0.0000000000000000     
  -6.5999999999999982E-003     0.0000000000000000     
  -6.3000000000000000E-003     0.0000000000000000     
  -6.0000000000000001E-003     0.0000000000000000     
  -5.6999999999999985E-003     0.0000000000000000     
  -5.3999999999999986E-003     0.0000000000000000     
  -5.1000000000000004E-003     0.0000000000000000     
  -4.7999999999999987E-003     0.0000000000000000     
  -4.5000000000000005E-003     0.0000000000000000     
  -4.1999999999999989E-003     0.0000000000000000     
  -3.8999999999999990E-003     0.0000000000000000     
  -3.5999999999999990E-003     0.0000000000000000     
  -3.2999999999999991E-003     0.0000000000000000     
  -2.9999999999999992E-003     0.0000000000000000     
  -2.6999999999999993E-003     0.0000000000000000     
  -2.3999999999999994E-003     0.0000000000000000     
  -2.0999999999999977E-003     0.0000000000000000     
  -1.7999999999999995E-003    -7.3196558476779212E-037
  -1.4999999999999979E-003    -2.2670758824387263E-035
  -1.1999999999999997E-003     1.5153025613792740E-034
  -8.9999999999999976E-004    -3.4412691251706029E-034
  -5.9999999999999810E-004     6.3584845016453984E-034
  -2.9999999999999992E-004     1.1106408581194834E-033
   0.0000000000000000         -4.3372793625915738E-034
   3.0000000000000165E-004     2.8743591942489669E-033
   5.9999999999999984E-004    -2.1600819538521060E-032
   9.0000000000000149E-004     4.8449671809854624E-032
   1.2000000000000031E-003    -6.1384209205448280E-032
   1.5000000000000013E-003    -2.9572910553834486E-033
   1.8000000000000030E-003     4.3556114100509984E-031
   2.1000000000000012E-003    -1.6127440189326825E-030
   2.3999999999999994E-003     2.6222736137465536E-030
   2.7000000000000010E-003     6.8028613440844106E-031
   2.9999999999999992E-003    -1.5233601808125403E-029
   3.3000000000000008E-003     4.0417484562741003E-029
   3.6000000000000025E-003    -3.5282503941173916E-029
   3.9000000000000007E-003    -1.0541287457405662E-028
   4.2000000000000023E-003     4.2612331503409921E-028
   4.5000000000000005E-003    -5.4406601297390968E-028
   4.7999999999999987E-003    -5.8735080699152671E-028
   5.1000000000000004E-003     3.7217194098283819E-027
   5.4000000000000020E-003    -6.1402991525019617E-027
   5.7000000000000037E-003    -1.4663574151167594E-027
   5.9999999999999984E-003     2.8350613227753418E-026
   6.3000000000000000E-003    -5.8123474874886277E-026
   6.6000000000000017E-003     2.2684807746766073E-026
   6.9000000000000034E-003     1.6331829229026197E-025
   7.2000000000000015E-003    -4.4957547836714128E-025
   7.5000000000000032E-003     4.4556052148621236E-025
   7.8000000000000014E-003     5.2192945546736644E-025
   8.0999999999999996E-003    -2.6752580714192282E-024
   8.4000000000000012E-003     4.4554082954586578E-024
   8.7000000000000029E-003    -1.7089107594868620E-024
   9.0000000000000011E-003    -1.0478356573655652E-023
   9.2999999999999992E-003     3.0780872894293506E-023
   9.6000000000000009E-003    -3.9715792341308945E-023
   9.8999999999999991E-003    -6.2528775662417621E-024
   1.0200000000000001E-002     1.4714289250241168E-022
   1.0500000000000002E-002    -3.3104427980742167E-022
   1.0800000000000004E-002     3.0009424989149981E-022
   1.1099999999999999E-002     3.6755692768662966E-022
   1.1400000000000000E-002    -1.7873563579680968E-021
   1.1700000000000002E-002     2.8987625701738453E-021
   1.2000000000000004E-002    -1.0756286312289127E-021
   1.2300000000000002E-002    -6.1398393773479129E-021
   1.2600000000000000E-002     1.6399616585403837E-020
   1.2900000000000002E-002    -1.8010004759899603E-020
   1.3200000000000000E-002    -6.5747869377409203E-021
   1.3500000000000002E-002     6.1927135052723840E-020
   1.3800000000000003E-002    -1.1177602437019272E-019
   1.4100000000000001E-002     7.2162939371093498E-020
   1.4400000000000000E-002     1.3252844790019672E-019
   1.4700000000000001E-002    -4.4526827350878601E-019
   1.4999999999999999E-002     5.7525996526543573E-019
   1.5300000000000001E-002    -9.9268239252475461E-020
   1.5600000000000003E-002    -1.1232496468913764E-018
   1.5899999999999997E-002     2.4220079946124165E-018
   1.6199999999999999E-002    -2.2586141810342044E-018
   1.6500000000000001E-002    -8.0205065874851356E-019
   1.6800000000000002E-002     6.3309496544955614E-018
   1.7100000000000004E-002    -1.0811460709943660E-017
   1.7400000000000006E-002     8.4422632343590792E-018
   1.7700000000000000E-002     5.6953006448276559E-018
   1.8000000000000002E-002    -3.0679629302501814E-017
   1.8300000000000004E-002     5.3187729930771931E-017
   1.8600000000000005E-002    -4.2009194589118063E-017
   1.8900000000000000E-002    -4.1997336127856503E-017
   1.9200000000000002E-002     1.9644168413551039E-016
   1.9500000000000003E-002    -2.9763324280285383E-016
   1.9799999999999998E-002     9.6626150343316267E-017
   2.0100000000000000E-002     5.4587943552265763E-016
   2.0400000000000001E-002    -1.2260712973046536E-015
   2.0700000000000003E-002     8.9344548232438929E-016
   2.0999999999999998E-002     1.2084528002435273E-015
   2.1299999999999999E-002    -3.8574380167399717E-015
   2.1600000000000001E-002     3.6028893694970039E-015
   2.1900000000000003E-002     1.8944408555440252E-015
   2.2200000000000004E-002    -9.2034923925661191E-015
   2.2500000000000006E-002     1.0148398302809759E-014
   2.2800000000000001E-002    -6.1322750161487988E-016
   2.3100000000000002E-002    -1.3156910253658317E-014
   2.3400000000000004E-002     1.7461824765004422E-014
   2.3699999999999999E-002     3.6544762170836326E-015
   2.4000000000000000E-002    -2.5130484986816276E-014
   2.4300000000000002E-002    -1.3862171230772519E-013
   2.4599999999999997E-002     6.3080356910161228E-013
   2.4900000000000005E-002    -3.1670190558594213E-013
   2.5200000000000000E-002    -3.5547487262782562E-012
   2.5499999999999995E-002     8.6602929688650576E-012
   2.5800000000000003E-002     1.7817644061557392E-012
   2.6099999999999998E-002    -3.8077877656528258E-011
   2.6400000000000007E-002     4.7939104075300776E-011
   2.6700000000000002E-002     4.5089112998830672E-011
   2.6999999999999996E-002    -1.4965982619852269E-010
   2.7300000000000005E-002     1.3242892893394753E-010
   2.7600000000000000E-002    -3.2029920382647958E-010
   2.7900000000000008E-002     1.3017359412614837E-010
   2.8200000000000003E-002     4.1190988397943329E-009
   2.8499999999999998E-002    -7.9783051276649530E-009
   2.8800000000000006E-002    -1.8752446706571391E-008
   2.9100000000000001E-002     6.0745492191927042E-008
   2.9400000000000003E-002     5.7064507785753449E-008
   2.9700000000000004E-002    -3.4309303487134457E-007
   3.0000000000000006E-002    -1.3853710356670490E-007
   3.0300000000000001E-002     2.5095971523114713E-006
   3.0600000000000002E-002     6.5991612245852593E-006
   3.0900000000000004E-002     1.0930041753454134E-005
   3.1199999999999999E-002     2.1284098693286069E-005
   3.1500000000000007E-002     4.0855895349523053E-005
   3.1800000000000002E-002     5.9822894399985671E-005
   3.2099999999999997E-002     7.7619835792575032E-005
   3.2400000000000005E-002     1.1261984036536887E-004
   3.2700000000000000E-002     1.7014602781273425E-004
   3.3000000000000002E-002     2.4506234331056476E-004
   3.3300000000000003E-002     3.5341287730261683E-004
   3.3599999999999998E-002     5.1568285562098026E-004
   3.3900000000000000E-002     7.3913921369239688E-004
   3.4200000000000001E-002     1.0321870213374496E-003
   3.4500000000000003E-002     1.4031048631295562E-003
   3.4799999999999998E-002     1.8659152556210756E-003
   3.5099999999999999E-002     2.4441175628453493E-003
   3.5400000000000001E-002     3.1356266699731350E-003
   3.5699999999999996E-002     3.9077391847968102E-003
   3.6000000000000004E-002     4.7115813940763474E-003
   3.6299999999999999E-002     5.4533896036446095E-003
   3.6600000000000008E-002     5.9915385209023952E-003
   3.6900000000000002E-002     6.1254212632775307E-003
   3.7199999999999997E-002     5.5481051094830036E-003
   3.7500000000000006E-002     3.8771254476159811E-003
   3.7800000000000000E-002     6.4295908669009805E-004
   3.8100000000000009E-002    -4.7666933387517929E-003
   3.8400000000000004E-002    -1.3033241033554077E-002
   3.8699999999999998E-002    -2.4860283359885216E-002
   3.9000000000000007E-002    -4.0970947593450546E-002
   3.9300000000000002E-002    -6.2016531825065613E-002
   3.9600000000000003E-002    -8.8456027209758759E-002
   3.9900000000000005E-002   -0.12045656144618988     
   4.0200000000000000E-002   -0.15776200592517853     
   4.0500000000000001E-002   -0.19951377809047699     
   4.0800000000000003E-002   -0.24414786696434021     
   4.1100000000000005E-002   -0.28932049870491028     
   4.1399999999999999E-002   -0.33181393146514893     
   4.1700000000000008E-002   -0.36755394935607910     
   4.2000000000000003E-002   -0.39177557826042175     
   4.2299999999999997E-002   -0.39923655986785889     
   4.2600000000000006E-002   -0.38448059558868408     
   4.2900000000000001E-002   -0.34229940176010132     
   4.3200000000000002E-002   -0.26825690269470215     
   4.3500000000000004E-002   -0.15917804837226868     
   4.3799999999999999E-002    -1.3798925094306469E-002
   4.4100000000000000E-002    0.16679677367210388     
   4.4400000000000002E-002    0.37884098291397095     
   4.4700000000000004E-002    0.61566036939620972     
   4.4999999999999998E-002    0.86774080991744995     
   4.5300000000000000E-002     1.1230101585388184     
   4.5600000000000002E-002     1.3673889636993408     
   4.5899999999999996E-002     1.5856468677520752     
   4.6200000000000005E-002     1.7624000310897827     
   4.6500000000000000E-002     1.8832305669784546     
   4.6799999999999994E-002     1.9358948469161987     
   4.7100000000000003E-002     1.9112820625305176     
   4.7399999999999998E-002     1.8043930530548096     
   4.7700000000000006E-002     1.6149876117706299     
   4.8000000000000001E-002     1.3476010560989380     
   4.8300000000000010E-002     1.0115485191345215     
   4.8600000000000004E-002    0.62028944492340088     
   4.8899999999999999E-002    0.19070583581924438     
   4.9200000000000008E-002   -0.25839266180992126     
   4.9500000000000002E-002   -0.70741415023803711     
   4.9800000000000011E-002    -1.1373028755187988     
   5.0100000000000006E-002    -1.5308706760406494     
   5.0400000000000000E-002    -1.8737792968750000     
   5.0700000000000009E-002    -2.1553807258605957     
   5.1000000000000004E-002    -2.3689022064208984     
   5.1299999999999998E-002    -2.5115189552307129     
   5.1600000000000007E-002    -2.5837492942810059     
   5.1900000000000002E-002    -2.5893487930297852     
   5.2200000000000010E-002    -2.5342347621917725     
   5.2500000000000005E-002    -2.4253327846527100     
   5.2800000000000000E-002    -2.2700331211090088     
   5.3099999999999994E-002    -2.0756278038024902     
   5.3400000000000003E-002    -1.8488425016403198     
   5.3699999999999998E-002    -1.5956181287765503     
   5.4000000000000006E-002    -1.3210150003433228     
   5.4300000000000001E-002    -1.0293769836425781     
   5.4599999999999996E-002   -0.72511303424835205     
   5.4900000000000004E-002   -0.41271725296974182     
   5.5199999999999999E-002    -9.7278520464897156E-002
   5.5499999999999994E-002    0.21549734473228455     
   5.5800000000000002E-002    0.51915252208709717     
   5.6099999999999997E-002    0.80636841058731079     
   5.6400000000000006E-002     1.0698007345199585     
   5.6700000000000000E-002     1.3020324707031250     
   5.6999999999999995E-002     1.4963361024856567     
   5.7300000000000004E-002     1.6472754478454590     
   5.7599999999999998E-002     1.7510858774185181     
   5.7900000000000007E-002     1.8060461282730103     
   5.8200000000000002E-002     1.8122277259826660     
   5.8499999999999996E-002     1.7721657752990723     
   5.8800000000000005E-002     1.6905585527420044     
   5.9100000000000000E-002     1.5735319852828979     
   5.9400000000000008E-002     1.4280067682266235     
   5.9700000000000003E-002     1.2614778280258179     
   6.0000000000000012E-002     1.0818173885345459     
   6.0300000000000006E-002    0.89641344547271729     
   6.0600000000000001E-002    0.71108072996139526     
   6.0900000000000010E-002    0.53043979406356812     
   6.1200000000000004E-002    0.35757815837860107     
   6.1500000000000013E-002    0.19422066211700439     
   6.1800000000000008E-002     4.0710605680942535E-002
   6.2100000000000002E-002   -0.10414158552885056     
   6.2399999999999997E-002   -0.24206757545471191     
   6.2700000000000006E-002   -0.37479263544082642     
   6.3000000000000000E-002   -0.50345438718795776     
   6.3300000000000009E-002   -0.62833321094512939     
   6.3600000000000004E-002   -0.74830162525177002     
   6.3899999999999998E-002   -0.86022472381591797     
   6.4199999999999993E-002   -0.95930635929107666     
   6.4500000000000002E-002    -1.0391253232955933     
   6.4800000000000010E-002    -1.0920966863632202     
   6.5100000000000005E-002    -1.1107692718505859     
   6.5400000000000000E-002    -1.0881041288375854     
   6.5700000000000008E-002    -1.0191060304641724     
   6.5999999999999989E-002   -0.90162813663482666     
   6.6299999999999998E-002   -0.73714631795883179     
   6.6600000000000006E-002   -0.53141164779663086     
   6.6900000000000001E-002   -0.29431611299514771     
   6.7199999999999996E-002    -3.9419945329427719E-002
   6.7500000000000004E-002    0.21675543487071991     
   6.7800000000000013E-002    0.45645216107368469     
   6.8099999999999994E-002    0.66182643175125122     
   6.8400000000000002E-002    0.81697666645050049     
   6.8700000000000011E-002    0.90993887186050415     
   6.8999999999999992E-002    0.93327826261520386     
   6.9300000000000000E-002    0.88541537523269653     
   6.9600000000000009E-002    0.77099955081939697     
   6.9900000000000004E-002    0.60031801462173462     
   7.0199999999999999E-002    0.38885438442230225     
   7.0500000000000007E-002    0.15570200979709625     
   7.0800000000000016E-002    -7.8275032341480255E-002
   7.1099999999999997E-002   -0.29180076718330383     
   7.1400000000000005E-002   -0.46523019671440125     
   7.1700000000000000E-002   -0.58225661516189575     
   7.1999999999999995E-002   -0.63076263666152954     
   7.2300000000000003E-002   -0.60388058423995972     
   7.2600000000000012E-002   -0.50067287683486938     
   7.2900000000000006E-002   -0.32522779703140259     
   7.3200000000000001E-002    -8.7092854082584381E-002
   7.3499999999999996E-002    0.19965055584907532     
   7.3800000000000004E-002    0.51777392625808716     
   7.4099999999999999E-002    0.84750539064407349     
   7.4400000000000008E-002     1.1677854061126709     
   7.4700000000000003E-002     1.4572837352752686     
   7.5000000000000011E-002     1.6958436965942383     
   7.5299999999999992E-002     1.8655419349670410     
   7.5600000000000001E-002     1.9514888525009155     
   7.5900000000000009E-002     1.9427337646484375     
   7.6200000000000004E-002     1.8336702585220337     
   7.6499999999999999E-002     1.6238718032836914     
   7.6800000000000007E-002     1.3193248510360718     
   7.7099999999999988E-002    0.93181478977203369     
   7.7399999999999997E-002    0.47871991991996765     
   7.7700000000000005E-002    -1.7480164766311646E-002
   7.8000000000000014E-002   -0.53037708997726440     
   7.8299999999999995E-002    -1.0312728881835938     
   7.8600000000000003E-002    -1.4909980297088623     
   7.8900000000000012E-002    -1.8816103935241699     
   7.9199999999999993E-002    -2.1790251731872559     
   7.9500000000000001E-002    -2.3635206222534180     
   7.9800000000000010E-002    -2.4222042560577393     
   8.0100000000000018E-002    -2.3496763706207275     
   8.0399999999999999E-002    -2.1484155654907227     
   8.0700000000000008E-002    -1.8286353349685669     
   8.1000000000000003E-002    -1.4071592092514038     
   8.1299999999999997E-002   -0.90640592575073242     
   8.1600000000000006E-002   -0.35319510102272034     
   8.1900000000000014E-002    0.22329445183277130     
   8.2199999999999995E-002    0.79350841045379639     
   8.2500000000000004E-002     1.3287713527679443     
   8.2799999999999999E-002     1.8031947612762451     
   8.3100000000000007E-002     2.1933243274688721     
   8.3400000000000002E-002     2.4804275035858154     
   8.3700000000000011E-002     2.6498928070068359     
   8.4000000000000005E-002     2.6914377212524414     
   8.4300000000000000E-002     2.5995173454284668     
   8.4599999999999995E-002     2.3722698688507080     
   8.4900000000000003E-002     2.0122530460357666     
   8.5199999999999998E-002     1.5264915227890015     
   8.5500000000000007E-002    0.92635858058929443     
   8.5800000000000001E-002    0.22779771685600281     
   8.6100000000000010E-002   -0.54806786775588989     
   8.6399999999999991E-002    -1.3753049373626709     
   8.6699999999999999E-002    -2.2233502864837646     
   8.7000000000000008E-002    -3.0573234558105469     
   8.7300000000000003E-002    -3.8394856452941895     
   8.7599999999999997E-002    -4.5307559967041016     
   8.7900000000000006E-002    -5.0930886268615723     
   8.8200000000000014E-002    -5.4915437698364258     
   8.8499999999999995E-002    -5.6973199844360352     
   8.8800000000000004E-002    -5.6898412704467773     
   8.9100000000000013E-002    -5.4592728614807129     
   8.9399999999999993E-002    -5.0075402259826660     
   8.9700000000000002E-002    -4.3492999076843262     
   9.0000000000000011E-002    -3.5116400718688965     
   9.0299999999999991E-002    -2.5322630405426025     
   9.0600000000000000E-002    -1.4575370550155640     
   9.0900000000000009E-002   -0.33947342634201050     
   9.1200000000000017E-002    0.76779001951217651     
   9.1499999999999998E-002     1.8115105628967285     
   9.1800000000000007E-002     2.7452342510223389     
   9.2100000000000001E-002     3.5302228927612305     
   9.2399999999999996E-002     4.1385278701782227     
   9.2700000000000005E-002     4.5545663833618164     
   9.3000000000000013E-002     4.7762169837951660     
   9.3300000000000008E-002     4.8140821456909180     
   9.3600000000000003E-002     4.6898884773254395     
   9.3899999999999997E-002     4.4343023300170898     
   9.4200000000000006E-002     4.0848588943481445     
   9.4500000000000001E-002     3.6834156513214111     
   9.4800000000000009E-002     3.2725830078125000     
   9.5100000000000004E-002     2.8921787738800049     
   9.5399999999999999E-002     2.5766506195068359     
   9.5699999999999993E-002     2.3539352416992188     
   9.6000000000000002E-002     2.2428183555603027     
   9.6300000000000011E-002     2.2514877319335938     
   9.6600000000000005E-002     2.3765130043029785     
   9.6900000000000000E-002     2.6032550334930420     
   9.7200000000000009E-002     2.9074118137359619     
   9.7499999999999989E-002     3.2561442852020264     
   9.7799999999999998E-002     3.6088972091674805     
   9.8100000000000007E-002     3.9208612442016602     
   9.8400000000000015E-002     4.1464939117431641     
   9.8699999999999996E-002     4.2437553405761719     
   9.9000000000000005E-002     4.1756019592285156     
   9.9300000000000013E-002     3.9139378070831299     
   9.9599999999999994E-002     3.4427645206451416     
   9.9900000000000003E-002     2.7606444358825684     
  0.10020000000000001          1.8814301490783691     
  0.10049999999999999         0.83254855871200562     
  0.10080000000000000        -0.34473323822021484     
  0.10110000000000001         -1.5972676277160645     
  0.10140000000000000         -2.8650431632995605     
  0.10170000000000000         -4.0847702026367188     
  0.10200000000000001         -5.1948699951171875     
  0.10230000000000002         -6.1401114463806152     
  0.10260000000000000         -6.8744878768920898     
  0.10290000000000001         -7.3666501045227051     
  0.10320000000000000         -7.6006817817687988     
  0.10350000000000001         -7.5781269073486328     
  0.10380000000000000         -7.3171124458312988     
  0.10410000000000001         -6.8505773544311523     
  0.10440000000000001         -6.2228107452392578     
  0.10470000000000000         -5.4869751930236816     
  0.10500000000000000         -4.7001838684082031     
  0.10530000000000000         -3.9195585250854492     
  0.10560000000000000         -3.1965034008026123     
  0.10590000000000001         -2.5740096569061279     
  0.10620000000000000         -2.0841591358184814     
  0.10650000000000001         -1.7463932037353516     
  0.10679999999999999         -1.5662870407104492     
  0.10710000000000000         -1.5352092981338501     
  0.10740000000000001         -1.6325963735580444     
  0.10770000000000000         -1.8282086849212646     
  0.10800000000000000         -2.0849180221557617     
  0.10830000000000001         -2.3600900173187256     
  0.10859999999999999         -2.6087234020233154     
  0.10890000000000000         -2.7881634235382080     
  0.10920000000000001         -2.8596906661987305     
  0.10950000000000001         -2.7894763946533203     
  0.10979999999999999         -2.5518333911895752     
  0.11009999999999999         -2.1310482025146484     
  0.11040000000000001         -1.5226886272430420     
  0.11070000000000001        -0.73500829935073853     
  0.11100000000000000         0.21119998395442963     
  0.11130000000000000          1.2814154624938965     
  0.11160000000000002          2.4246652126312256     
  0.11190000000000001          3.5786993503570557     
  0.11220000000000001          4.6703629493713379     
  0.11250000000000000          5.6195268630981445     
  0.11280000000000000          6.3433804512023926     
  0.11309999999999999          6.7631421089172363     
  0.11340000000000001          6.8146042823791504     
  0.11369999999999998          6.4546136856079102     
  0.11400000000000000          5.6702661514282227     
  0.11430000000000000          4.4854154586791992     
  0.11460000000000002          2.9650728702545166     
  0.11489999999999999          1.2172813415527344     
  0.11520000000000001        -0.61080318689346313     
  0.11550000000000001         -2.3422133922576904     
  0.11580000000000000         -3.7830488681793213     
  0.11609999999999999         -4.7405633926391602     
  0.11640000000000002         -5.0428519248962402     
  0.11670000000000001         -4.5590467453002930     
  0.11700000000000001         -3.2195012569427490     
  0.11730000000000000         -1.0305154323577881     
  0.11760000000000000          1.9163432121276855     
  0.11789999999999999          5.4448995590209961     
  0.11820000000000001          9.3025150299072266     
  0.11850000000000001          13.175245285034180     
  0.11880000000000000          16.714433670043945     
  0.11910000000000000          19.566223144531250     
  0.11940000000000002          21.406074523925781     
  0.11970000000000001          21.969820022583008     
  0.12000000000000001          21.081478118896484     
  0.12030000000000000          18.676292419433594     
  0.12060000000000000          14.811406135559082     
  0.12089999999999999          9.6664123535156250     
  0.12119999999999999          3.5306739807128906     
  0.12150000000000001         -3.2159426212310791     
  0.12180000000000001         -10.135128974914551     
  0.12210000000000000         -16.762710571289062     
  0.12239999999999999         -22.647907257080078     
  0.12270000000000002         -27.387992858886719     
  0.12300000000000001         -30.661348342895508     
  0.12330000000000001         -32.246685028076172     
  0.12360000000000000         -32.038185119628906     
  0.12390000000000000         -30.051773071289062     
  0.12419999999999999         -26.417200088500977     
  0.12450000000000001         -21.365024566650391     
  0.12480000000000001         -15.203886985778809     
  0.12509999999999999         -8.2993164062500000     
  0.12540000000000001         -1.0464128255844116     
  0.12570000000000003          6.1581244468688965     
  0.12600000000000000          12.937478065490723     
  0.12630000000000002          18.955451965332031     
  0.12659999999999999          23.930971145629883     
  0.12690000000000001          27.649335861206055     
  0.12719999999999998          29.969291687011719     
  0.12750000000000000          30.825973510742188     
  0.12780000000000002          30.225934982299805     
  0.12809999999999999          28.244293212890625     
  0.12840000000000001          25.016738891601562     
  0.12869999999999998          20.731809616088867     
  0.12900000000000000          15.617086410522461     
  0.12930000000000003          9.9249572753906250     
  0.12959999999999999          3.9219028949737549     
  0.12990000000000002         -2.1254904270172119     
  0.13019999999999998         -7.9645943641662598     
  0.13050000000000000         -13.367760658264160     
  0.13080000000000003         -18.143802642822266     
  0.13109999999999999         -22.143812179565430     
  0.13140000000000002         -25.263532638549805     
  0.13169999999999998         -27.445827484130859     
  0.13200000000000001         -28.679550170898438     
  0.13229999999999997         -28.992940902709961     
  0.13260000000000000         -28.446096420288086     
  0.13290000000000002         -27.125789642333984     
  0.13319999999999999         -25.135444641113281     
  0.13350000000000001         -22.586442947387695     
  0.13380000000000003         -19.592210769653320     
  0.13410000000000000         -16.263744354248047     
  0.13440000000000002         -12.704472541809082     
  0.13469999999999999         -9.0101537704467773     
  0.13500000000000001         -5.2647442817687988     
  0.13529999999999998         -1.5434583425521851     
  0.13560000000000000          2.0879285335540771     
  0.13590000000000002          5.5679540634155273     
  0.13619999999999999          8.8415527343750000     
  0.13650000000000001          11.861861228942871     
  0.13680000000000003          14.584671974182129     
  0.13710000000000000          16.969770431518555     
  0.13740000000000002          18.982383728027344     
  0.13769999999999999          20.594024658203125     
  0.13800000000000001          21.784795761108398     
  0.13829999999999998          22.542156219482422     
  0.13860000000000000          22.863355636596680     
  0.13890000000000002          22.756158828735352     
  0.13919999999999999          22.238044738769531     
  0.13950000000000001          21.337217330932617     
  0.13979999999999998          20.090538024902344     
  0.14010000000000000          18.543043136596680     
  0.14040000000000002          16.744163513183594     
  0.14069999999999999          14.745442390441895     
  0.14100000000000001          12.599267959594727     
  0.14130000000000004          10.354798316955566     
  0.14160000000000000          8.0574769973754883     
  0.14189999999999997          5.7472419738769531     
  0.14219999999999999          3.4525032043457031     
  0.14250000000000002          1.1960306167602539     
  0.14279999999999998         -1.0054155588150024     
  0.14310000000000000         -3.1381871700286865     
  0.14339999999999997         -5.1933789253234863     
  0.14369999999999999         -7.1645412445068359     
  0.14400000000000002         -9.0425357818603516     
  0.14429999999999998         -10.812494277954102     
  0.14460000000000001         -12.452391624450684     
  0.14490000000000003         -13.936353683471680     
  0.14520000000000000         -15.235949516296387     
  0.14550000000000002         -16.316280364990234     
  0.14579999999999999         -17.139167785644531     
  0.14610000000000001         -17.668407440185547     
  0.14640000000000003         -17.873760223388672     
  0.14670000000000000         -17.733558654785156     
  0.14699999999999996         -17.236063003540039     
  0.14729999999999999         -16.381605148315430     
  0.14760000000000001         -15.187314987182617     
  0.14789999999999998         -13.683317184448242     
  0.14820000000000000         -11.914671897888184     