  -1.4999999999999999E-002     0.0000000000000000     
  -1.4700000000000000E-002     0.0000000000000000     
  -1.4400000000000000E-002     0.0000000000000000     
  -1.4100000000000000E-002     0.0000000000000000     
  -1.3800000000000000E-002     0.0000000000000000     
  -1.3500000000000000E-002     0.0000000000000000     
  -1.3200000000000000E-002     0.0000000000000000     
  -1.2899999999999998E-002     0.0000000000000000     
  -1.2600000000000000E-002     0.0000000000000000     
  -1.2299999999999998E-002     0.0000000000000000     
  -1.2000000000000000E-002     0.0000000000000000     
  -1.1699999999999999E-002     0.0000000000000000     
  -1.1399999999999999E-002     0.0000000000000000     
  -1.1099999999999999E-002     0.0000000000000000     
  -1.0799999999999999E-002     0.0000000000000000     
  -1.0499999999999999E-002     0.0000000000000000     
  -1.0199999999999999E-002     0.0000000000000000     
  -9.8999999999999991E-003     0.0000000000000000     
  -9.5999999999999992E-003     0.0000000000000000     
  -9.2999999999999992E-003     0.0000000000000000     
  -8.9999999999999993E-003     0.0000000000000000     
  -8.6999999999999994E-003     0.0000000000000000     
  -8.3999999999999995E-003     0.0000000000000000     
  -8.0999999999999996E-003     0.0000000000000000     
  -7.7999999999999988E-003     0.0000000000000000     
  -7.4999999999999997E-003     0.0000000000000000     
  -7.1999999999999998E-003     0.0000000000000000     
  -6.8999999999999981E-003     0.0000000000000000     
  -6.5999999999999982E-003     0.0000000000000000     
  -6.3000000000000000E-003     0.0000000000000000     
  -6.0000000000000001E-003     0.0000000000000000     
  -5.6999999999999985E-003     0.0000000000000000     
  -5.3999999999999986E-003     0.0000000000000000     
  -5.1000000000000004E-003     0.0000000000000000     
  -4.7999999999999987E-003     0.0000000000000000     
  -4.5000000000000005E-003     0.0000000000000000     
  -4.1999999999999989E-003     0.0000000000000000     
  -3.8999999999999990E-003     0.0000000000000000     
  -3.5999999999999990E-003     0.0000000000000000     
  -3.2999999999999991E-003     0.0000000000000000     
  -2.9999999999999992E-003     0.0000000000000000     
  -2.6999999999999993E-003     0.0000000000000000     
  -2.3999999999999994E-003     0.0000000000000000     
  -2.0999999999999977E-003     0.0000000000000000     
  -1.7999999999999995E-003     0.0000000000000000     
  -1.4999999999999979E-003     0.0000000000000000     
  -1.1999999999999997E-003     0.0000000000000000     
  -8.9999999999999976E-004     0.0000000000000000     
  -5.9999999999999810E-004     0.0000000000000000     
  -2.9999999999999992E-004     0.0000000000000000     
   0.0000000000000000          0.0000000000000000     
   3.0000000000000165E-004     0.0000000000000000     
   5.9999999999999984E-004     0.0000000000000000     
   9.0000000000000149E-004     0.0000000000000000     
   1.2000000000000031E-003     0.0000000000000000     
   1.5000000000000013E-003     0.0000000000000000     
   1.8000000000000030E-003     0.0000000000000000     
   2.1000000000000012E-003     0.0000000000000000     
   2.3999999999999994E-003     0.0000000000000000     
   2.7000000000000010E-003     0.0000000000000000     
   2.9999999999999992E-003     0.0000000000000000     
   3.3000000000000008E-003     0.0000000000000000     
   3.6000000000000025E-003     0.0000000000000000     
   3.9000000000000007E-003     0.0000000000000000     
   4.2000000000000023E-003     0.0000000000000000     
   4.5000000000000005E-003     0.0000000000000000     
   4.7999999999999987E-003     0.0000000000000000     
   5.1000000000000004E-003     0.0000000000000000     
   5.4000000000000020E-003     0.0000000000000000     
   5.7000000000000037E-003     0.0000000000000000     
   5.9999999999999984E-003     0.0000000000000000     
   6.3000000000000000E-003     0.0000000000000000     
   6.6000000000000017E-003     0.0000000000000000     
   6.9000000000000034E-003     0.0000000000000000     
   7.2000000000000015E-003     0.0000000000000000     
   7.5000000000000032E-003     0.0000000000000000     
   7.8000000000000014E-003     0.0000000000000000     
   8.0999999999999996E-003     0.0000000000000000     
   8.4000000000000012E-003     0.0000000000000000     
   8.7000000000000029E-003     0.0000000000000000     
   9.0000000000000011E-003     0.0000000000000000     
   9.2999999999999992E-003     0.0000000000000000     
   9.6000000000000009E-003     0.0000000000000000     
   9.8999999999999991E-003     0.0000000000000000     
   1.0200000000000001E-002     0.0000000000000000     
   1.0500000000000002E-002     0.0000000000000000     
   1.0800000000000004E-002     0.0000000000000000     
   1.1099999999999999E-002     0.0000000000000000     
   1.1400000000000000E-002     0.0000000000000000     
   1.1700000000000002E-002     0.0000000000000000     
   1.2000000000000004E-002     0.0000000000000000     
   1.2300000000000002E-002     0.0000000000000000     
   1.2600000000000000E-002     0.0000000000000000     
   1.2900000000000002E-002     0.0000000000000000     
   1.3200000000000000E-002     0.0000000000000000     
   1.3500000000000002E-002     0.0000000000000000     
   1.3800000000000003E-002     0.0000000000000000     
   1.4100000000000001E-002     0.0000000000000000     
   1.4400000000000000E-002     0.0000000000000000     
   1.4700000000000001E-002     0.0000000000000000     
   1.4999999999999999E-002     0.0000000000000000     
   1.5300000000000001E-002     0.0000000000000000     
   1.5600000000000003E-002     0.0000000000000000     
   1.5899999999999997E-002     0.0000000000000000     
   1.6199999999999999E-002     0.0000000000000000     
   1.6500000000000001E-002     0.0000000000000000     
   1.6800000000000002E-002     0.0000000000000000     
   1.7100000000000004E-002     0.0000000000000000     
   1.7400000000000006E-002     0.0000000000000000     
   1.7700000000000000E-002     0.0000000000000000     
   1.8000000000000002E-002     0.0000000000000000     
   1.8300000000000004E-002     0.0000000000000000     
   1.8600000000000005E-002     0.0000000000000000     
   1.8900000000000000E-002     0.0000000000000000     
   1.9200000000000002E-002     0.0000000000000000     
   1.9500000000000003E-002     0.0000000000000000     
   1.9799999999999998E-002     0.0000000000000000     
   2.0100000000000000E-002     0.0000000000000000     
   2.0400000000000001E-002     0.0000000000000000     
   2.0700000000000003E-002     0.0000000000000000     
   2.0999999999999998E-002     0.0000000000000000     
   2.1299999999999999E-002     0.0000000000000000     
   2.1600000000000001E-002     0.0000000000000000     
   2.1900000000000003E-002     0.0000000000000000     
   2.2200000000000004E-002     0.0000000000000000     
   2.2500000000000006E-002     0.0000000000000000     
   2.2800000000000001E-002     0.0000000000000000     
   2.3100000000000002E-002     0.0000000000000000     
   2.3400000000000004E-002     0.0000000000000000     
   2.3699999999999999E-002     0.0000000000000000     
   2.4000000000000000E-002     0.0000000000000000     
   2.4300000000000002E-002     0.0000000000000000     
   2.4599999999999997E-002     0.0000000000000000     
   2.4900000000000005E-002     0.0000000000000000     
   2.5200000000000000E-002     0.0000000000000000     
   2.5499999999999995E-002     0.0000000000000000     
   2.5800000000000003E-002     0.0000000000000000     
   2.6099999999999998E-002     0.0000000000000000     
   2.6400000000000007E-002     0.0000000000000000     
   2.6700000000000002E-002     0.0000000000000000     
   2.6999999999999996E-002     0.0000000000000000     
   2.7300000000000005E-002     0.0000000000000000     
   2.7600000000000000E-002     0.0000000000000000     
   2.7900000000000008E-002     0.0000000000000000     
   2.8200000000000003E-002     0.0000000000000000     
   2.8499999999999998E-002     0.0000000000000000     
   2.8800000000000006E-002     0.0000000000000000     
   2.9100000000000001E-002     0.0000000000000000     
   2.9400000000000003E-002     0.0000000000000000     
   2.9700000000000004E-002     0.0000000000000000     
   3.0000000000000006E-002     0.0000000000000000     
   3.0300000000000001E-002     0.0000000000000000     
   3.0600000000000002E-002     0.0000000000000000     
   3.0900000000000004E-002     0.0000000000000000     
   3.1199999999999999E-002     0.0000000000000000     
   3.1500000000000007E-002     0.0000000000000000     
   3.1800000000000002E-002     0.0000000000000000     
   3.2099999999999997E-002     0.0000000000000000     
   3.2400000000000005E-002     0.0000000000000000     
   3.2700000000000000E-002     0.0000000000000000     
   3.3000000000000002E-002     0.0000000000000000     
   3.3300000000000003E-002     0.0000000000000000     
   3.3599999999999998E-002     0.0000000000000000     
   3.3900000000000000E-002     0.0000000000000000     
   3.4200000000000001E-002     0.0000000000000000     
   3.4500000000000003E-002     0.0000000000000000     
   3.4799999999999998E-002     0.0000000000000000     
   3.5099999999999999E-002     0.0000000000000000     
   3.5400000000000001E-002     0.0000000000000000     
   3.5699999999999996E-002     0.0000000000000000     
   3.6000000000000004E-002     0.0000000000000000     
   3.6299999999999999E-002     0.0000000000000000     
   3.6600000000000008E-002     0.0000000000000000     
   3.6900000000000002E-002     0.0000000000000000     
   3.7199999999999997E-002     0.0000000000000000     
   3.7500000000000006E-002     0.0000000000000000     
   3.7800000000000000E-002     0.0000000000000000     
   3.8100000000000009E-002    -2.4470869827635039E-038
   3.8400000000000004E-002     1.1534179444906983E-037
   3.8699999999999998E-002    -2.2052946093457344E-036
   3.9000000000000007E-002     6.8184112592127773E-036
   3.9300000000000002E-002     1.1624625499397067E-034
   3.9600000000000003E-002    -1.0067505978296270E-033
   3.9900000000000005E-002     2.6564660332484374E-033
   4.0200000000000000E-002    -5.5622189886533240E-033
   4.0500000000000001E-002     1.8241325525871419E-032
   4.0800000000000003E-002    -6.5930773403064308E-032
   4.1100000000000005E-002     2.2557625372982927E-031
   4.1399999999999999E-002    -7.2008408462094856E-031
   4.1700000000000008E-002     2.1185202677567432E-030
   4.2000000000000003E-002    -5.5928607759705277E-030
   4.2299999999999997E-002     1.2546259294937067E-029
   4.2600000000000006E-002    -2.0045064002438706E-029
   4.2900000000000001E-002    -2.3289885652358452E-030
   4.3200000000000002E-002     2.0714693320616860E-028
   4.3500000000000004E-002    -1.2248392427816293E-027
   4.3799999999999999E-002     5.4676166476784321E-027
   4.4100000000000000E-002    -2.1939325470876498E-026
   4.4400000000000002E-002     8.4222800147602958E-026
   4.4700000000000004E-002    -3.1794336775039122E-025
   4.4999999999999998E-002     1.1896726956369072E-024
   4.5300000000000000E-002    -4.3920570187716567E-024
   4.5600000000000002E-002     1.5819712687593039E-023
   4.5899999999999996E-002    -5.4831843353611331E-023
   4.6200000000000005E-002     1.8012598658090387E-022
   4.6500000000000000E-002    -5.5049172742014082E-022
   4.6799999999999994E-002     1.5208451149877945E-021
   4.7100000000000003E-002    -3.5797109316644659E-021
   4.7399999999999998E-002     5.9567282587094815E-021
   4.7700000000000006E-002     1.0299569291455274E-021
   4.8000000000000001E-002    -6.6654900734121531E-020
   4.8300000000000010E-002     3.7991859243993808E-019
   4.8600000000000004E-002    -1.5338362680861492E-018
   4.8899999999999999E-002     5.0226008988397324E-018
   4.9200000000000008E-002    -1.3435496604426823E-017
   4.9500000000000002E-002     2.6902000375113357E-017
   4.9800000000000011E-002    -2.3221404658403018E-017
   5.0100000000000006E-002    -1.0910013632031424E-016
   5.0400000000000000E-002     7.1990840439949284E-016
   5.0700000000000009E-002    -2.5184046558569325E-015
   5.1000000000000004E-002     5.8561145323510867E-015
   5.1299999999999998E-002    -6.5455379284621897E-015
   5.1600000000000007E-002    -1.6112684053431269E-014
   5.1900000000000002E-002     1.1491820857148365E-013
   5.2200000000000010E-002    -3.4145348381594830E-013
   5.2500000000000005E-002     4.9573293759540449E-013
   5.2800000000000000E-002     5.4164909605942557E-013
   5.3099999999999994E-002    -5.2761566671371496E-012
   5.3400000000000003E-002     1.4193531867865162E-011
   5.3699999999999998E-002    -1.1296731264903850E-011
   5.4000000000000006E-002    -5.5853672947713927E-011
   5.4300000000000001E-002     2.3156963367881677E-010
   5.4599999999999996E-002    -2.8925869516394468E-010
   5.4900000000000004E-002    -6.4269095644060141E-010
   5.5199999999999999E-002     3.2031146903272617E-009
   5.5499999999999994E-002    -3.3260246334201786E-009
   5.5800000000000002E-002    -1.1180517505278388E-008
   5.6099999999999997E-002     3.8013093212770816E-008
   5.6400000000000006E-002    -4.1575576628413821E-010
   5.6700000000000000E-002    -1.9720425631391229E-007
   5.6999999999999995E-002     2.1285664952874579E-007
   5.7300000000000004E-002     7.7441161972755350E-007
   5.7599999999999998E-002    -1.5656534676231960E-006
   5.7900000000000007E-002    -3.4131914529073634E-006
   5.8200000000000002E-002     1.0244781643769667E-005
   5.8499999999999996E-002     4.4700147133119221E-005
   5.8800000000000005E-002     7.9164430690915714E-005
   5.9100000000000000E-002     9.5913071958477359E-005
   5.9400000000000008E-002     1.1266046817316310E-004
   5.9700000000000003E-002     1.6436512585086410E-004
   6.0000000000000012E-002     2.6681088206537834E-004
   6.0300000000000006E-002     4.1705095355700807E-004
   6.0600000000000001E-002     6.2427650735987286E-004
   6.0900000000000010E-002     9.1928134318745511E-004
   6.1200000000000004E-002     1.3344582794945700E-003
   6.1500000000000013E-002     1.9077396407127870E-003
   6.1800000000000008E-002     2.6950661970569778E-003
   6.2100000000000002E-002     3.7444721154592520E-003
   6.2399999999999997E-002     5.0955200071892970E-003
   6.2700000000000006E-002     6.8083995401504172E-003
   6.3000000000000000E-002     8.9311158616264819E-003
   6.3300000000000009E-002     1.1465719077872860E-002
   6.3600000000000004E-002     1.4385732189748091E-002
   6.3899999999999998E-002     1.7611343641293020E-002
   6.4199999999999993E-002     2.0963247187402057E-002
   6.4500000000000002E-002     2.4155255418210841E-002
   6.4800000000000010E-002     2.6772074511349220E-002
   6.5100000000000005E-002     2.8241053461382060E-002
   6.5400000000000000E-002     2.7823236580460375E-002
   6.5700000000000008E-002     2.4608697587233275E-002
   6.5999999999999989E-002     1.7557693363636551E-002
   6.6299999999999998E-002     5.5768111066818171E-003
   6.6600000000000006E-002    -1.2412268488205869E-002
   6.6900000000000001E-002    -3.7355972793908343E-002
   6.7199999999999996E-002    -6.9902546430163248E-002
   6.7500000000000004E-002   -0.11021472082351425     
   6.7800000000000013E-002   -0.15777373948338447     
   6.8099999999999994E-002   -0.21121270712559070     
   6.8400000000000002E-002   -0.26816651078040010     
   6.8700000000000011E-002   -0.32517650901173312     
   6.8999999999999992E-002   -0.37773036163713591     
   6.9300000000000000E-002   -0.42043240430925621     
   6.9600000000000009E-002   -0.44722134475206410     
   6.9900000000000004E-002   -0.45178286979081328     
   7.0199999999999999E-002   -0.42808932929313670     
   7.0500000000000007E-002   -0.37109804802924096     
   7.0800000000000016E-002   -0.27735608193973160     
   7.1099999999999997E-002   -0.14562518967468752     
   7.1400000000000005E-002     2.2531003576390873E-002
   7.1700000000000000E-002    0.22239790055391850     
   7.1999999999999995E-002    0.44599349347160810     
   7.2300000000000003E-002    0.68232063618309979     
   7.2600000000000012E-002    0.91786076044043696     
   7.2900000000000006E-002     1.1373788413540353     
   7.3200000000000001E-002     1.3250709957055662     
   7.3499999999999996E-002     1.4657476660762541     
   7.3800000000000004E-002     1.5462107445553102     
   7.4099999999999999E-002     1.5565051171429687     
   7.4400000000000008E-002     1.4909207677444556     
   7.4700000000000003E-002     1.3487913106071332     
   7.5000000000000011E-002     1.1347339033109236     
   7.5299999999999992E-002    0.85857293521812394     
   7.5600000000000001E-002    0.53473519986157303     
   7.5900000000000009E-002    0.18112543605908016     
   7.6200000000000004E-002   -0.18203131642846415     
   7.6499999999999999E-002   -0.53393970457835671     
   7.6800000000000007E-002   -0.85469649506162426     
   7.7099999999999988E-002    -1.1268534993690409     
   7.7399999999999997E-002    -1.3368312774274926     
   7.7700000000000005E-002    -1.4757524115603786     
   7.8000000000000014E-002    -1.5399160460496404     
   7.8299999999999995E-002    -1.5312357729718542     
   7.8600000000000003E-002    -1.4565699394521019     
   7.8900000000000012E-002    -1.3270049722467476     
   7.9199999999999993E-002    -1.1571296452981201     
   7.9500000000000001E-002   -0.96334137677564868     
   7.9800000000000010E-002   -0.76269139253982843     
   8.0100000000000018E-002   -0.57163287705918897     
   8.0399999999999999E-002   -0.40437893393706936     
   8.0700000000000008E-002   -0.27217941294058878     
   8.1000000000000003E-002   -0.18264651942863708     
   8.1299999999999997E-002   -0.13888460038994932     
   8.1600000000000006E-002   -0.13982702133103775     
   8.1900000000000014E-002   -0.18038490555868503     
   8.2199999999999995E-002   -0.25179859434872398     
   8.2500000000000004E-002   -0.34275375241091233     
   8.2799999999999999E-002   -0.44024536159109218     
   8.3100000000000007E-002   -0.53051699975967281     
   8.3400000000000002E-002   -0.60050604186191592     
   8.3700000000000011E-002   -0.63865662141677149     
   8.4000000000000005E-002   -0.63580446965673332     
   8.4300000000000000E-002   -0.58617302173879260     
   8.4599999999999995E-002   -0.48743765353969692     
   8.4900000000000003E-002   -0.34106410358618167     
   8.5199999999999998E-002   -0.15245264288153315     
   8.5500000000000007E-002     7.0060152849402479E-002
   8.5800000000000001E-002    0.31519638963104057     
   8.6100000000000010E-002    0.56977333761609117     
   8.6399999999999991E-002    0.81997761792398549     
   8.6699999999999999E-002     1.0516211468884649     
   8.7000000000000008E-002     1.2516658100182596     
   8.7300000000000003E-002     1.4090615900098129     
   8.7599999999999997E-002     1.5149001099903856     
   8.7900000000000006E-002     1.5636909030489932     
   8.8200000000000014E-002     1.5532363176276718     
   8.8499999999999995E-002     1.4844751873948283     
   8.8800000000000004E-002     1.3620929665157888     
   8.9100000000000013E-002     1.1934540238529578     
   8.9399999999999993E-002    0.98809044914403188     
   8.9700000000000002E-002    0.75765985950101999     
   9.0000000000000011E-002    0.51453556038819492     
   9.0299999999999991E-002    0.27128620658599822     
   9.0600000000000000E-002     4.0195054129884333E-002
   9.0900000000000009E-002   -0.16803279158167328     
   9.1200000000000017E-002   -0.34442585243400714     
   9.1499999999999998E-002   -0.48209693726311720     
   9.1800000000000007E-002   -0.57709084652327647     
   9.2100000000000001E-002   -0.62804331764331423     
   9.2399999999999996E-002   -0.63623035227040248     
   9.2700000000000005E-002   -0.60569601064608136     
   9.3000000000000013E-002   -0.54253211094923515     
   9.3300000000000008E-002   -0.45461251979859618     
   9.3600000000000003E-002   -0.35096106279143768     
   9.3899999999999997E-002   -0.24096523448678564     
   9.4200000000000006E-002   -0.13399173805615594     
   9.4500000000000001E-002    -3.8425866853915469E-002
   9.4800000000000009E-002     3.8795218912025975E-002
   9.5100000000000004E-002     9.2512568624835811E-002
   9.5399999999999999E-002    0.12004323236195003     
   9.5699999999999993E-002    0.12102050444566759     
   9.6000000000000002E-002     9.7344024161429954E-002
   9.6300000000000011E-002     5.3202960968599999E-002
   9.6600000000000005E-002    -5.6353759314006768E-003
   9.6900000000000000E-002    -7.2231442792528355E-002
   9.7200000000000009E-002   -0.13903131735247598     
   9.7499999999999989E-002   -0.19881545072729168     
   9.7799999999999998E-002   -0.24512557626634468     
   9.8100000000000007E-002   -0.27289451173607837     
   9.8400000000000015E-002   -0.27917781763863836     
   9.8699999999999996E-002   -0.26297510575260397     
   9.9000000000000005E-002   -0.22548034140471884     
   9.9300000000000013E-002   -0.17030793752806161     
   9.9599999999999994E-002   -0.10259303235022149     
   9.9900000000000003E-002    -2.8757393788306329E-002
  0.10020000000000001          4.3883711939293857E-002
  0.10049999999999999         0.10825624967601311     
  0.10080000000000000         0.15792671393212387     
  0.10110000000000001         0.18767917232289655     
  0.10140000000000000         0.19429185254329440     
  0.10170000000000000         0.17654013968412219     
  0.10200000000000001         0.13553286099245510     
  0.10230000000000002          7.4641968466497621E-002
  0.10260000000000000         -1.0593751547562924E-003
  0.10290000000000001         -8.4960420982419738E-002
  0.10320000000000000        -0.16974142673177184     
  0.10350000000000001        -0.24825701269010025     
  0.10380000000000000        -0.31375858203161577     
  0.10410000000000001        -0.36096691215313470     
  0.10440000000000001        -0.38662570971159305     
  0.10470000000000000        -0.38935866682983722     
  0.10500000000000000        -0.37022496882257094     
  0.10530000000000000        -0.33249362971551033     
  0.10560000000000000        -0.28100925024694590     
  0.10590000000000001        -0.22201153498073589     
  0.10620000000000000        -0.16214325158579523     
  0.10650000000000001        -0.10783978394315730     
  0.10679999999999999         -6.4805806420180634E-002
  0.10710000000000000         -3.6894229791889055E-002
  0.10740000000000001         -2.6176316995652704E-002
  0.10770000000000000         -3.2591887375403750E-002
  0.10800000000000000         -5.3506003286626136E-002
  0.10830000000000001         -8.4486134410848290E-002
  0.10859999999999999        -0.11964044256283612     
  0.10890000000000000        -0.15173308710109268     
  0.10920000000000001        -0.17347807331337517     
  0.10950000000000001        -0.17803844067463981     
  0.10979999999999999        -0.15953607928616531     
  0.11009999999999999        -0.11407335115876727     
  0.11040000000000001         -3.9897122215835745E-002
  0.11070000000000001          6.2241361577482390E-002
  0.11100000000000000         0.18892626184920580     
  0.11130000000000000         0.33444931913796161     
  0.11160000000000002         0.49097376531628356     
  0.11190000000000001         0.64909859539027082     
  0.11220000000000001         0.79886295614235436     
  0.11250000000000000         0.93004206749245810     
  0.11280000000000000          1.0332471112982304     
  0.11309999999999999          1.1008597899471297     
  0.11340000000000001          1.1272200623329951     
  0.11369999999999998          1.1093635656818712     
  0.11400000000000000          1.0472961291650478     
  0.11430000000000000         0.94369111409173456     
  0.11460000000000002         0.80399579707449575     
  0.11489999999999999         0.63554473290915148     
  0.11520000000000001         0.44694562027745244     
  0.11550000000000001         0.24770760717428342     
  0.11580000000000000          4.6817946838643820E-002
  0.11609999999999999        -0.14773497362943822     
  0.11640000000000002        -0.32930516394254461     
  0.11670000000000001        -0.49322696062106886     
  0.11700000000000001        -0.63688293253249029     
  0.11730000000000000        -0.75933747540000596     
  0.11760000000000000        -0.86113792690796842     
  0.11789999999999999        -0.94373333826673900     
  0.11820000000000001         -1.0087626034081332     
  0.11850000000000001         -1.0575043518883973     
  0.11880000000000000         -1.0905153309381035     
  0.11910000000000000         -1.1072447984366818     
  0.11940000000000002         -1.1059967234896106     
  0.11970000000000001         -1.0841669537687721     
  0.12000000000000001         -1.0386920022761359     
  0.12030000000000000        -0.96660397096998096     
  0.12060000000000000        -0.86564924269737986     
  0.12089999999999999        -0.73494331174788741     
  0.12119999999999999        -0.57552695594791192     
  0.12150000000000001        -0.39056971251612360     
  0.12180000000000001        -0.18541978991163433     
  0.12210000000000000          3.2510261701865772E-002
  0.12239999999999999         0.25447586652070253     
  0.12270000000000002         0.47073640850340404     
  0.12300000000000001         0.67170392001444412     
  0.12330000000000001         0.84868725043493498     
  0.12360000000000000         0.99422867329305831     
  0.12390000000000000          1.1033211849478803     
  0.12419999999999999          1.1733186184476949     
  0.12450000000000001          1.2037974661770363     
  0.12480000000000001          1.1969629819503851     
  0.12509999999999999          1.1565792312821976     
  0.12540000000000001          1.0875075828746397     
  0.12570000000000003         0.99541664385483131     
  0.12600000000000000         0.88540893905892304     
  0.12630000000000002         0.76192906660031312     
  0.12659999999999999         0.62853977609517919     
  0.12690000000000001         0.48711765056007916     
  0.12719999999999998         0.33855028189321601     
  0.12750000000000000         0.18284531134436754     
  0.12780000000000002          1.9333620872390878E-002
  0.12809999999999999        -0.15238129930055866     
  0.12840000000000001        -0.33201288800680651     
  0.12869999999999998        -0.51837654929599530     
  0.12900000000000000        -0.70861753656302540     
  0.12930000000000003        -0.89833131521564269     
  0.12959999999999999         -1.0815998194016458     
  0.12990000000000002         -1.2511620577862317     
  0.13019999999999998         -1.3991056001164850     
  0.13050000000000000         -1.5169909223239131     
  0.13080000000000003         -1.5968574429991520     
  0.13109999999999999         -1.6319484630947585     
  0.13140000000000002         -1.6167468810312471     
  0.13169999999999998         -1.5479342891441519     
  0.13200000000000001         -1.4247763870394614     
  0.13229999999999997         -1.2488366678232303     
  0.13260000000000000         -1.0244769985835571     
  0.13290000000000002        -0.75856874282750164     
  0.13319999999999999        -0.46018666810211517     
  0.13350000000000001        -0.14051135379447643     
  0.13380000000000003         0.18799699454755681     
  0.13410000000000000         0.51175961648790391     
  0.13440000000000002         0.81673674265535112     
  0.13469999999999999          1.0893326777973300     
  0.13500000000000001          1.3165814581245812     
  0.13529999999999998          1.4871535248865655     
  0.13560000000000000          1.5920563992238428     
  0.13590000000000002          1.6247390942656850     
  0.13619999999999999          1.5821668220503469     
  0.13650000000000001          1.4648857463796752     
  0.13680000000000003          1.2772543725914680     
  0.13710000000000000          1.0278544862706767     
  0.13740000000000002         0.72864330300464597     
  0.13769999999999999         0.39497587533490375     
  0.13800000000000001          4.5144918567137537E-002
  0.13829999999999998        -0.30126430611578314     
  0.13860000000000000        -0.62372542015137000     
  0.13890000000000002        -0.90213021801111282     
  0.13919999999999999         -1.1186056231655144     
  0.13950000000000001         -1.2581024604546442     
  0.13979999999999998         -1.3097050479492225     
  0.14010000000000000         -1.2679810233160786     
  0.14040000000000002         -1.1329646336852335     
  0.14069999999999999        -0.91083436763444237     
  0.14100000000000001        -0.61366108645160278     
  0.14130000000000004        -0.25850667796151328     
  0.14160000000000000         0.13312449276674587     
  0.14189999999999997         0.53702185805926916     
  0.14219999999999999         0.92791780205435259     
  0.14250000000000002          1.2810103663545647     
  0.14279999999999998          1.5739436908107223     
  0.14310000000000000          1.7883097569533817     
  0.14339999999999997          1.9108547377522171     
  0.14369999999999999          1.9346768577140807     
  0.14400000000000002          1.8593930540108374     
  0.14429999999999998          1.6910114020982050     
  0.14460000000000001          1.4416128565001678     
  0.14490000000000003          1.1281494733088859     
  0.14520000000000000         0.77113382122467033     
  0.14550000000000002         0.39311380689731656     
  0.14579999999999999          1.6986438386364711E-002
  0.14610000000000001        -0.33546302642683479     
  0.14640000000000003        -0.64513040154670165     
  0.14670000000000000        -0.89637377157763609     
  0.14699999999999996         -1.0779084337913787     
  0.14729999999999999         -1.1833259149047137     
  0.14760000000000001         -1.2108433874944140     
  0.14789999999999998         -1.1630197553755011     
  0.14820000000000000         -1.0465770321114007     