  -1.4999999999999999E-002     0.0000000000000000     
  -1.4700000000000000E-002     0.0000000000000000     
  -1.4400000000000000E-002     0.0000000000000000     
  -1.4100000000000000E-002     0.0000000000000000     
  -1.3800000000000000E-002     0.0000000000000000     
  -1.3500000000000000E-002     0.0000000000000000     
  -1.3200000000000000E-002     0.0000000000000000     
  -1.2899999999999998E-002     0.0000000000000000     
  -1.2600000000000000E-002     0.0000000000000000     
  -1.2299999999999998E-002     0.0000000000000000     
  -1.2000000000000000E-002     0.0000000000000000     
  -1.1699999999999999E-002     0.0000000000000000     
  -1.1399999999999999E-002     0.0000000000000000     
  -1.1099999999999999E-002     0.0000000000000000     
  -1.0799999999999999E-002     0.0000000000000000     
  -1.0499999999999999E-002     0.0000000000000000     
  -1.0199999999999999E-002     0.0000000000000000     
  -9.8999999999999991E-003     0.0000000000000000     
  -9.5999999999999992E-003     0.0000000000000000     
  -9.2999999999999992E-003     0.0000000000000000     
  -8.9999999999999993E-003     0.0000000000000000     
  -8.6999999999999994E-003     0.0000000000000000     
  -8.3999999999999995E-003     0.0000000000000000     
  -8.0999999999999996E-003     0.0000000000000000     
  -7.7999999999999988E-003     0.0000000000000000     
  -7.4999999999999997E-003     0.0000000000000000     
  -7.1999999999999998E-003     0.0000000000000000     
  -6.8999999999999981E-003     0.0000000000000000     
  -6.5999999999999982E-003     0.0000000000000000     
  -6.3000000000000000E-003     0.0000000000000000     
  -6.0000000000000001E-003     0.0000000000000000     
  -5.6999999999999985E-003     0.0000000000000000     
  -5.3999999999999986E-003     0.0000000000000000     
  -5.1000000000000004E-003     0.0000000000000000     
  -4.7999999999999987E-003     0.0000000000000000     
  -4.5000000000000005E-003     0.0000000000000000     
  -4.1999999999999989E-003     0.0000000000000000     
  -3.8999999999999990E-003     0.0000000000000000     
  -3.5999999999999990E-003     0.0000000000000000     
  -3.2999999999999991E-003     0.0000000000000000     
  -2.9999999999999992E-003     0.0000000000000000     
  -2.6999999999999993E-003     0.0000000000000000     
  -2.3999999999999994E-003     0.0000000000000000     
  -2.0999999999999977E-003     0.0000000000000000     
  -1.7999999999999995E-003     0.0000000000000000     
  -1.4999999999999979E-003     0.0000000000000000     
  -1.1999999999999997E-003     0.0000000000000000     
  -8.9999999999999976E-004     0.0000000000000000     
  -5.9999999999999810E-004     0.0000000000000000     
  -2.9999999999999992E-004     0.0000000000000000     
   0.0000000000000000          0.0000000000000000     
   3.0000000000000165E-004     0.0000000000000000     
   5.9999999999999984E-004     0.0000000000000000     
   9.0000000000000149E-004     0.0000000000000000     
   1.2000000000000031E-003     0.0000000000000000     
   1.5000000000000013E-003     0.0000000000000000     
   1.8000000000000030E-003     0.0000000000000000     
   2.1000000000000012E-003     0.0000000000000000     
   2.3999999999999994E-003     0.0000000000000000     
   2.7000000000000010E-003     0.0000000000000000     
   2.9999999999999992E-003     0.0000000000000000     
   3.3000000000000008E-003     0.0000000000000000     
   3.6000000000000025E-003     0.0000000000000000     
   3.9000000000000007E-003     0.0000000000000000     
   4.2000000000000023E-003     0.0000000000000000     
   4.5000000000000005E-003     0.0000000000000000     
   4.7999999999999987E-003     0.0000000000000000     
   5.1000000000000004E-003     0.0000000000000000     
   5.4000000000000020E-003     0.0000000000000000     
   5.7000000000000037E-003     0.0000000000000000     
   5.9999999999999984E-003     0.0000000000000000     
   6.3000000000000000E-003     0.0000000000000000     
   6.6000000000000017E-003     0.0000000000000000     
   6.9000000000000034E-003     0.0000000000000000     
   7.2000000000000015E-003     0.0000000000000000     
   7.5000000000000032E-003     0.0000000000000000     
   7.8000000000000014E-003     0.0000000000000000     
   8.0999999999999996E-003     0.0000000000000000     
   8.4000000000000012E-003     0.0000000000000000     
   8.7000000000000029E-003     0.0000000000000000     
   9.0000000000000011E-003     0.0000000000000000     
   9.2999999999999992E-003     0.0000000000000000     
   9.6000000000000009E-003     0.0000000000000000     
   9.8999999999999991E-003     0.0000000000000000     
   1.0200000000000001E-002     0.0000000000000000     
   1.0500000000000002E-002     0.0000000000000000     
   1.0800000000000004E-002     0.0000000000000000     
   1.1099999999999999E-002     0.0000000000000000     
   1.1400000000000000E-002     0.0000000000000000     
   1.1700000000000002E-002     0.0000000000000000     
   1.2000000000000004E-002     0.0000000000000000     
   1.2300000000000002E-002     0.0000000000000000     
   1.2600000000000000E-002     0.0000000000000000     
   1.2900000000000002E-002     0.0000000000000000     
   1.3200000000000000E-002     0.0000000000000000     
   1.3500000000000002E-002     0.0000000000000000     
   1.3800000000000003E-002     0.0000000000000000     
   1.4100000000000001E-002     0.0000000000000000     
   1.4400000000000000E-002     0.0000000000000000     
   1.4700000000000001E-002     0.0000000000000000     
   1.4999999999999999E-002     0.0000000000000000     
   1.5300000000000001E-002     0.0000000000000000     
   1.5600000000000003E-002     0.0000000000000000     
   1.5899999999999997E-002     0.0000000000000000     
   1.6199999999999999E-002     0.0000000000000000     
   1.6500000000000001E-002     0.0000000000000000     
   1.6800000000000002E-002     0.0000000000000000     
   1.7100000000000004E-002     0.0000000000000000     
   1.7400000000000006E-002     0.0000000000000000     
   1.7700000000000000E-002     0.0000000000000000     
   1.8000000000000002E-002     0.0000000000000000     
   1.8300000000000004E-002     0.0000000000000000     
   1.8600000000000005E-002     0.0000000000000000     
   1.8900000000000000E-002     0.0000000000000000     
   1.9200000000000002E-002     0.0000000000000000     
   1.9500000000000003E-002     0.0000000000000000     
   1.9799999999999998E-002     0.0000000000000000     
   2.0100000000000000E-002     0.0000000000000000     
   2.0400000000000001E-002     0.0000000000000000     
   2.0700000000000003E-002     0.0000000000000000     
   2.0999999999999998E-002     0.0000000000000000     
   2.1299999999999999E-002     0.0000000000000000     
   2.1600000000000001E-002     0.0000000000000000     
   2.1900000000000003E-002     0.0000000000000000     
   2.2200000000000004E-002     0.0000000000000000     
   2.2500000000000006E-002     0.0000000000000000     
   2.2800000000000001E-002     0.0000000000000000     
   2.3100000000000002E-002     0.0000000000000000     
   2.3400000000000004E-002     0.0000000000000000     
   2.3699999999999999E-002     0.0000000000000000     
   2.4000000000000000E-002     0.0000000000000000     
   2.4300000000000002E-002     0.0000000000000000     
   2.4599999999999997E-002     0.0000000000000000     
   2.4900000000000005E-002     0.0000000000000000     
   2.5200000000000000E-002     0.0000000000000000     
   2.5499999999999995E-002     0.0000000000000000     
   2.5800000000000003E-002     0.0000000000000000     
   2.6099999999999998E-002     0.0000000000000000     
   2.6400000000000007E-002     0.0000000000000000     
   2.6700000000000002E-002     0.0000000000000000     
   2.6999999999999996E-002     0.0000000000000000     
   2.7300000000000005E-002     0.0000000000000000     
   2.7600000000000000E-002     0.0000000000000000     
   2.7900000000000008E-002     0.0000000000000000     
   2.8200000000000003E-002     0.0000000000000000     
   2.8499999999999998E-002     0.0000000000000000     
   2.8800000000000006E-002     0.0000000000000000     
   2.9100000000000001E-002     0.0000000000000000     
   2.9400000000000003E-002     0.0000000000000000     
   2.9700000000000004E-002     0.0000000000000000     
   3.0000000000000006E-002     0.0000000000000000     
   3.0300000000000001E-002     0.0000000000000000     
   3.0600000000000002E-002     0.0000000000000000     
   3.0900000000000004E-002     0.0000000000000000     
   3.1199999999999999E-002     0.0000000000000000     
   3.1500000000000007E-002     0.0000000000000000     
   3.1800000000000002E-002     0.0000000000000000     
   3.2099999999999997E-002     0.0000000000000000     
   3.2400000000000005E-002     0.0000000000000000     
   3.2700000000000000E-002     0.0000000000000000     
   3.3000000000000002E-002     0.0000000000000000     
   3.3300000000000003E-002     0.0000000000000000     
   3.3599999999999998E-002     0.0000000000000000     
   3.3900000000000000E-002     0.0000000000000000     
   3.4200000000000001E-002     0.0000000000000000     
   3.4500000000000003E-002     0.0000000000000000     
   3.4799999999999998E-002     0.0000000000000000     
   3.5099999999999999E-002     0.0000000000000000     
   3.5400000000000001E-002     0.0000000000000000     
   3.5699999999999996E-002     0.0000000000000000     
   3.6000000000000004E-002     0.0000000000000000     
   3.6299999999999999E-002     0.0000000000000000     
   3.6600000000000008E-002     0.0000000000000000     
   3.6900000000000002E-002     0.0000000000000000     
   3.7199999999999997E-002     0.0000000000000000     
   3.7500000000000006E-002     0.0000000000000000     
   3.7800000000000000E-002     0.0000000000000000     
   3.8100000000000009E-002     0.0000000000000000     
   3.8400000000000004E-002     0.0000000000000000     
   3.8699999999999998E-002     4.6504026833745984E-038
   3.9000000000000007E-002    -1.3817382295157695E-037
   3.9300000000000002E-002    -9.6524809746798565E-037
   3.9600000000000003E-002     9.3022041924977662E-037
   3.9900000000000005E-002    -4.8716492729139393E-036
   4.0200000000000000E-002    -1.2966894279088038E-033
   4.0500000000000001E-002     8.5135360700077082E-033
   4.0800000000000003E-002    -2.5187992831704256E-032
   4.1100000000000005E-002     6.0169163942629437E-032
   4.1399999999999999E-002    -1.2328717009615715E-031
   4.1700000000000008E-002     8.3575724750716144E-032
   4.2000000000000003E-002     1.0551648960070527E-030
   4.2299999999999997E-002    -8.6133084074740181E-030
   4.2600000000000006E-002     4.7441476656689410E-029
   4.2900000000000001E-002    -2.2397922248104274E-028
   4.3200000000000002E-002     9.6501084763305311E-028
   4.3500000000000004E-002    -3.8901284674786793E-027
   4.3799999999999999E-002     1.4856755663366357E-026
   4.4100000000000000E-002    -5.4165480469247071E-026
   4.4400000000000002E-002     1.8958698616186233E-025
   4.4700000000000004E-002    -6.4013509200310272E-025
   4.4999999999999998E-002     2.0940466303745216E-024
   4.5300000000000000E-002    -6.6608451167346313E-024
   4.5600000000000002E-002     2.0649908545291650E-023
   4.5899999999999996E-002    -6.2407179110989808E-023
   4.6200000000000005E-002     1.8331894312188516E-022
   4.6500000000000000E-002    -5.1975387117006153E-022
   4.6799999999999994E-002     1.4049747883026771E-021
   4.7100000000000003E-002    -3.5481762970923074E-021
   4.7399999999999998E-002     8.0716536238333432E-021
   4.7700000000000006E-002    -1.5212977722775203E-020
   4.8000000000000001E-002     1.6992547142017803E-020
   4.8300000000000010E-002     3.1804546386084932E-020
   4.8600000000000004E-002    -3.1221682254565612E-019
   4.8899999999999999E-002     1.4540561756476541E-018
   4.9200000000000008E-002    -5.5279201670522475E-018
   4.9500000000000002E-002     1.9346794293822337E-017
   4.9800000000000011E-002    -6.6105363586604818E-017
   5.0100000000000006E-002     2.2731654756078917E-016
   5.0400000000000000E-002    -7.8936019790374713E-016
   5.0700000000000009E-002     2.7164945221223672E-015
   5.1000000000000004E-002    -8.9902845270425595E-015
   5.1299999999999998E-002     2.7644793975865404E-014
   5.1600000000000007E-002    -7.5634636802742283E-014
   5.1900000000000002E-002     1.7011716276606707E-013
   5.2200000000000010E-002    -2.4170823735097661E-013
   5.2500000000000005E-002    -2.5025126303908426E-013
   5.2800000000000000E-002     3.5199684575253555E-012
   5.3099999999999994E-002    -1.6030520887650357E-011
   5.3400000000000003E-002     5.0327145716528942E-011
   5.3699999999999998E-002    -1.1088586548114067E-010
   5.4000000000000006E-002     1.1282651972793587E-010
   5.4300000000000001E-002     3.5656978518305415E-010
   5.4599999999999996E-002    -2.3600474978425868E-009
   5.4900000000000004E-002     6.9115807937224416E-009
   5.5199999999999999E-002    -9.5956095431570847E-009
   5.5499999999999994E-002    -1.3258197100919766E-008
   5.5800000000000002E-002     1.0775140655346434E-007
   5.6099999999999997E-002    -2.3969379568202293E-007
   5.6400000000000006E-002    -2.8024061608813742E-008
   5.6700000000000000E-002     1.4959835742461271E-006
   5.6999999999999995E-002    -2.8920426425153652E-006
   5.7300000000000004E-002    -4.7429102285757564E-006
   5.7599999999999998E-002     2.6337457793450096E-005
   5.7900000000000007E-002     7.4477155052301712E-005
   5.8200000000000002E-002     9.3036097535800517E-005
   5.8499999999999996E-002     9.7104202266789022E-005
   5.8800000000000005E-002     1.3218154298441556E-004
   5.9100000000000000E-002     2.1510230496069125E-004
   5.9400000000000008E-002     3.4446153637615086E-004
   5.9700000000000003E-002     5.2286511077281363E-004
   6.0000000000000012E-002     7.7125458220294457E-004
   6.0300000000000006E-002     1.1240883503831692E-003
   6.0600000000000001E-002     1.6239156631065385E-003
   6.0900000000000010E-002     2.3109423935539636E-003
   6.1200000000000004E-002     3.2345148806472851E-003
   6.1500000000000013E-002     4.4400033158563529E-003
   6.1800000000000008E-002     5.9743539748200736E-003
   6.2100000000000002E-002     7.9060174190526689E-003
   6.2399999999999997E-002     1.0244458262324396E-002
   6.2700000000000006E-002     1.2971223846803659E-002
   6.3000000000000000E-002     1.6035479332030755E-002
   6.3300000000000009E-002     1.9282758885478257E-002
   6.3600000000000004E-002     2.2489758104226598E-002
   6.3899999999999998E-002     2.5288995155092864E-002
   6.4199999999999993E-002     2.7143838670894427E-002
   6.4500000000000002E-002     2.7378474802176589E-002
   6.4800000000000010E-002     2.5141108511078203E-002
   6.5100000000000005E-002     1.9415182984296675E-002
   6.5400000000000000E-002     9.1175270603462422E-003
   6.5700000000000008E-002    -6.8466405008271725E-003
   6.5999999999999989E-002    -2.9549239177347947E-002
   6.6299999999999998E-002    -5.9761607614407297E-002
   6.6600000000000006E-002    -9.7817535990657456E-002
   6.6900000000000001E-002   -0.14349978054565726     
   6.7199999999999996E-002   -0.19573571749435992     
   6.7500000000000004E-002   -0.25248802501226120     
   6.7800000000000013E-002   -0.31065298585863843     
   6.8099999999999994E-002   -0.36598322180198650     
   6.8400000000000002E-002   -0.41324538467123517     
   6.8700000000000011E-002   -0.44645270114059876     
   6.8999999999999992E-002   -0.45915983270982252     
   6.9300000000000000E-002   -0.44500969105416566     
   6.9600000000000009E-002   -0.39840263458565417     
   6.9900000000000004E-002   -0.31510596757286713     
   7.0199999999999999E-002   -0.19299683937701317     
   7.0500000000000007E-002    -3.2634447393013133E-002
   7.0800000000000016E-002    0.16229451462312738     
   7.1099999999999997E-002    0.38471846038198976     
   7.1400000000000005E-002    0.62431571872039626     
   7.1700000000000000E-002    0.86797520225234592     
   7.1999999999999995E-002     1.1004621988784535     
   7.2300000000000003E-002     1.3055293154157326     
   7.2600000000000012E-002     1.4671528377671805     
   7.2900000000000006E-002     1.5708917715029287     
   7.3200000000000001E-002     1.6052394645843648     
   7.3499999999999996E-002     1.5628153090343631     
   7.3800000000000004E-002     1.4412186788182098     
   7.4099999999999999E-002     1.2435132552137489     
   7.4400000000000008E-002    0.97819990856643457     
   7.4700000000000003E-002    0.65876724183707580     
   7.5000000000000011E-002    0.30273645432242091     
   7.5299999999999992E-002    -6.9658002402615438E-002
   7.5600000000000001E-002   -0.43702090455855536     
   7.5900000000000009E-002   -0.77852362781316131     
   7.6200000000000004E-002    -1.0755324703949611     
   7.6499999999999999E-002    -1.3129062225794286     
   7.6800000000000007E-002    -1.4802268779681071     
   7.7099999999999988E-002    -1.5723728192406625     
   7.7399999999999997E-002    -1.5898472752954191     
   7.7700000000000005E-002    -1.5383869305523774     
   7.8000000000000014E-002    -1.4282823694247995     
   7.8299999999999995E-002    -1.2733674293276280     
   7.8600000000000003E-002    -1.0897934366027258     
   7.8900000000000012E-002   -0.89458142554648035     
   7.9199999999999993E-002   -0.70395897214513070     
   7.9500000000000001E-002   -0.53248268033234325     
   7.9800000000000010E-002   -0.39181861971145970     
   8.0100000000000018E-002   -0.28976713475314142     
   8.0399999999999999E-002   -0.22999798986213893     
   8.0700000000000008E-002   -0.21195048519760551     
   8.1000000000000003E-002   -0.23107309603803738     
   8.1299999999999997E-002   -0.27940317440278228     
   8.1600000000000006E-002   -0.34630377754344899     
   8.1900000000000014E-002   -0.41949726701625956     
   8.2199999999999995E-002   -0.48632720097537963     
   8.2500000000000004E-002   -0.53466131394945471     
   8.2799999999999999E-002   -0.55381724536001542     
   8.3100000000000007E-002   -0.53562356894728680     
   8.3400000000000002E-002   -0.47511599432914053     
   8.3700000000000011E-002   -0.37071847537571045     
   8.4000000000000005E-002   -0.22445374028763787     
   8.4300000000000000E-002    -4.1706194876847014E-002
   8.4599999999999995E-002    0.16915367380259250     
   8.4900000000000003E-002    0.39721971484549323     
   8.5199999999999998E-002    0.63019018475231725     
   8.5500000000000007E-002    0.85523234173988527     
   8.5800000000000001E-002     1.0597100547855796     
   8.6100000000000010E-002     1.2319556427090177     
   8.6399999999999991E-002     1.3624596669905671     
   8.6699999999999999E-002     1.4442528699454371     
   8.7000000000000008E-002     1.4731664417664518     
   8.7300000000000003E-002     1.4482646814872240     
   8.7599999999999997E-002     1.3717470995913246     
   8.7900000000000006E-002     1.2486422197558085     
   8.8200000000000014E-002     1.0866092812158357     
   8.8499999999999995E-002    0.89508546675118339     
   8.8800000000000004E-002    0.68469938705919020     
   8.9100000000000013E-002    0.46680820788922972     
   8.9399999999999993E-002    0.25265776796582795     
   8.9700000000000002E-002     5.2547026770455196E-002
   9.0000000000000011E-002   -0.12464169697599248     
   9.0299999999999991E-002   -0.27186091317958061     
   9.0600000000000000E-002   -0.38428057262955662     
   9.0900000000000009E-002   -0.45919016861595452     
   9.1200000000000017E-002   -0.49669656374670978     
   9.1499999999999998E-002   -0.49909948171724672     
   9.1800000000000007E-002   -0.47055239013839767     
   9.2100000000000001E-002   -0.41702222809121992     
   9.2399999999999996E-002   -0.34563811079284612     
   9.2700000000000005E-002   -0.26420261081913754     
   9.3000000000000013E-002   -0.18062150040348968     
   9.3300000000000008E-002   -0.10230908307435138     
   9.3600000000000003E-002    -3.5646332360212973E-002
   9.3899999999999997E-002     1.4270136707898340E-002
   9.4200000000000006E-002     4.4104688493533994E-002
   9.4500000000000001E-002     5.2677059598726039E-002
   9.4800000000000009E-002     4.0633259057943905E-002
   9.5100000000000004E-002     1.0441906503321011E-002
   9.5399999999999999E-002    -3.3696189843980484E-002
   9.5699999999999993E-002    -8.6376072507648005E-002
   9.6000000000000002E-002   -0.14152150667005214     
   9.6300000000000011E-002   -0.19302714173813396     
   9.6600000000000005E-002   -0.23519151755842671     
   9.6900000000000000E-002   -0.26328947427527893     
   9.7200000000000009E-002   -0.27405519134835465     
   9.7499999999999989E-002   -0.26601084220242832     
   9.7799999999999998E-002   -0.23973258973641620     
   9.8100000000000007E-002   -0.19759215143404241     
   9.8400000000000015E-002   -0.14344236403788901     
   9.8699999999999996E-002    -8.2617468896183155E-002
   9.9000000000000005E-002    -2.1218482938364147E-002
   9.9300000000000013E-002     3.4666974372504544E-002
   9.9599999999999994E-002     7.9369241038629190E-002
   9.9900000000000003E-002    0.10827892991812060     
  0.10020000000000001         0.11825480890968132     
  0.10049999999999999         0.10800766065945000     
  0.10080000000000000          7.8347299725136654E-002
  0.10110000000000001          3.2003549847140378E-002
  0.10140000000000000         -2.6773366873295013E-002
  0.10170000000000000         -9.2480789219581916E-002
  0.10200000000000001        -0.15869350336581656     
  0.10230000000000002        -0.21912470175931986     
  0.10260000000000000        -0.26824547502432683     
  0.10290000000000001        -0.30162936401909235     
  0.10320000000000000        -0.31662183259266641     
  0.10350000000000001        -0.31240890974592617     
  0.10380000000000000        -0.29038304516170399     
  0.10410000000000001        -0.25409132620370922     
  0.10440000000000001        -0.20846136652864011     
  0.10470000000000000        -0.15937245830876368     
  0.10500000000000000        -0.11316361663557428     
  0.10530000000000000         -7.5859376089261854E-002
  0.10560000000000000         -5.2232254530354405E-002
  0.10590000000000001         -4.5213065949531561E-002
  0.10620000000000000         -5.5605645863808784E-002
  0.10650000000000001         -8.1726801505918267E-002
  0.10679999999999999        -0.11959134527761339     
  0.10710000000000000        -0.16312376455525124     
  0.10740000000000001        -0.20476026803789660     
  0.10770000000000000        -0.23628011125782056     
  0.10800000000000000        -0.24952499396556505     
  0.10830000000000001        -0.23755356860610455     
  0.10859999999999999        -0.19514237569805193     
  0.10890000000000000        -0.11974888478547641     
  0.10920000000000001         -1.1698718583183942E-002
  0.10950000000000001         0.12569520485906516     
  0.10979999999999999         0.28604620865026509     
  0.11009999999999999         0.46057686502818918     
  0.11040000000000001         0.63877161347922851     
  0.11070000000000001         0.80907192040649711     
  0.11100000000000000         0.96001362739155383     
  0.11130000000000000          1.0811114839622817     
  0.11160000000000002          1.1635863688187023     
  0.11190000000000001          1.2013175503261522     
  0.11220000000000001          1.1910379616288509     
  0.11250000000000000          1.1325845010761881     
  0.11280000000000000          1.0287990755835423     
  0.11309999999999999         0.88538543283289073     
  0.11340000000000001         0.70997658256544582     
  0.11369999999999998         0.51155318991288823     
  0.11400000000000000         0.29970013324806555     
  0.11430000000000000          8.3817716438541634E-002
  0.11460000000000002        -0.12747359829079041     
  0.11489999999999999        -0.32726228497958543     
  0.11520000000000001        -0.51036982383911411     
  0.11550000000000001        -0.67314451236471129     
  0.11580000000000000        -0.81375653474780663     
  0.11609999999999999        -0.93159836647546967     
  0.11640000000000002         -1.0270620945831581     
  0.11670000000000001         -1.1007172346729703     
  0.11700000000000001         -1.1527970628536011     
  0.11730000000000000         -1.1829223532662283     
  0.11760000000000000         -1.1901904495793545     
  0.11789999999999999         -1.1729528784879903     
  0.11820000000000001         -1.1289136072242911     
  0.11850000000000001         -1.0556586712624849     
  0.11880000000000000        -0.95132349861134102     
  0.11910000000000000        -0.81543210595355475     
  0.11940000000000002        -0.64900353967423996     
  0.11970000000000001        -0.45494390085053560     
  0.12000000000000001        -0.23846828431072620     
  0.12030000000000000         -7.1891370727676929E-003
  0.12060000000000000         0.22961348881381127     
  0.12089999999999999         0.46156781429628868     
  0.12119999999999999         0.67805763385449325     
  0.12150000000000001         0.86876910359301895     
  0.12180000000000001          1.0247814732675629     
  0.12210000000000000          1.1396291238315186     
  0.12239999999999999          1.2094122698023604     
  0.12270000000000002          1.2331607385402563     
  0.12300000000000001          1.2128890575222186     
  0.12330000000000001          1.1531268196465660     
  0.12360000000000000          1.0603873733360984     
  0.12390000000000000         0.94226856267041015     
  0.12419999999999999         0.80657347348736508     
  0.12450000000000001         0.66044837215167362     
  0.12480000000000001         0.51015996609533509     
  0.12509999999999999         0.36000057705427224     
  0.12540000000000001         0.21238158028486165     
  0.12570000000000003          6.8068094480011831E-002
  0.12600000000000000         -7.3595166386153377E-002
  0.12630000000000002        -0.21392455937474963     
  0.12659999999999999        -0.35483731208901148     
  0.12690000000000001        -0.49753247909618281     
  0.12719999999999998        -0.64195069521919912     
  0.12750000000000000        -0.78684366248419657     
  0.12780000000000002        -0.92931261550707234     
  0.12809999999999999         -1.0648837923426022     
  0.12840000000000001         -1.1877107441555701     
  0.12869999999999998         -1.2909493218910839     
  0.12900000000000000         -1.3677749000798940     
  0.12930000000000003         -1.4118342550011036     
  0.12959999999999999         -1.4175022825230172     
  0.12990000000000002         -1.3805271320150325     
  0.13019999999999998         -1.2988718563770902     
  0.13050000000000000         -1.1726623032645733     
  0.13080000000000003         -1.0040750458685501     
  0.13109999999999999        -0.79749941555899184     
  0.13140000000000002        -0.55910471890852165     
  0.13169999999999998        -0.29707745853393064     
  0.13200000000000001         -2.1111805461998312E-002
  0.13229999999999997         0.25843768241557008     
  0.13260000000000000         0.53051060343711542     
  0.13290000000000002         0.78365451192566837     
  0.13319999999999999          1.0065016801391025     
  0.13350000000000001          1.1885155303981634     
  0.13380000000000003          1.3204275531580549     
  0.13410000000000000          1.3945407816733137     
  0.13440000000000002          1.4054078658238609     
  0.13469999999999999          1.3502054051347798     
  0.13500000000000001          1.2294719996891672     
  0.13529999999999998          1.0473030576772366     
  0.13560000000000000         0.81151133807647113     
  0.13590000000000002         0.53337478696529139     
  0.13619999999999999         0.22742384815054706     
  0.13650000000000001         -8.8928038079855831E-002
  0.13680000000000003        -0.39654271151385778     
  0.13710000000000000        -0.67571190459332708     
  0.13740000000000002        -0.90739599153121908     
  0.13769999999999999         -1.0746436923091380     
  0.13800000000000001         -1.1638750630150305     
  0.13829999999999998         -1.1662451396688596     
  0.13860000000000000         -1.0783388483291318     
  0.13890000000000002        -0.90300587474207816     
  0.13919999999999999        -0.64929338802358316     
  0.13950000000000001        -0.33189321295690277     
  0.13979999999999998          2.9619018093174354E-002
  0.14010000000000000         0.41216580328929098     
  0.14040000000000002         0.79072284553184380     
  0.14069999999999999          1.1405081570752369     
  0.14100000000000001          1.4386430459635839     
  0.14130000000000004          1.6658928740552881     
  0.14160000000000000          1.8080159243556793     
  0.14189999999999997          1.8568379608200019     
  0.14219999999999999          1.8108510323647096     
  0.14250000000000002          1.6749701948182718     
  0.14279999999999998          1.4599578947917919     
  0.14310000000000000          1.1812927469871468     
  0.14339999999999997         0.85798334073842142     
  0.14369999999999999         0.51100447740566857     
  0.14400000000000002         0.16167516082551714     
  0.14429999999999998        -0.17001950590584691     
  0.14460000000000001        -0.46628335551055589     
  0.14490000000000003        -0.71270581691368928     
  0.14520000000000000        -0.89875795568331895     
  0.14550000000000002         -1.0179567859153273     
  0.14579999999999999         -1.0680917096953770     
  0.14610000000000001         -1.0505362700934100     
  0.14640000000000003        -0.97007527950649575     
  0.14670000000000000        -0.83415288403857701     
  0.14699999999999996        -0.65234726860074232     
  0.14729999999999999        -0.43592798264300292     
  0.14760000000000001        -0.19733360326716021     
  0.14789999999999998          5.0545016008864074E-002
  0.14820000000000000         0.29435663177593341     