  -1.4999999999999999E-002     0.0000000000000000     
  -1.4700000000000000E-002     0.0000000000000000     
  -1.4400000000000000E-002     0.0000000000000000     
  -1.4100000000000000E-002     0.0000000000000000     
  -1.3800000000000000E-002     0.0000000000000000     
  -1.3500000000000000E-002     0.0000000000000000     
  -1.3200000000000000E-002     0.0000000000000000     
  -1.2899999999999998E-002     0.0000000000000000     
  -1.2600000000000000E-002     0.0000000000000000     
  -1.2299999999999998E-002     0.0000000000000000     
  -1.2000000000000000E-002     0.0000000000000000     
  -1.1699999999999999E-002     0.0000000000000000     
  -1.1399999999999999E-002     0.0000000000000000     
  -1.1099999999999999E-002     0.0000000000000000     
  -1.0799999999999999E-002     0.0000000000000000     
  -1.0499999999999999E-002     0.0000000000000000     
  -1.0199999999999999E-002     0.0000000000000000     
  -9.8999999999999991E-003     0.0000000000000000     
  -9.5999999999999992E-003     0.0000000000000000     
  -9.2999999999999992E-003     0.0000000000000000     
  -8.9999999999999993E-003     0.0000000000000000     
  -8.6999999999999994E-003     0.0000000000000000     
  -8.3999999999999995E-003     0.0000000000000000     
  -8.0999999999999996E-003     0.0000000000000000     
  -7.7999999999999988E-003     0.0000000000000000     
  -7.4999999999999997E-003     0.0000000000000000     
  -7.1999999999999998E-003     0.0000000000000000     
  -6.8999999999999981E-003     0.0000000000000000     
  -6.5999999999999982E-003     0.0000000000000000     
  -6.3000000000000000E-003     0.0000000000000000     
  -6.0000000000000001E-003     0.0000000000000000     
  -5.6999999999999985E-003     0.0000000000000000     
  -5.3999999999999986E-003     0.0000000000000000     
  -5.1000000000000004E-003     0.0000000000000000     
  -4.7999999999999987E-003     0.0000000000000000     
  -4.5000000000000005E-003     0.0000000000000000     
  -4.1999999999999989E-003     0.0000000000000000     
  -3.8999999999999990E-003     0.0000000000000000     
  -3.5999999999999990E-003     0.0000000000000000     
  -3.2999999999999991E-003     0.0000000000000000     
  -2.9999999999999992E-003     0.0000000000000000     
  -2.6999999999999993E-003     0.0000000000000000     
  -2.3999999999999994E-003     0.0000000000000000     
  -2.0999999999999977E-003     0.0000000000000000     
  -1.7999999999999995E-003     0.0000000000000000     
  -1.4999999999999979E-003     0.0000000000000000     
  -1.1999999999999997E-003     0.0000000000000000     
  -8.9999999999999976E-004     0.0000000000000000     
  -5.9999999999999810E-004     0.0000000000000000     
  -2.9999999999999992E-004     0.0000000000000000     
   0.0000000000000000          0.0000000000000000     
   3.0000000000000165E-004     0.0000000000000000     
   5.9999999999999984E-004     0.0000000000000000     
   9.0000000000000149E-004     0.0000000000000000     
   1.2000000000000031E-003     0.0000000000000000     
   1.5000000000000013E-003     0.0000000000000000     
   1.8000000000000030E-003     0.0000000000000000     
   2.1000000000000012E-003     0.0000000000000000     
   2.3999999999999994E-003     0.0000000000000000     
   2.7000000000000010E-003     0.0000000000000000     
   2.9999999999999992E-003     0.0000000000000000     
   3.3000000000000008E-003     0.0000000000000000     
   3.6000000000000025E-003     0.0000000000000000     
   3.9000000000000007E-003     0.0000000000000000     
   4.2000000000000023E-003     0.0000000000000000     
   4.5000000000000005E-003     0.0000000000000000     
   4.7999999999999987E-003     0.0000000000000000     
   5.1000000000000004E-003     0.0000000000000000     
   5.4000000000000020E-003     0.0000000000000000     
   5.7000000000000037E-003     0.0000000000000000     
   5.9999999999999984E-003     0.0000000000000000     
   6.3000000000000000E-003     0.0000000000000000     
   6.6000000000000017E-003     0.0000000000000000     
   6.9000000000000034E-003     0.0000000000000000     
   7.2000000000000015E-003     0.0000000000000000     
   7.5000000000000032E-003     0.0000000000000000     
   7.8000000000000014E-003     0.0000000000000000     
   8.0999999999999996E-003     0.0000000000000000     
   8.4000000000000012E-003     0.0000000000000000     
   8.7000000000000029E-003     0.0000000000000000     
   9.0000000000000011E-003     0.0000000000000000     
   9.2999999999999992E-003     0.0000000000000000     
   9.6000000000000009E-003     0.0000000000000000     
   9.8999999999999991E-003     0.0000000000000000     
   1.0200000000000001E-002     0.0000000000000000     
   1.0500000000000002E-002     0.0000000000000000     
   1.0800000000000004E-002     0.0000000000000000     
   1.1099999999999999E-002     0.0000000000000000     
   1.1400000000000000E-002     0.0000000000000000     
   1.1700000000000002E-002     0.0000000000000000     
   1.2000000000000004E-002     0.0000000000000000     
   1.2300000000000002E-002     0.0000000000000000     
   1.2600000000000000E-002     0.0000000000000000     
   1.2900000000000002E-002     0.0000000000000000     
   1.3200000000000000E-002     0.0000000000000000     
   1.3500000000000002E-002     0.0000000000000000     
   1.3800000000000003E-002     0.0000000000000000     
   1.4100000000000001E-002     0.0000000000000000     
   1.4400000000000000E-002     0.0000000000000000     
   1.4700000000000001E-002     0.0000000000000000     
   1.4999999999999999E-002     0.0000000000000000     
   1.5300000000000001E-002     0.0000000000000000     
   1.5600000000000003E-002     0.0000000000000000     
   1.5899999999999997E-002     0.0000000000000000     
   1.6199999999999999E-002     0.0000000000000000     
   1.6500000000000001E-002     0.0000000000000000     
   1.6800000000000002E-002     0.0000000000000000     
   1.7100000000000004E-002     0.0000000000000000     
   1.7400000000000006E-002     0.0000000000000000     
   1.7700000000000000E-002     0.0000000000000000     
   1.8000000000000002E-002     0.0000000000000000     
   1.8300000000000004E-002     0.0000000000000000     
   1.8600000000000005E-002     0.0000000000000000     
   1.8900000000000000E-002     0.0000000000000000     
   1.9200000000000002E-002     0.0000000000000000     
   1.9500000000000003E-002     0.0000000000000000     
   1.9799999999999998E-002     0.0000000000000000     
   2.0100000000000000E-002     0.0000000000000000     
   2.0400000000000001E-002     0.0000000000000000     
   2.0700000000000003E-002     0.0000000000000000     
   2.0999999999999998E-002     0.0000000000000000     
   2.1299999999999999E-002     0.0000000000000000     
   2.1600000000000001E-002     0.0000000000000000     
   2.1900000000000003E-002     0.0000000000000000     
   2.2200000000000004E-002     0.0000000000000000     
   2.2500000000000006E-002     0.0000000000000000     
   2.2800000000000001E-002     0.0000000000000000     
   2.3100000000000002E-002     0.0000000000000000     
   2.3400000000000004E-002     0.0000000000000000     
   2.3699999999999999E-002     0.0000000000000000     
   2.4000000000000000E-002     0.0000000000000000     
   2.4300000000000002E-002     0.0000000000000000     
   2.4599999999999997E-002     0.0000000000000000     
   2.4900000000000005E-002     0.0000000000000000     
   2.5200000000000000E-002     0.0000000000000000     
   2.5499999999999995E-002     0.0000000000000000     
   2.5800000000000003E-002     0.0000000000000000     
   2.6099999999999998E-002     0.0000000000000000     
   2.6400000000000007E-002     0.0000000000000000     
   2.6700000000000002E-002     0.0000000000000000     
   2.6999999999999996E-002     0.0000000000000000     
   2.7300000000000005E-002     0.0000000000000000     
   2.7600000000000000E-002     0.0000000000000000     
   2.7900000000000008E-002     0.0000000000000000     
   2.8200000000000003E-002     0.0000000000000000     
   2.8499999999999998E-002     0.0000000000000000     
   2.8800000000000006E-002     0.0000000000000000     
   2.9100000000000001E-002     0.0000000000000000     
   2.9400000000000003E-002     0.0000000000000000     
   2.9700000000000004E-002     0.0000000000000000     
   3.0000000000000006E-002     0.0000000000000000     
   3.0300000000000001E-002     0.0000000000000000     
   3.0600000000000002E-002     0.0000000000000000     
   3.0900000000000004E-002     0.0000000000000000     
   3.1199999999999999E-002     0.0000000000000000     
   3.1500000000000007E-002     0.0000000000000000     
   3.1800000000000002E-002     0.0000000000000000     
   3.2099999999999997E-002    -1.7402004800519855E-037
   3.2400000000000005E-002     1.5156366703937338E-035
   3.2700000000000000E-002    -1.5789757842854556E-034
   3.3000000000000002E-002     8.6096135806551777E-034
   3.3300000000000003E-002    -3.9848608297562748E-033
   3.3599999999999998E-002     1.5541921986303711E-032
   3.3900000000000000E-002    -6.1712413105669616E-032
   3.4200000000000001E-002     2.3752151700172820E-031
   3.4500000000000003E-002    -8.5664903132558728E-031
   3.4799999999999998E-002     2.8542042915366748E-030
   3.5099999999999999E-002    -8.6352401818185171E-030
   3.5400000000000001E-002     2.3160989760692312E-029
   3.5699999999999996E-002    -5.2987075372580912E-029
   3.6000000000000004E-002     9.6194043764851468E-029
   3.6299999999999999E-002    -1.1904240393805558E-028
   3.6600000000000008E-002     9.6724619408936923E-029
   3.6900000000000002E-002    -6.2330170792916575E-028
   3.7199999999999997E-002     5.9873213814613169E-027
   3.7500000000000006E-002    -3.4192504172440154E-026
   3.7800000000000000E-002     1.3637130913192962E-025
   3.8100000000000009E-002    -3.8799546768758523E-025
   3.8400000000000004E-002     6.2226644893946368E-025
   3.8699999999999998E-002     9.2182005813716616E-025
   3.9000000000000007E-002    -1.2090204506857536E-023
   3.9300000000000002E-002     5.7338127704048539E-023
   3.9600000000000003E-002    -1.9170197210197193E-022
   3.9900000000000005E-002     4.8684526784343225E-022
   4.0200000000000000E-002    -8.7906569822896890E-022
   4.0500000000000001E-002     6.4673780602667282E-022
   4.0800000000000003E-002     2.7128418125474399E-021
   4.1100000000000005E-002    -1.4849021290733438E-020
   4.1399999999999999E-002     4.4398357154461166E-020
   4.1700000000000008E-002    -1.0018721106362773E-019
   4.2000000000000003E-002     2.0022425007198588E-019
   4.2299999999999997E-002    -4.6303011600698403E-019
   4.2600000000000006E-002     1.4400505157172948E-018
   4.2900000000000001E-002    -4.6903564370951450E-018
   4.3200000000000002E-002     1.1998371417548036E-017
   4.3500000000000004E-002    -1.5598225874612473E-017
   4.3799999999999999E-002    -4.1657020788962387E-017
   4.4100000000000000E-002     3.6471258769255966E-016
   4.4400000000000002E-002    -1.4080562201431216E-015
   4.4700000000000004E-002     3.4967677879090648E-015
   4.4999999999999998E-002    -4.3699209019160828E-015
   4.5300000000000000E-002    -7.9988616167388400E-015
   4.5600000000000002E-002     6.5143508263480060E-014
   4.5899999999999996E-002    -2.0137922362647998E-013
   4.6200000000000005E-002     3.1851637213170525E-013
   4.6500000000000000E-002     1.8243345473612643E-013
   4.6799999999999994E-002    -2.7207782467980612E-012
   4.7100000000000003E-002     8.0297712923282916E-012
   4.7399999999999998E-002    -9.1138147376157441E-012
   4.7700000000000006E-002    -2.0270018302737114E-011
   4.8000000000000001E-002     1.1276735101262148E-010
   4.8300000000000010E-002    -1.9674459283969270E-010
   4.8600000000000004E-002    -1.1294223889457555E-010
   4.8899999999999999E-002     1.3380569985343982E-009
   4.9200000000000008E-002    -2.4411499488508070E-009
   4.9500000000000002E-002    -1.7132522067697664E-009
   4.9800000000000011E-002     1.5261241159691963E-008
   5.0100000000000006E-002    -1.7588359213505100E-008
   5.0400000000000000E-002    -4.4395221721060807E-008
   5.0700000000000009E-002     1.2967932150331762E-007
   5.1000000000000004E-002     5.3848445702442405E-008
   5.1299999999999998E-002    -5.8071299235962215E-007
   5.1600000000000007E-002     1.1618638495747291E-008
   5.1900000000000002E-002     3.1323297662311234E-006
   5.2200000000000010E-002     7.6869300755788572E-006
   5.2500000000000005E-002     1.5370078472187743E-005
   5.2800000000000000E-002     2.8084059522370808E-005
   5.3099999999999994E-002     4.0293278289027512E-005
   5.3400000000000003E-002     5.0667767936829478E-005
   5.3699999999999998E-002     7.0558417064603418E-005
   5.4000000000000006E-002     1.0776903218356892E-004
   5.4300000000000001E-002     1.6413077537436038E-004
   5.4599999999999996E-002     2.4756859056651592E-004
   5.4900000000000004E-002     3.6772966268472373E-004
   5.5199999999999999E-002     5.3563143592327833E-004
   5.5499999999999994E-002     7.6649372931569815E-004
   5.5800000000000002E-002     1.0715631069615483E-003
   5.6099999999999997E-002     1.4652727404609323E-003
   5.6400000000000006E-002     1.9702524878084660E-003
   5.6700000000000000E-002     2.6030847802758217E-003
   5.6999999999999995E-002     3.3728100825101137E-003
   5.7300000000000004E-002     4.2806547135114670E-003
   5.7599999999999998E-002     5.3145159035921097E-003
   5.7900000000000007E-002     6.4423684962093830E-003
   5.8200000000000002E-002     7.5870105065405369E-003
   5.8499999999999996E-002     8.6273383349180222E-003
   5.8800000000000005E-002     9.4159748405218124E-003
   5.9100000000000000E-002     9.7474893555045128E-003
   5.9400000000000008E-002     9.3506006523966789E-003
   5.9700000000000003E-002     7.9131908714771271E-003
   6.0000000000000012E-002     5.0739729776978493E-003
   6.0300000000000006E-002     4.4137286022305489E-004
   6.0600000000000001E-002    -6.3615040853619576E-003
   6.0900000000000010E-002    -1.5682626515626907E-002
   6.1200000000000004E-002    -2.7787575498223305E-002
   6.1500000000000013E-002    -4.2800385504961014E-002
   6.1800000000000008E-002    -6.0663823038339615E-002
   6.2100000000000002E-002    -8.1091463565826416E-002
   6.2399999999999997E-002   -0.10355875641107559     
   6.2700000000000006E-002   -0.12728598713874817     
   6.3000000000000000E-002   -0.15121056139469147     
   6.3300000000000009E-002   -0.17405664920806885     
   6.3600000000000004E-002   -0.19442203640937805     
   6.3899999999999998E-002   -0.21085745096206665     
   6.4199999999999993E-002   -0.22199143469333649     
   6.4500000000000002E-002   -0.22662796080112457     
   6.4800000000000010E-002   -0.22384923696517944     
   6.5100000000000005E-002   -0.21313793957233429     
   6.5400000000000000E-002   -0.19442474842071533     
   6.5700000000000008E-002   -0.16812726855278015     
   6.5999999999999989E-002   -0.13509477674961090     
   6.6299999999999998E-002    -9.6503049135208130E-002
   6.6600000000000006E-002    -5.3807560354471207E-002
   6.6900000000000001E-002    -8.6137847974896431E-003
   6.7199999999999996E-002     3.7493854761123657E-002
   6.7500000000000004E-002     8.3014614880084991E-002
   6.7800000000000013E-002    0.12662795186042786     
   6.8099999999999994E-002    0.16720822453498840     
   6.8400000000000002E-002    0.20378863811492920     
   6.8700000000000011E-002    0.23552389442920685     
   6.8999999999999992E-002    0.26157632470130920     
   6.9300000000000000E-002    0.28112453222274780     
   6.9600000000000009E-002    0.29319703578948975     
   6.9900000000000004E-002    0.29681727290153503     
   7.0199999999999999E-002    0.29090282320976257     
   7.0500000000000007E-002    0.27453562617301941     
   7.0800000000000016E-002    0.24705991148948669     
   7.1099999999999997E-002    0.20833618938922882     
   7.1400000000000005E-002    0.15899249911308289     
   7.1700000000000000E-002    0.10049253702163696     
   7.1999999999999995E-002     3.5418000072240829E-002
   7.2300000000000003E-002    -3.2704532146453857E-002
   7.2600000000000012E-002    -9.9386572837829590E-002
   7.2900000000000006E-002   -0.15953469276428223     
   7.3200000000000001E-002   -0.20773304998874664     
   7.3499999999999996E-002   -0.23872685432434082     
   7.3800000000000004E-002   -0.24795703589916229     
   7.4099999999999999E-002   -0.23186653852462769     
   7.4400000000000008E-002   -0.18854412436485291     
   7.4700000000000003E-002   -0.11779203265905380     
   7.5000000000000011E-002    -2.1391332149505615E-002
   7.5299999999999992E-002     9.6939928829669952E-002
   7.5600000000000001E-002    0.23177778720855713     
   7.5900000000000009E-002    0.37627834081649780     
   7.6200000000000004E-002    0.52275019884109497     
   7.6499999999999999E-002    0.66299802064895630     
   7.6800000000000007E-002    0.78911083936691284     
   7.7099999999999988E-002    0.89376097917556763     
   7.7399999999999997E-002    0.97088027000427246     
   7.7700000000000005E-002     1.0157669782638550     
   7.8000000000000014E-002     1.0255889892578125     
   7.8299999999999995E-002    0.99920648336410522     
   7.8600000000000003E-002    0.93732839822769165     
   7.8900000000000012E-002    0.84224212169647217     
   7.9199999999999993E-002    0.71765023469924927     
   7.9500000000000001E-002    0.56847012042999268     
   7.9800000000000010E-002    0.40024858713150024     
   8.0100000000000018E-002    0.21923780441284180     
   8.0399999999999999E-002     3.1689774245023727E-002
   8.0700000000000008E-002   -0.15613126754760742     
   8.1000000000000003E-002   -0.33841854333877563     
   8.1299999999999997E-002   -0.50991439819335938     
   8.1600000000000006E-002   -0.66618943214416504     
   8.1900000000000014E-002   -0.80379003286361694     
   8.2199999999999995E-002   -0.92021161317825317     
   8.2500000000000004E-002    -1.0140849351882935     
   8.2799999999999999E-002    -1.0851052999496460     
   8.3100000000000007E-002    -1.1338427066802979     
   8.3400000000000002E-002    -1.1618016958236694     
   8.3700000000000011E-002    -1.1707338094711304     
   8.4000000000000005E-002    -1.1630805730819702     
   8.4300000000000000E-002    -1.1410425901412964     
   8.4599999999999995E-002    -1.1067425012588501     
   8.4900000000000003E-002    -1.0620003938674927     
   8.5199999999999998E-002    -1.0079022645950317     
   8.5500000000000007E-002   -0.94524228572845459     
   8.5800000000000001E-002   -0.87424325942993164     
   8.6100000000000010E-002   -0.79486876726150513     
   8.6399999999999991E-002   -0.70685857534408569     
   8.6699999999999999E-002   -0.61021655797958374     
   8.7000000000000008E-002   -0.50498944520950317     
   8.7300000000000003E-002   -0.39188683032989502     
   8.7599999999999997E-002   -0.27199447154998779     
   8.7900000000000006E-002   -0.14672780036926270     
   8.8200000000000014E-002    -1.8156688660383224E-002
   8.8499999999999995E-002    0.11175524443387985     
   8.8800000000000004E-002    0.24081125855445862     
   8.9100000000000013E-002    0.36693218350410461     
   8.9399999999999993E-002    0.48823544383049011     
   8.9700000000000002E-002    0.60305404663085938     
   9.0000000000000011E-002    0.70968037843704224     
   9.0299999999999991E-002    0.80661088228225708     
   9.0600000000000000E-002    0.89184683561325073     
   9.0900000000000009E-002    0.96319496631622314     
   9.1200000000000017E-002     1.0178298950195312     
   9.1499999999999998E-002     1.0525506734848022     
   9.1800000000000007E-002     1.0637964010238647     
   9.2100000000000001E-002     1.0479819774627686     
   9.2399999999999996E-002     1.0019934177398682     
   9.2700000000000005E-002    0.92355817556381226     
   9.3000000000000013E-002    0.81198805570602417     
   9.3300000000000008E-002    0.66849493980407715     
   9.3600000000000003E-002    0.49652653932571411     
   9.3899999999999997E-002    0.30188730359077454     
   9.4200000000000006E-002     9.2434130609035492E-002
   9.4500000000000001E-002   -0.12212583422660828     
   9.4800000000000009E-002   -0.33127707242965698     
   9.5100000000000004E-002   -0.52427935600280762     
   9.5399999999999999E-002   -0.69133198261260986     
   9.5699999999999993E-002   -0.82418888807296753     
   9.6000000000000002E-002   -0.91742521524429321     
   9.6300000000000011E-002   -0.96831315755844116     
   9.6600000000000005E-002   -0.97745662927627563     
   9.6900000000000000E-002   -0.94842463731765747     
   9.7200000000000009E-002   -0.88719117641448975     
   9.7499999999999989E-002   -0.80155092477798462     
   9.7799999999999998E-002   -0.69986832141876221     
   9.8100000000000007E-002   -0.59055638313293457     
   9.8400000000000015E-002   -0.48060607910156250     
   9.8699999999999996E-002   -0.37552303075790405     
   9.9000000000000005E-002   -0.27824583649635315     
   9.9300000000000013E-002   -0.18991376459598541     
   9.9599999999999994E-002   -0.10932886600494385     
   9.9900000000000003E-002    -3.4032274037599564E-002
  0.10020000000000001          3.9264325052499771E-002
  0.10049999999999999         0.11367465555667877     
  0.10080000000000000         0.19152314960956573     
  0.10110000000000001         0.27374851703643799     
  0.10140000000000000         0.35952466726303101     
  0.10170000000000000         0.44623851776123047     
  0.10200000000000001         0.52962106466293335     
  0.10230000000000002         0.60452985763549805     
  0.10260000000000000         0.66542410850524902     
  0.10290000000000001         0.70722848176956177     
  0.10320000000000000         0.72597324848175049     
  0.10350000000000001         0.71966713666915894     
  0.10380000000000000         0.68845927715301514     
  0.10410000000000001         0.63501089811325073     
  0.10440000000000001         0.56402015686035156     
  0.10470000000000000         0.48225209116935730     
  0.10500000000000000         0.39759862422943115     
  0.10530000000000000         0.31846943497657776     
  0.10560000000000000         0.25284421443939209     
  0.10590000000000001         0.20771847665309906     
  0.10620000000000000         0.18819990754127502     
  0.10650000000000001         0.19719570875167847     
  0.10679999999999999         0.23515264689922333     
  0.10710000000000000         0.29991367459297180     
  0.10740000000000001         0.38720002770423889     
  0.10770000000000000         0.49061578512191772     
  0.10800000000000000         0.60255765914916992     
  0.10830000000000001         0.71452105045318604     
  0.10859999999999999         0.81778466701507568     
  0.10890000000000000         0.90403664112091064     
  0.10920000000000001         0.96579319238662720     
  0.10950000000000001         0.99668580293655396     
  0.10979999999999999         0.99188452959060669     
  0.11009999999999999         0.94812887907028198     
  0.11040000000000001         0.86372917890548706     
  0.11070000000000001         0.73863309621810913     
  0.11100000000000000         0.57437890768051147     
  0.11130000000000000         0.37405177950859070     
  0.11160000000000002         0.14226154983043671     
  0.11190000000000001        -0.11500185728073120     
  0.11220000000000001        -0.39022386074066162     
  0.11250000000000000        -0.67458969354629517     
  0.11280000000000000        -0.95793527364730835     
  0.11309999999999999         -1.2291316986083984     
  0.11340000000000001         -1.4762891530990601     
  0.11369999999999998         -1.6873496770858765     
  0.11400000000000000         -1.8507084846496582     
  0.11430000000000000         -1.9559146165847778     
  0.11460000000000002         -1.9947211742401123     
  0.11489999999999999         -1.9615299701690674     
  0.11520000000000001         -1.8546192646026611     
  0.11550000000000001         -1.6762975454330444     
  0.11580000000000000         -1.4335455894470215     
  0.11609999999999999         -1.1375906467437744     
  0.11640000000000002        -0.80375289916992188     
  0.11670000000000001        -0.45033532381057739     
  0.11700000000000001         -9.7756326198577881E-002
  0.11730000000000000         0.23320735991001129     
  0.11760000000000000         0.52275377511978149     
  0.11789999999999999         0.75391340255737305     
  0.11820000000000001         0.91351014375686646     
  0.11850000000000001         0.99369859695434570     
  0.11880000000000000         0.99232250452041626     
  0.11910000000000000         0.91322076320648193     
  0.11940000000000002         0.76597255468368530     
  0.11970000000000001         0.56463110446929932     
  0.12000000000000001         0.32731455564498901     
  0.12030000000000000          7.3641844093799591E-002
  0.12060000000000000        -0.17599555850028992     
  0.12089999999999999        -0.40276467800140381     
  0.12119999999999999        -0.59038943052291870     
  0.12150000000000001        -0.72669154405593872     
  0.12180000000000001        -0.80412334203720093     
  0.12210000000000000        -0.82030439376831055     
  0.12239999999999999        -0.77754211425781250     
  0.12270000000000002        -0.68268978595733643     
  0.12300000000000001        -0.54616934061050415     
  0.12330000000000001        -0.38042813539505005     
  0.12360000000000000        -0.19936032593250275     
  0.12390000000000000         -1.6428746283054352E-002
  0.12419999999999999         0.15598946809768677     
  0.12450000000000001         0.30791011452674866     
  0.12480000000000001         0.43190634250640869     
  0.12509999999999999         0.52403038740158081     
  0.12540000000000001         0.58302819728851318     
  0.12570000000000003         0.61105728149414062     
  0.12600000000000000         0.61207902431488037     
  0.12630000000000002         0.59217011928558350     
  0.12659999999999999         0.55811065435409546     
  0.12690000000000001         0.51692408323287964     
  0.12719999999999998         0.47528147697448730     
  0.12750000000000000         0.43851745128631592     
  0.12780000000000002         0.41095149517059326     
  0.12809999999999999         0.39469242095947266     
  0.12840000000000001         0.39040002226829529     
  0.12869999999999998         0.39671397209167480     
  0.12900000000000000         0.41086566448211670     
  0.12930000000000003         0.42880985140800476     
  0.12959999999999999         0.44571852684020996     
  0.12990000000000002         0.45628175139427185     
  0.13019999999999998         0.45532745122909546     
  0.13050000000000000         0.43836784362792969     
  0.13080000000000003         0.40185964107513428     
  0.13109999999999999         0.34374964237213135     
  0.13140000000000002         0.26376426219940186     
  0.13169999999999998         0.16331224143505096     
  0.13200000000000001          4.5994408428668976E-002
  0.13229999999999997         -8.3220548927783966E-002
  0.13260000000000000        -0.21779441833496094     
  0.13290000000000002        -0.35046783089637756     
  0.13319999999999999        -0.47361063957214355     
  0.13350000000000001        -0.57992148399353027     
  0.13380000000000003        -0.66321372985839844     
  0.13410000000000000        -0.71881413459777832     
  0.13440000000000002        -0.74407821893692017     
  0.13469999999999999        -0.73852813243865967     
  0.13500000000000001        -0.70408803224563599     
  0.13529999999999998        -0.64458900690078735     
  0.13560000000000000        -0.56588816642761230     
  0.13590000000000002        -0.47491636872291565     
  0.13619999999999999        -0.37943190336227417     
  0.13650000000000001        -0.28689649701118469     
  0.13680000000000003        -0.20455291867256165     
  0.13710000000000000        -0.13828684389591217     
  0.13740000000000002         -9.2678792774677277E-002
  0.13769999999999999         -7.0496201515197754E-002
  0.13800000000000001         -7.2392582893371582E-002
  0.13829999999999998         -9.7307652235031128E-002
  0.13860000000000000        -0.14202812314033508     
  0.13890000000000002        -0.20197227597236633     
  0.13919999999999999        -0.27070438861846924     
  0.13950000000000001        -0.34083786606788635     
  0.13979999999999998        -0.40396621823310852     
  0.14010000000000000        -0.45101618766784668     
  0.14040000000000002        -0.47305315732955933     
  0.14069999999999999        -0.46126794815063477     
  0.14100000000000001        -0.40820476412773132     
  0.14130000000000004        -0.30775994062423706     
  0.14160000000000000        -0.15627264976501465     
  0.14189999999999997          4.6886026859283447E-002
  0.14219999999999999         0.29915010929107666     
  0.14250000000000002         0.59392410516738892     
  0.14279999999999998         0.92092823982238770     
  0.14310000000000000          1.2661337852478027     
  0.14339999999999997          1.6125591993331909     
  0.14369999999999999          1.9409472942352295     
  0.14400000000000002          2.2308712005615234     
  0.14429999999999998          2.4626386165618896     
  0.14460000000000001          2.6179738044738770     
  0.14490000000000003          2.6823720932006836     
  0.14520000000000000          2.6454124450683594     
  0.14550000000000002          2.5028553009033203     
  0.14579999999999999          2.2563326358795166     
  0.14610000000000001          1.9140126705169678     
  0.14640000000000003          1.4903875589370728     
  0.14670000000000000          1.0047010183334351     
  0.14699999999999996         0.48080253601074219     
  0.14729999999999999         -5.5534869432449341E-002
  0.14760000000000001        -0.57730507850646973     
  0.14789999999999998         -1.0591275691986084     
  0.14820000000000000         -1.4779996871948242     