  -1.4999999999999999E-002     0.0000000000000000     
  -1.4700000000000000E-002    -1.4257410197258767E-034
  -1.4400000000000000E-002    -4.3293429561929629E-027
  -1.4100000000000000E-002    -7.0597775527147719E-024
  -1.3800000000000000E-002     2.8468159296238370E-022
  -1.3500000000000000E-002     2.2469558250880028E-020
  -1.3200000000000000E-002    -2.2869157649878046E-019
  -1.2899999999999998E-002    -1.3675966286320430E-018
  -1.2600000000000000E-002     1.4695578344793804E-017
  -1.2299999999999998E-002    -3.2477136420356790E-018
  -1.2000000000000000E-002    -1.6836551308783275E-016
  -1.1699999999999999E-002     5.7814083202117860E-017
  -1.1399999999999999E-002     1.1282841770401950E-015
  -1.1099999999999999E-002     4.8980194316223950E-016
  -1.0799999999999999E-002    -6.5510402718857420E-015
  -1.0499999999999999E-002    -3.5121860537290669E-015
  -1.0199999999999999E-002     1.3214776853946347E-014
  -9.8999999999999991E-003     4.4045444030270107E-014
  -9.5999999999999992E-003    -7.4317233855809718E-015
  -9.2999999999999992E-003    -1.7894893170260850E-013
  -8.9999999999999993E-003    -2.1538138228665166E-013
  -8.6999999999999994E-003     6.0992271217094553E-013
  -8.3999999999999995E-003     7.5860403948727227E-013
  -8.0999999999999996E-003    -6.4466875754245659E-013
  -7.7999999999999988E-003    -1.2708740605700383E-012
  -7.4999999999999997E-003    -3.3973127764541688E-012
  -7.1999999999999998E-003     8.0983708196199676E-013
  -6.8999999999999981E-003     1.5916879717458203E-011
  -6.5999999999999982E-003     5.4467241986150610E-012
  -6.3000000000000000E-003    -3.6997003532142074E-011
  -6.0000000000000001E-003     9.9911346361782287E-015
  -5.6999999999999985E-003    -8.2611628414739230E-012
  -5.3999999999999986E-003    -7.1186350443885707E-012
  -5.1000000000000004E-003     2.0234279709178435E-010
  -4.7999999999999987E-003     1.9476277151406580E-011
  -4.5000000000000005E-003    -5.2848368888770710E-010
  -4.1999999999999989E-003     9.6082242792208949E-011
  -3.8999999999999990E-003     4.6382348988939457E-010
  -3.5999999999999990E-003    -7.4277646372550168E-010
  -3.2999999999999991E-003     1.5837469538686847E-009
  -2.9999999999999992E-003     9.9165308222299708E-010
  -2.6999999999999993E-003    -5.4286134041746492E-009
  -2.3999999999999994E-003     1.8025404336616903E-009
  -2.0999999999999977E-003     4.5674058811841019E-009
  -1.7999999999999995E-003    -7.0447391005148595E-009
  -1.4999999999999979E-003     8.9491126003056622E-009
  -1.1999999999999997E-003     5.8531632341969322E-009
  -8.9999999999999976E-004    -2.6008610576606766E-008
  -5.9999999999999810E-004     9.9915952335239802E-009
  -2.9999999999999992E-004     1.3121734544324804E-008
   0.0000000000000000         -2.3397822146137057E-008
   3.0000000000000165E-004     4.2763017223808478E-008
   5.9999999999999984E-004    -2.5513708962818512E-009
   9.0000000000000149E-004    -7.9785598839615607E-008
   1.2000000000000031E-003     6.6342334630964735E-008
   1.5000000000000013E-003     1.3893821079120677E-008
   1.8000000000000030E-003    -1.0824968676244073E-007
   2.1000000000000012E-003     1.3940799023204411E-007
   2.3999999999999994E-003     7.2965616176973323E-008
   2.7000000000000010E-003    -2.3947744975911244E-007
   2.9999999999999992E-003     7.6848143875043576E-009
   3.3000000000000008E-003     1.6216581311432899E-007
   3.6000000000000025E-003    -1.4088200170669699E-008
   3.9000000000000007E-003     1.5293754637893722E-008
   4.2000000000000023E-003    -6.7383266855547800E-008
   4.5000000000000005E-003    -8.6268173479805817E-008
   4.7999999999999987E-003     6.6677897289287487E-008
   5.1000000000000004E-003    -2.8716720416177696E-008
   5.4000000000000020E-003     7.7218786660317494E-008
   5.7000000000000037E-003     1.5950863929410468E-007
   5.9999999999999984E-003    -3.4456899974008312E-007
   6.3000000000000000E-003    -8.5279117130298026E-008
   6.6000000000000017E-003     9.5853634852898557E-007
   6.9000000000000034E-003     9.2763839258243569E-007
   7.2000000000000015E-003     8.7950606505671064E-007
   7.5000000000000032E-003     2.9539783162499549E-006
   7.8000000000000014E-003     9.1863788505324102E-006
   8.0999999999999996E-003     2.4757671432340899E-005
   8.4000000000000012E-003     5.3689184377426704E-005
   8.7000000000000029E-003     9.0752559874391465E-005
   9.0000000000000011E-003     1.2649238494580014E-004
   9.2999999999999992E-003     1.5919685356606886E-004
   9.6000000000000009E-003     1.9062629168327730E-004
   9.8999999999999991E-003     2.2440891732104524E-004
   1.0200000000000001E-002     2.7364264090315449E-004
   1.0500000000000002E-002     3.4582452555942302E-004
   1.0800000000000004E-002     4.2803321932133494E-004
   1.1099999999999999E-002     4.9605644802969487E-004
   1.1400000000000000E-002     5.0989604715324151E-004
   1.1700000000000002E-002     3.8720167302603442E-004
   1.2000000000000004E-002    -5.2479927890244915E-006
   1.2300000000000002E-002    -8.5621220550859394E-004
   1.2600000000000000E-002    -2.4494599368533924E-003
   1.2900000000000002E-002    -5.2161277484340553E-003
   1.3200000000000000E-002    -9.7743392525901016E-003
   1.3500000000000002E-002    -1.6977055051168588E-002
   1.3800000000000003E-002    -2.7984186190631533E-002
   1.4100000000000001E-002    -4.4282335510250959E-002
   1.4400000000000000E-002    -6.7684839975699240E-002
   1.4700000000000001E-002   -0.10042867830378066     
   1.4999999999999999E-002   -0.14521056066966187     
   1.5300000000000001E-002   -0.20508863333934180     
   1.5600000000000003E-002   -0.28337781943064977     
   1.5899999999999997E-002   -0.38345739195541606     
   1.6199999999999999E-002   -0.50846788859002690     
   1.6500000000000001E-002   -0.66097645000406668     
   1.6800000000000002E-002   -0.84256269442445308     
   1.7100000000000004E-002    -1.0533509237983445     
   1.7400000000000006E-002    -1.2914028427564617     
   1.7700000000000000E-002    -1.5521268463850859     
   1.8000000000000002E-002    -1.8279051149731274     
   1.8300000000000004E-002    -2.1079286040603407     
   1.8600000000000005E-002    -2.3779646397780922     
   1.8900000000000000E-002    -2.6208408993039143     
   1.9200000000000002E-002    -2.8168032044457405     
   1.9500000000000003E-002    -2.9448951390015878     
   1.9799999999999998E-002    -2.9839477745454701     
   2.0100000000000000E-002    -2.9147885884199383     
   2.0400000000000001E-002    -2.7214605156926552     
   2.0700000000000003E-002    -2.3938396605393706     
   2.0999999999999998E-002    -1.9289341236342921     
   2.1299999999999999E-002    -1.3323656464337006     
   2.1600000000000001E-002   -0.61903271720325659     
   2.1900000000000003E-002    0.18723048463471414     
   2.2200000000000004E-002     1.0541964371985486     
   2.2500000000000006E-002     1.9436725352650654     
   2.2800000000000001E-002     2.8135719700448298     
   2.3100000000000002E-002     3.6221148500027169     
   2.3400000000000004E-002     4.3301653837429441     
   2.3699999999999999E-002     4.9060701171182757     
   2.4000000000000000E-002     5.3273661260600988     
   2.4300000000000002E-002     5.5840561395300483     
   2.4599999999999997E-002     5.6785457451069874     
   2.4900000000000005E-002     5.6264549777901607     
   2.5200000000000000E-002     5.4541717870068567     
   2.5499999999999995E-002     5.1968440483436495     
   2.5800000000000003E-002     4.8937907587475991     
   2.6099999999999998E-002     4.5851387392438312     
   2.6400000000000007E-002     4.3068754403061575     
   2.6700000000000002E-002     4.0873985685735192     
   2.6999999999999996E-002     3.9434077936715255     
   2.7300000000000005E-002     3.8792770195518926     
   2.7600000000000000E-002     3.8842175142045221     
   2.7900000000000008E-002     3.9352942929191386     
   2.8200000000000003E-002     3.9967731770522050     
   2.8499999999999998E-002     4.0249227589198000     
   2.8800000000000006E-002     3.9707892583596021     
   2.9100000000000001E-002     3.7851347001164157     
   2.9400000000000003E-002     3.4226734090129156     
   2.9700000000000004E-002     2.8460557760650005     
   3.0000000000000006E-002     2.0311172243027968     
   3.0300000000000001E-002    0.96854856508168119     
   3.0600000000000002E-002   -0.33117544953051947     
   3.0900000000000004E-002    -1.8384855404737834     
   3.1199999999999999E-002    -3.5009994690669117     
   3.1500000000000007E-002    -5.2474424808755060     
   3.1800000000000002E-002    -6.9859803009282420     
   3.2099999999999997E-002    -8.6114769958706958     
   3.2400000000000005E-002    -10.006333082926247     
   3.2700000000000000E-002    -11.051187192411987     
   3.3000000000000002E-002    -11.629660912097052     
   3.3300000000000003E-002    -11.641410436505737     
   3.3599999999999998E-002    -11.008199207134908     
   3.3900000000000000E-002    -9.6878654026970707     
   3.4200000000000001E-002    -7.6804775093517890     
   3.4500000000000003E-002    -5.0380152101026425     
   3.4799999999999998E-002    -1.8654030551537772     
   3.5099999999999999E-002     1.6763228507411725     
   3.5400000000000001E-002     5.3782108912426452     
   3.5699999999999996E-002     8.9904431294065148     
   3.6000000000000004E-002     12.240269654267877     
   3.6299999999999999E-002     14.849701752862813     
   3.6600000000000008E-002     16.557743339039106     
   3.6900000000000002E-002     17.145566940450252     
   3.7199999999999997E-002     16.456271610304015     
   3.7500000000000006E-002     14.416243010406902     
   3.7800000000000000E-002     11.046477132553207     
   3.8100000000000009E-002     6.4693151052853608     
   3.8400000000000004E-002    0.90536788924737266     
   3.8699999999999998E-002    -5.3369679310583820     
   3.9000000000000007E-002    -11.883706309851618     
   3.9300000000000002E-002    -18.318468182296783     
   3.9600000000000003E-002    -24.217780241291848     
   3.9900000000000005E-002    -29.178627083670733     
   4.0200000000000000E-002    -32.855527009704957     
   4.0500000000000001E-002    -34.982593014266754     
   4.0800000000000003E-002    -35.398508438796512     
   4.1100000000000005E-002    -34.054267157647644     
   4.1399999999999999E-002    -31.019264646057536     
   4.1700000000000008E-002    -26.470667983324461     
   4.2000000000000003E-002    -20.680998028118950     
   4.2299999999999997E-002    -13.991773822122013     
   4.2600000000000006E-002    -6.7880463499828139     
   4.2900000000000001E-002    0.53107272386961313     
   4.3200000000000002E-002     7.5824708863850674     
   4.3500000000000004E-002     14.024748882759468     
   4.3799999999999999E-002     19.577503296793452     
   4.4100000000000000E-002     24.038787869252815     
   4.4400000000000002E-002     27.287783790012043     
   4.4700000000000004E-002     29.290134487241374     
   4.4999999999999998E-002     30.086877997474474     
   4.5300000000000000E-002     29.785005085955220     
   4.5600000000000002E-002     28.543091863004008     
   4.5899999999999996E-002     26.550342157936029     
   4.6200000000000005E-002     24.011779336680661     
   4.6500000000000000E-002     21.132045888749758     
   4.6799999999999994E-002     18.095290455589804     
   4.7100000000000003E-002     15.064705894665337     
   4.7399999999999998E-002     12.162352744204384     
   4.7700000000000006E-002     9.4791798178727618     
   4.8000000000000001E-002     7.0625522364895232     
   4.8300000000000010E-002     4.9310193788004710     
   4.8600000000000004E-002     3.0705252624968935     
   4.8899999999999999E-002     1.4485119332601268     
   4.9200000000000008E-002     1.9155608399259449E-002
   4.9500000000000002E-002    -1.2710298112485390     
   4.9800000000000011E-002    -2.4678275934016511     
   5.0100000000000006E-002    -3.6157693286195638     
   5.0400000000000000E-002    -4.7396457276445858     
   5.0700000000000009E-002    -5.8542505000879999     
   5.1000000000000004E-002    -6.9551822327915858     
   5.1299999999999998E-002    -8.0236666885931314     
   5.1600000000000007E-002    -9.0295126840384725     
   5.1900000000000002E-002    -9.9316908940062518     
   5.2200000000000010E-002    -10.687024957145042     
   5.2500000000000005E-002    -11.251819926473416     
   5.2800000000000000E-002    -11.587365803539853     
   5.3099999999999994E-002    -11.666560994514043     
   5.3400000000000003E-002    -11.470551125018119     
   5.3699999999999998E-002    -11.001100927211269     
   5.4000000000000006E-002    -10.269195349458130     
   5.4300000000000001E-002    -9.3065354860070784     
   5.4599999999999996E-002    -8.1532410851970383     
   5.4900000000000004E-002    -6.8636417839135788     
   5.5199999999999999E-002    -5.4956375978428014     
   5.5499999999999994E-002    -4.1128027809821930     
   5.5800000000000002E-002    -2.7758989068924933     
   5.6099999999999997E-002    -1.5396778017732906     
   5.6400000000000006E-002   -0.45126359173329789     
   5.6700000000000000E-002    0.45413372997375490     
   5.6999999999999995E-002     1.1575501462036755     
   5.7300000000000004E-002     1.6504334729921197     
   5.7599999999999998E-002     1.9436553949375934     
   5.7900000000000007E-002     2.0565599162646038     
   5.8200000000000002E-002     2.0241621837905157     
   5.8499999999999996E-002     1.8848968157613371     
   5.8800000000000005E-002     1.6850304781667198     
   5.9100000000000000E-002     1.4697364510160504     
   5.9400000000000008E-002     1.2806877364693179     
   5.9700000000000003E-002     1.1543479726182397     
   6.0000000000000012E-002     1.1156833447810186     
   6.0300000000000006E-002     1.1812823755444750     
   6.0600000000000001E-002     1.3527540232151072     
   6.0900000000000010E-002     1.6236720575465498     
   6.1200000000000004E-002     1.9731266411963304     
   6.1500000000000013E-002     2.3762773773546186     
   6.1800000000000008E-002     2.7985947372065780     
   6.2100000000000002E-002     3.2068571351257091     
   6.2399999999999997E-002     3.5647434922955341     
   6.2700000000000006E-002     3.8421310026427733     
   6.3000000000000000E-002     4.0122698495915472     
   6.3300000000000009E-002     4.0572443381265089     
   6.3600000000000004E-002     3.9671677721119352     
   6.3899999999999998E-002     3.7408517422555860     
   6.4199999999999993E-002     3.3872672425633823     
   6.4500000000000002E-002     2.9218114438372567     
   6.4800000000000010E-002     2.3678825060566453     
   6.5100000000000005E-002     1.7540553560769467     
   6.5400000000000000E-002     1.1113380640709636     
   6.5700000000000008E-002    0.47503847546843492     
   6.5999999999999989E-002   -0.12578422389389488     
   6.6299999999999998E-002   -0.65819001463522397     
   6.6600000000000006E-002    -1.1010806748440274     
   6.6900000000000001E-002    -1.4338516009413027     
   6.7199999999999996E-002    -1.6482701460535267     
   6.7500000000000004E-002    -1.7417797033298825     
   6.7800000000000013E-002    -1.7210428961791742     
   6.8099999999999994E-002    -1.6017853398229605     
   6.8400000000000002E-002    -1.4037025663190832     
   6.8700000000000011E-002    -1.1540606950805241     
   6.8999999999999992E-002   -0.87989663965740306     
   6.9300000000000000E-002   -0.60960105860151792     
   6.9600000000000009E-002   -0.36898760167442735     
   6.9900000000000004E-002   -0.17835179159450210     
   7.0199999999999999E-002    -5.3557915884860890E-002
   7.0500000000000007E-002    -9.5775056499025624E-004
   7.0800000000000016E-002    -2.1756511006394863E-002
   7.1099999999999997E-002   -0.11006475200569144     
   7.1400000000000005E-002   -0.25230289789749960     
   7.1700000000000000E-002   -0.43503309207585072     
   7.1999999999999995E-002   -0.63731231157481516     
   7.2300000000000003E-002   -0.84370711882726379     
   7.2600000000000012E-002    -1.0345630663125664     
   7.2900000000000006E-002    -1.1978846121024915     
   7.3200000000000001E-002    -1.3197196436591092     
   7.3499999999999996E-002    -1.3950996595115086     
   7.3800000000000004E-002    -1.4183968302394874     
   7.4099999999999999E-002    -1.3890536338378894     
   7.4400000000000008E-002    -1.3088759147606623     
   7.4700000000000003E-002    -1.1800205500901413     
   7.5000000000000011E-002    -1.0078888197224174     
   7.5299999999999992E-002   -0.79770439165591966     
   7.5600000000000001E-002   -0.55519313450469276     
   7.5900000000000009E-002   -0.28833809585922898     
   7.6200000000000004E-002    -5.5771235195534175E-003
   7.6499999999999999E-002    0.28300354359740254     
   7.6800000000000007E-002    0.56473730297141422     
   7.7099999999999988E-002    0.82729204694223935     
   7.7399999999999997E-002     1.0547542270022476     
   7.7700000000000005E-002     1.2340616659747425     
   7.8000000000000014E-002     1.3507394251716001     
   7.8299999999999995E-002     1.3949409489739537     
   7.8600000000000003E-002     1.3596603067304649     
   7.8900000000000012E-002     1.2440345174135707     
   7.9199999999999993E-002     1.0531379625688437     
   7.9500000000000001E-002    0.79762111597714735     
   7.9800000000000010E-002    0.49625839153796214     
   8.0100000000000018E-002    0.16849911429324704     
   8.0399999999999999E-002   -0.15773476807372511     
   8.0700000000000008E-002   -0.45996532528831224     
   8.1000000000000003E-002   -0.71248756607637631     
   8.1299999999999997E-002   -0.89708769634886920     
   8.1600000000000006E-002    -1.0002274512832070     
   8.1900000000000014E-002    -1.0149389866170235     
   8.2199999999999995E-002   -0.94515529301686207     
   8.2500000000000004E-002   -0.79776824859307904     
   8.2799999999999999E-002   -0.59156368162444639     
   8.3100000000000007E-002   -0.34380808283806452     
   8.3400000000000002E-002    -8.0543942748506847E-002
   8.3700000000000011E-002    0.17844576983993132     
   8.4000000000000005E-002    0.41000547554739430     
   8.4300000000000000E-002    0.59991716928284777     
   8.4599999999999995E-002    0.73518296968582142     
   8.4900000000000003E-002    0.81160188686175871     
   8.5199999999999998E-002    0.82932139402783256     
   8.5500000000000007E-002    0.79332464777726264     
   8.5800000000000001E-002    0.71509733717719204     
   8.6100000000000010E-002    0.60435462614073643     
   8.6399999999999991E-002    0.47707861755360170     
   8.6699999999999999E-002    0.34405592433711174     
   8.7000000000000008E-002    0.21871002321938526     
   8.7300000000000003E-002    0.10991760039842480     
   8.7599999999999997E-002     2.4054171417473347E-002
   8.7900000000000006E-002    -3.4464282836924376E-002
   8.8200000000000014E-002    -6.6256067920346329E-002
   8.8499999999999995E-002    -7.1451719736140840E-002
   8.8800000000000004E-002    -5.6939936487174325E-002
   8.9100000000000013E-002    -2.6126589877736750E-002
   8.9399999999999993E-002     1.1223272520927363E-002
   8.9700000000000002E-002     4.8584165217577024E-002
   9.0000000000000011E-002     7.8298978089034632E-002
   9.0299999999999991E-002     9.2202252974469268E-002
   9.0600000000000000E-002     8.6603147775909939E-002
   9.0900000000000009E-002     5.5849533354608183E-002
   9.1200000000000017E-002     6.6980215095213680E-004
   9.1499999999999998E-002    -7.9206651250011362E-002
   9.1800000000000007E-002   -0.17851082661172413     
   9.2100000000000001E-002   -0.29232212015820203     
   9.2399999999999996E-002   -0.41149827503674263     
   9.2700000000000005E-002   -0.52760336440190048     
   9.3000000000000013E-002   -0.63077565793825796     
   9.3300000000000008E-002   -0.71242232458398647     
   9.3600000000000003E-002   -0.76472737252777989     
   9.3899999999999997E-002   -0.78259323376004630     
   9.4200000000000006E-002   -0.76272951781780307     
   9.4500000000000001E-002   -0.70566962654325849     
   9.4800000000000009E-002   -0.61328033504484125     
   9.5100000000000004E-002   -0.49167659960531296     
   9.5399999999999999E-002   -0.34696192219068500     
   9.5699999999999993E-002   -0.18814070116450754     
   9.6000000000000002E-002    -2.4555964595305957E-002
   9.6300000000000011E-002    0.13510467711848140     
   9.6600000000000005E-002    0.28179585897707504     
   9.6900000000000000E-002    0.40880861465153373     
   9.7200000000000009E-002    0.50916839379838574     
   9.7499999999999989E-002    0.57995472992067509     
   9.7799999999999998E-002    0.61780592966854542     
   9.8100000000000007E-002    0.62320112464914601     
   9.8400000000000015E-002    0.59767465176339307     
   9.8699999999999996E-002    0.54419038527337449     
   9.9000000000000005E-002    0.46846074576662033     
   9.9300000000000013E-002    0.37510814466267739     
   9.9599999999999994E-002    0.27265543429012418     
   9.9900000000000003E-002    0.16689621387260045     
  0.10020000000000001          6.6134377033611691E-002
  0.10049999999999999         -2.3665074348236281E-002
  0.10080000000000000         -9.6988852366791001E-002
  0.10110000000000001        -0.14872174387354598     
  0.10140000000000000        -0.17790169471542328     
  0.10170000000000000        -0.18241681414114819     
  0.10200000000000001        -0.16505532282721236     
  0.10230000000000002        -0.12755278690851690     
  0.10260000000000000         -7.5490682413331900E-002
  0.10290000000000001         -1.4007094444308088E-002
  0.10320000000000000          5.0819091902733593E-002
  0.10350000000000001         0.11223082682868324     
  0.10380000000000000         0.16558396212312010     
  0.10410000000000001         0.20501767360473266     
  0.10440000000000001         0.22787900704445985     
  0.10470000000000000         0.23147334014691889     
  0.10500000000000000         0.21574805541400188     
  0.10530000000000000         0.18171399883302897     
  0.10560000000000000         0.13090889661781091     
  0.10590000000000001          6.8000980549850487E-002
  0.10620000000000000         -4.1841764421772787E-003
  0.10650000000000001         -7.9914585640548541E-002
  0.10679999999999999        -0.15511080308829062     
  0.10710000000000000        -0.22481758651344885     
  0.10740000000000001        -0.28466713131569854     
  0.10770000000000000        -0.33124351273306818     
  0.10800000000000000        -0.36150953055616508     
  0.10830000000000001        -0.37372938634442221     
  0.10859999999999999        -0.36737724726118515     
  0.10890000000000000        -0.34250106752224774     
  0.10920000000000001        -0.30141417350347943     
  0.10950000000000001        -0.24548730070113312     
  0.10979999999999999        -0.18030973782207127     
  0.11009999999999999        -0.10769978376810130     
  0.11040000000000001         -3.4807259091142684E-002
  0.11070000000000001          3.5981026579099851E-002
  0.11100000000000000          9.9109082796667192E-002
  0.11130000000000000         0.15142486549234446     
  0.11160000000000002         0.19062780860619810     
  0.11190000000000001         0.21373714528059573     
  0.11220000000000001         0.22227557874459203     
  0.11250000000000000         0.21478368864649244     
  0.11280000000000000         0.19500874312090311     
  0.11309999999999999         0.16346619705484411     
  0.11340000000000001         0.12475335318470249     
  0.11369999999999998          8.1105740177785268E-002
  0.11400000000000000          3.6763713727662517E-002
  0.11430000000000000         -5.6731772771895783E-003
  0.11460000000000002         -4.2638108649284190E-002
  0.11489999999999999         -7.2190688665876079E-002
  0.11520000000000001         -9.2078640418759128E-002
  0.11550000000000001        -0.10118127877681715     
  0.11580000000000000         -9.9151045934598780E-002
  0.11609999999999999         -8.5971174409021245E-002
  0.11640000000000002         -6.3118877870190992E-002
  0.11670000000000001         -3.1854282450558102E-002
  0.11700000000000001          4.8895035785713192E-003
  0.11730000000000000          4.4606282885168769E-002
  0.11760000000000000          8.3822923716604825E-002
  0.11789999999999999         0.11947011879915848     
  0.11820000000000001         0.14868094631942208     
  0.11850000000000001         0.16856184662622953     
  0.11880000000000000         0.17808391460434692     
  0.11910000000000000         0.17512716134878570     
  0.11940000000000002         0.16127569152234589     
  0.11970000000000001         0.13602187902977514     
  0.12000000000000001         0.10245198741073835     
  0.12030000000000000          6.1987523653715293E-002
  0.12060000000000000          1.8364693323309755E-002
  0.12089999999999999         -2.6962286557113746E-002
  0.12119999999999999         -6.9241105958844695E-002
  0.12150000000000001        -0.10770173952240603     
  0.12180000000000001        -0.13901006740133082     
  0.12210000000000000        -0.16180079740190534     
  0.12239999999999999        -0.17551184479965576     
  0.12270000000000002        -0.17866203088438581     
  0.12300000000000001        -0.17251154119581535     
  0.12330000000000001        -0.15614554785037971     
  0.12360000000000000        -0.13229337029450594     
  0.12390000000000000        -0.10045325579030928     
  0.12419999999999999         -6.5014046735549336E-002
  0.12450000000000001         -2.6062815716034526E-002
  0.12480000000000001          1.2205702735410551E-002
  0.12509999999999999          4.8136306519374505E-002
  0.12540000000000001          7.9160475929176299E-002
  0.12570000000000003         0.10279585993227536     
  0.12600000000000000         0.11764295901810073     
  0.12630000000000002         0.12287257348356073     
  0.12659999999999999         0.11797426619196338     
  0.12690000000000001         0.10424909149338690     
  0.12719999999999998          8.2343826672226950E-002
  0.12750000000000000          5.5071751344638376E-002
  0.12780000000000002          2.4248917323885899E-002
  0.12809999999999999         -7.3303102626776084E-003
  0.12840000000000001         -3.7597976167805379E-002
  0.12869999999999998         -6.3601332567618352E-002
  0.12900000000000000         -8.4475047084622501E-002
  0.12930000000000003         -9.8416051794652848E-002
  0.12959999999999999        -0.10505523764123303     
  0.12990000000000002        -0.10439959902474483     
  0.13019999999999998         -9.6529746913590397E-002
  0.13050000000000000         -8.2725895648349201E-002
  0.13080000000000003         -6.3197202297310628E-002
  0.13109999999999999         -3.9807170768360489E-002
  0.13140000000000002         -1.4063917718000418E-002
  0.13169999999999998          1.2886076313069372E-002
  0.13200000000000001          3.8963791933737141E-002
  0.13229999999999997          6.3024022242934352E-002
  0.13260000000000000          8.3223573253904615E-002
  0.13290000000000002          9.8229006594463097E-002
  0.13319999999999999         0.10698781275036806     
  0.13350000000000001         0.10858580856729061     
  0.13380000000000003         0.10369663262110951     
  0.13410000000000000          9.1398783312798049E-002
  0.13440000000000002          7.4170042352644572E-002
  0.13469999999999999          5.1793577542616598E-002
  0.13500000000000001          2.7613321660880152E-002
  0.13529999999999998          2.1907509719733889E-003
  0.13560000000000000         -2.1467272371489599E-002
  0.13590000000000002         -4.2400313290628544E-002
  0.13619999999999999         -5.8513469337677093E-002
  0.13650000000000001         -6.9473759266179602E-002
  0.13680000000000003         -7.4633037290424697E-002
  0.13710000000000000         -7.3915329404075969E-002
  0.13740000000000002         -6.8192831355498251E-002
  0.13769999999999999         -5.7827863563235882E-002
  0.13800000000000001         -4.4362713608970816E-002
  0.13829999999999998         -2.8766803933696683E-002
  0.13860000000000000         -1.1920144021651258E-002
  0.13890000000000002          4.8251466348587513E-003
  0.13919999999999999          2.0271622144110713E-002
  0.13950000000000001          3.4038772839213971E-002
  0.13979999999999998          4.4683503247884948E-002
  0.14010000000000000          5.2531772416178679E-002
  0.14040000000000002          5.6143768524912652E-002
  0.14069999999999999          5.6211781745629796E-002
  0.14100000000000001          5.1664806086777704E-002
  0.14130000000000004          4.3860630391156397E-002
  0.14160000000000000          3.2157457906327180E-002
  0.14189999999999997          1.8523494565559462E-002
  0.14219999999999999          3.2043080309485349E-003
  0.14250000000000002         -1.2866377560548370E-002
  0.14279999999999998         -2.7128615854731364E-002
  0.14310000000000000         -4.0481263040824222E-002
  0.14339999999999997         -5.0038384451497997E-002
  0.14369999999999999         -5.6686986594985500E-002
  0.14400000000000002         -5.8775185537484953E-002
  0.14429999999999998         -5.7574651170446689E-002
  0.14460000000000001         -5.2659803755280343E-002
  0.14490000000000003         -4.4355320033310885E-002
  0.14520000000000000         -3.4653479621775563E-002
  0.14550000000000002         -2.2239264641554346E-002
  0.14579999999999999         -1.0373573489098287E-002
  0.14610000000000001          2.4393699182213915E-003
  0.14640000000000003          1.4033829625655303E-002
  0.14670000000000000          2.4623411205678347E-002
  0.14699999999999996          3.4152889795574515E-002
  0.14729999999999999          4.0838590752485748E-002
  0.14760000000000001          4.5989278760500074E-002
  0.14789999999999998          4.8405710545981417E-002
  0.14820000000000000          4.7983507353390964E-002