  -1.4999999999999999E-002     0.0000000000000000     
  -1.4700000000000000E-002     0.0000000000000000     
  -1.4400000000000000E-002     0.0000000000000000     
  -1.4100000000000000E-002     0.0000000000000000     
  -1.3800000000000000E-002     0.0000000000000000     
  -1.3500000000000000E-002     0.0000000000000000     
  -1.3200000000000000E-002     0.0000000000000000     
  -1.2899999999999998E-002     0.0000000000000000     
  -1.2600000000000000E-002     0.0000000000000000     
  -1.2299999999999998E-002     0.0000000000000000     
  -1.2000000000000000E-002     0.0000000000000000     
  -1.1699999999999999E-002     0.0000000000000000     
  -1.1399999999999999E-002     0.0000000000000000     
  -1.1099999999999999E-002     0.0000000000000000     
  -1.0799999999999999E-002     0.0000000000000000     
  -1.0499999999999999E-002     0.0000000000000000     
  -1.0199999999999999E-002     0.0000000000000000     
  -9.8999999999999991E-003     0.0000000000000000     
  -9.5999999999999992E-003     0.0000000000000000     
  -9.2999999999999992E-003     0.0000000000000000     
  -8.9999999999999993E-003     0.0000000000000000     
  -8.6999999999999994E-003     0.0000000000000000     
  -8.3999999999999995E-003     0.0000000000000000     
  -8.0999999999999996E-003     0.0000000000000000     
  -7.7999999999999988E-003     0.0000000000000000     
  -7.4999999999999997E-003     0.0000000000000000     
  -7.1999999999999998E-003     0.0000000000000000     
  -6.8999999999999981E-003     0.0000000000000000     
  -6.5999999999999982E-003     0.0000000000000000     
  -6.3000000000000000E-003     0.0000000000000000     
  -6.0000000000000001E-003     0.0000000000000000     
  -5.6999999999999985E-003     0.0000000000000000     
  -5.3999999999999986E-003     0.0000000000000000     
  -5.1000000000000004E-003     0.0000000000000000     
  -4.7999999999999987E-003     0.0000000000000000     
  -4.5000000000000005E-003     0.0000000000000000     
  -4.1999999999999989E-003     0.0000000000000000     
  -3.8999999999999990E-003     0.0000000000000000     
  -3.5999999999999990E-003     0.0000000000000000     
  -3.2999999999999991E-003     0.0000000000000000     
  -2.9999999999999992E-003     0.0000000000000000     
  -2.6999999999999993E-003     0.0000000000000000     
  -2.3999999999999994E-003     0.0000000000000000     
  -2.0999999999999977E-003     0.0000000000000000     
  -1.7999999999999995E-003     0.0000000000000000     
  -1.4999999999999979E-003     0.0000000000000000     
  -1.1999999999999997E-003     0.0000000000000000     
  -8.9999999999999976E-004     0.0000000000000000     
  -5.9999999999999810E-004     0.0000000000000000     
  -2.9999999999999992E-004     0.0000000000000000     
   0.0000000000000000          0.0000000000000000     
   3.0000000000000165E-004     0.0000000000000000     
   5.9999999999999984E-004     0.0000000000000000     
   9.0000000000000149E-004     0.0000000000000000     
   1.2000000000000031E-003     0.0000000000000000     
   1.5000000000000013E-003     0.0000000000000000     
   1.8000000000000030E-003     0.0000000000000000     
   2.1000000000000012E-003     0.0000000000000000     
   2.3999999999999994E-003     0.0000000000000000     
   2.7000000000000010E-003     0.0000000000000000     
   2.9999999999999992E-003     0.0000000000000000     
   3.3000000000000008E-003     0.0000000000000000     
   3.6000000000000025E-003     0.0000000000000000     
   3.9000000000000007E-003     0.0000000000000000     
   4.2000000000000023E-003     0.0000000000000000     
   4.5000000000000005E-003     0.0000000000000000     
   4.7999999999999987E-003     0.0000000000000000     
   5.1000000000000004E-003     0.0000000000000000     
   5.4000000000000020E-003     0.0000000000000000     
   5.7000000000000037E-003     0.0000000000000000     
   5.9999999999999984E-003     0.0000000000000000     
   6.3000000000000000E-003     0.0000000000000000     
   6.6000000000000017E-003     0.0000000000000000     
   6.9000000000000034E-003     0.0000000000000000     
   7.2000000000000015E-003     0.0000000000000000     
   7.5000000000000032E-003     0.0000000000000000     
   7.8000000000000014E-003     0.0000000000000000     
   8.0999999999999996E-003     0.0000000000000000     
   8.4000000000000012E-003     0.0000000000000000     
   8.7000000000000029E-003     0.0000000000000000     
   9.0000000000000011E-003     0.0000000000000000     
   9.2999999999999992E-003     0.0000000000000000     
   9.6000000000000009E-003     0.0000000000000000     
   9.8999999999999991E-003     0.0000000000000000     
   1.0200000000000001E-002     0.0000000000000000     
   1.0500000000000002E-002     0.0000000000000000     
   1.0800000000000004E-002     0.0000000000000000     
   1.1099999999999999E-002     0.0000000000000000     
   1.1400000000000000E-002     0.0000000000000000     
   1.1700000000000002E-002     0.0000000000000000     
   1.2000000000000004E-002     0.0000000000000000     
   1.2300000000000002E-002     0.0000000000000000     
   1.2600000000000000E-002     2.6686039175014288E-036
   1.2900000000000002E-002     1.7626975085384172E-036
   1.3200000000000000E-002    -7.2723984134254802E-035
   1.3500000000000002E-002     9.9206924804726811E-035
   1.3800000000000003E-002     1.7939662394167892E-036
   1.4100000000000001E-002     5.6340002417622560E-034
   1.4400000000000000E-002    -1.0717046281294106E-033
   1.4700000000000001E-002    -6.0100913941131926E-035
   1.4999999999999999E-002     4.7634675127806639E-033
   1.5300000000000001E-002    -1.4217905393622966E-032
   1.5600000000000003E-002     2.1261448441966912E-032
   1.5899999999999997E-002    -2.5237353106795874E-033
   1.6199999999999999E-002    -6.6788779582223911E-032
   1.6500000000000001E-002     1.8137119639331616E-031
   1.6800000000000002E-002    -2.5040815594126173E-031
   1.7100000000000004E-002     7.0214281792483385E-032
   1.7400000000000006E-002     5.9014885142919579E-031
   1.7700000000000000E-002    -1.7055736541730512E-030
   1.8000000000000002E-002     2.5186685509306152E-030
   1.8300000000000004E-002    -1.1229044262783635E-030
   1.8600000000000005E-002    -5.2019932035187635E-030
   1.8900000000000000E-002     1.7424757884611835E-029
   1.9200000000000002E-002    -2.8167733540618590E-029
   1.9500000000000003E-002     1.2958801691374572E-029
   1.9799999999999998E-002     6.6007643743757859E-029
   2.0100000000000000E-002    -2.1258737319411994E-028
   2.0400000000000001E-002     2.9182549963593080E-028
   2.0700000000000003E-002     3.7971598672352285E-029
   2.0999999999999998E-002    -1.0867641342048183E-027
   2.1299999999999999E-002     2.3531955766195997E-027
   2.1600000000000001E-002    -1.6739102629915053E-027
   2.1900000000000003E-002    -3.9244354772407937E-027
   2.2200000000000004E-002     1.3683964907208593E-026
   2.2500000000000006E-002    -1.6702673665016968E-026
   2.2800000000000001E-002    -6.6785041273208635E-027
   2.3100000000000002E-002     6.2961589621485853E-026
   2.3400000000000004E-002    -1.0778349529073756E-025
   2.3699999999999999E-002     3.7175359818403817E-026
   2.4000000000000000E-002     2.2473555110430961E-025
   2.4300000000000002E-002    -5.4141215045883608E-025
   2.4599999999999997E-002     4.5773303968422518E-025
   2.4900000000000005E-002     5.2364197388498811E-025
   2.5200000000000000E-002    -2.1836127395842635E-024
   2.5499999999999995E-002     2.8916039635369959E-024
   2.5800000000000003E-002    -1.4382546536654091E-025
   2.6099999999999998E-002    -6.8274838496047471E-024
   2.6400000000000007E-002     1.3487969001017827E-023
   2.6700000000000002E-002    -9.9332095119372401E-024
   2.6999999999999996E-002    -9.0190853835761838E-024
   2.7300000000000005E-002     2.8270143203141246E-023
   2.7600000000000000E-002    -4.6189077644469457E-023
   2.7900000000000008E-002     2.5159063857389380E-022
   2.8200000000000003E-002    -1.0910896991260693E-021
   2.8499999999999998E-002     1.7245639386802671E-021
   2.8800000000000006E-002     5.0225663624138250E-021
   2.9100000000000001E-002    -3.4718476368863962E-020
   2.9400000000000003E-002     8.0832974800431238E-020
   2.9700000000000004E-002    -1.9046638166426141E-020
   3.0000000000000006E-002    -4.6930510813381130E-019
   3.0300000000000001E-002     1.6003691819707644E-018
   3.0600000000000002E-002    -2.3130765797453083E-018
   3.0900000000000004E-002    -1.8900799891331477E-018
   3.1199999999999999E-002     2.0306294730164216E-017
   3.1500000000000007E-002    -5.6220686908371113E-017
   3.1800000000000002E-002     4.5354663710862230E-017
   3.2099999999999997E-002     2.8262966879879961E-016
   3.2400000000000005E-002    -1.3191266545273662E-015
   3.2700000000000000E-002     2.1267146538565731E-015
   3.3000000000000002E-002     3.1634942044823878E-015
   3.3300000000000003E-002    -2.4998320741990293E-014
   3.3599999999999998E-002     5.4147001281572987E-014
   3.3900000000000000E-002    -4.2684107794512330E-015
   3.4200000000000001E-002    -2.8912503359339314E-013
   3.4500000000000003E-002     7.8183694327688125E-013
   3.4799999999999998E-002    -6.1766520717543294E-013
   3.5099999999999999E-002    -1.8301024758138329E-012
   3.5400000000000001E-002     6.4822001932807183E-012
   3.5699999999999996E-002    -7.3719658849613623E-012
   3.6000000000000004E-002    -5.6550441412950292E-012
   3.6299999999999999E-002     3.0536632250610651E-011
   3.6600000000000008E-002    -3.3928988091291856E-011
   3.6900000000000002E-002    -2.5384517404747342E-011
   3.7199999999999997E-002     1.0140912415357306E-010
   3.7500000000000006E-002     1.7931956267092097E-011
   3.7800000000000000E-002    -5.4858795284218331E-010
   3.8100000000000009E-002     1.1099188235164092E-009
   3.8400000000000004E-002     2.7928659385167975E-010
   3.8699999999999998E-002    -7.6288202421892493E-009
   3.9000000000000007E-002     2.0969022074268651E-008
   3.9300000000000002E-002    -1.0679599427021458E-008
   3.9600000000000003E-002    -1.0314195719729469E-007
   3.9900000000000005E-002     2.7166845484316582E-007
   4.0200000000000000E-002     6.9225208676471084E-008
   4.0500000000000001E-002    -1.5666940953451558E-006
   4.0800000000000003E-002     1.2489895198086742E-006
   4.1100000000000005E-002     1.2933978723594919E-005
   4.1399999999999999E-002     2.7856174710905179E-005
   4.1700000000000008E-002     4.0361330320592970E-005
   4.2000000000000003E-002     4.6971974370535463E-005
   4.2299999999999997E-002     5.2554587455233559E-005
   4.2600000000000006E-002     7.5299438321962953E-005
   4.2900000000000001E-002     1.2285394768696278E-004
   4.3200000000000002E-002     1.9235501531511545E-004
   4.3500000000000004E-002     2.9055424965918064E-004
   4.3799999999999999E-002     4.3039215961471200E-004
   4.4100000000000000E-002     6.2100589275360107E-004
   4.4400000000000002E-002     8.6795503739267588E-004
   4.4700000000000004E-002     1.1844340479001403E-003
   4.4999999999999998E-002     1.5913570532575250E-003
   4.5300000000000000E-002     2.1023768931627274E-003
   4.5600000000000002E-002     2.7124993503093719E-003
   4.5899999999999996E-002     3.4110690467059612E-003
   4.6200000000000005E-002     4.1787745431065559E-003
   4.6500000000000000E-002     4.9721980467438698E-003
   4.6799999999999994E-002     5.7198884896934032E-003
   4.7100000000000003E-002     6.2770866788923740E-003
   4.7399999999999998E-002     6.4413412474095821E-003
   4.7700000000000006E-002     5.9929550625383854E-003
   4.8000000000000001E-002     4.6598496846854687E-003
   4.8300000000000010E-002     2.0951780024915934E-003
   4.8600000000000004E-002    -2.1232741419225931E-003
   4.8899999999999999E-002    -8.4465239197015762E-003
   4.9200000000000008E-002    -1.7287829890847206E-002
   4.9500000000000002E-002    -2.9001271352171898E-002
   4.9800000000000011E-002    -4.3880537152290344E-002
   5.0100000000000006E-002    -6.2092274427413940E-002
   5.0400000000000000E-002    -8.3612412214279175E-002
   5.0700000000000009E-002   -0.10815860331058502     
   5.1000000000000004E-002   -0.13511502742767334     
   5.1299999999999998E-002   -0.16363778710365295     
   5.1600000000000007E-002   -0.19265843927860260     
   5.1900000000000002E-002   -0.22084651887416840     
   5.2200000000000010E-002   -0.24671678245067596     
   5.2500000000000005E-002   -0.26877716183662415     
   5.2800000000000000E-002   -0.28559830784797668     
   5.3099999999999994E-002   -0.29598495364189148     
   5.3400000000000003E-002   -0.29905754327774048     
   5.3699999999999998E-002   -0.29442352056503296     
   5.4000000000000006E-002   -0.28203788399696350     
   5.4300000000000001E-002   -0.26237553358078003     
   5.4599999999999996E-002   -0.23623906075954437     
   5.4900000000000004E-002   -0.20474471151828766     
   5.5199999999999999E-002   -0.16908614337444305     
   5.5499999999999994E-002   -0.13044081628322601     
   5.5800000000000002E-002    -8.9835070073604584E-002
   5.6099999999999997E-002    -4.7961059957742691E-002
   5.6400000000000006E-002    -5.2240565419197083E-003
   5.6700000000000000E-002     3.8287173956632614E-002
   5.6999999999999995E-002     8.2741245627403259E-002
   5.7300000000000004E-002    0.12836092710494995     
   5.7599999999999998E-002    0.17532512545585632     
   5.7900000000000007E-002    0.22354331612586975     
   5.8200000000000002E-002    0.27267107367515564     
   5.8499999999999996E-002    0.32194221019744873     
   5.8800000000000005E-002    0.37022358179092407     
   5.9100000000000000E-002    0.41620731353759766     
   5.9400000000000008E-002    0.45845133066177368     
   5.9700000000000003E-002    0.49567982554435730     
   6.0000000000000012E-002    0.52683967351913452     
   6.0300000000000006E-002    0.55142915248870850     
   6.0600000000000001E-002    0.56930947303771973     
   6.0900000000000010E-002    0.58083271980285645     
   6.1200000000000004E-002    0.58657735586166382     
   6.1500000000000013E-002    0.58718466758728027     
   6.1800000000000008E-002    0.58321338891983032     
   6.2100000000000002E-002    0.57473707199096680     
   6.2399999999999997E-002    0.56142640113830566     
   6.2700000000000006E-002    0.54226124286651611     
   6.3000000000000000E-002    0.51598477363586426     
   6.3300000000000009E-002    0.48117226362228394     
   6.3600000000000004E-002    0.43666833639144897     
   6.3899999999999998E-002    0.38193723559379578     
   6.4199999999999993E-002    0.31739699840545654     
   6.4500000000000002E-002    0.24492926895618439     
   6.4800000000000010E-002    0.16759842634201050     
   6.5100000000000005E-002     8.9686810970306396E-002
   6.5400000000000000E-002     1.6572235152125359E-002
   6.5700000000000008E-002    -4.6430215239524841E-002
   6.5999999999999989E-002    -9.3977130949497223E-002
   6.6299999999999998E-002   -0.12247467041015625     
   6.6600000000000006E-002   -0.12932358682155609     
   6.6900000000000001E-002   -0.11481371521949768     
   6.7199999999999996E-002    -8.1268437206745148E-002
   6.7500000000000004E-002    -3.3560767769813538E-002
   6.7800000000000013E-002     2.1455211564898491E-002
   6.8099999999999994E-002     7.5904794037342072E-002
   6.8400000000000002E-002    0.12111066281795502     
   6.8700000000000011E-002    0.14930176734924316     
   6.8999999999999992E-002    0.15390913188457489     
   6.9300000000000000E-002    0.13028918206691742     
   6.9600000000000009E-002     7.6798170804977417E-002
   6.9900000000000004E-002    -6.0224551707506180E-003
   7.0199999999999999E-002   -0.11494993418455124     
   7.0500000000000007E-002   -0.24455386400222778     
   7.0800000000000016E-002   -0.38823041319847107     
   7.1099999999999997E-002   -0.53869903087615967     
   7.1400000000000005E-002   -0.68868714570999146     
   7.1700000000000000E-002   -0.83165341615676880     
   7.1999999999999995E-002   -0.96196997165679932     
   7.2300000000000003E-002    -1.0755735635757446     
   7.2600000000000012E-002    -1.1692069768905640     
   7.2900000000000006E-002    -1.2409065961837769     
   7.3200000000000001E-002    -1.2891073226928711     
   7.3499999999999996E-002    -1.3126356601715088     
   7.3800000000000004E-002    -1.3102242946624756     
   7.4099999999999999E-002    -1.2804117202758789     
   7.4400000000000008E-002    -1.2216982841491699     
   7.4700000000000003E-002    -1.1323516368865967     
   7.5000000000000011E-002    -1.0114148855209351     
   7.5299999999999992E-002   -0.85885483026504517     
   7.5600000000000001E-002   -0.67583012580871582     
   7.5900000000000009E-002   -0.46592670679092407     
   7.6200000000000004E-002   -0.23458367586135864     
   7.6499999999999999E-002     9.8812887445092201E-003
   7.6800000000000007E-002    0.25734332203865051     
   7.7099999999999988E-002    0.49581670761108398     
   7.7399999999999997E-002    0.71188205480575562     
   7.7700000000000005E-002    0.89249002933502197     
   7.8000000000000014E-002     1.0252484083175659     
   7.8299999999999995E-002     1.0997469425201416     
   7.8600000000000003E-002     1.1087882518768311     
   7.8900000000000012E-002     1.0485988855361938     
   7.9199999999999993E-002    0.92033952474594116     
   7.9500000000000001E-002    0.72934997081756592     
   7.9800000000000010E-002    0.48591727018356323     
   8.0100000000000018E-002    0.20385541021823883     
   8.0399999999999999E-002    -9.9500112235546112E-002
   8.0700000000000008E-002   -0.40464299917221069     
   8.1000000000000003E-002   -0.69168013334274292     
   8.1299999999999997E-002   -0.94061982631683350     
   8.1600000000000006E-002    -1.1341263055801392     
   8.1900000000000014E-002    -1.2577104568481445     
   8.2199999999999995E-002    -1.3008798360824585     
   8.2500000000000004E-002    -1.2590332031250000     
   8.2799999999999999E-002    -1.1318887472152710     
   8.3100000000000007E-002   -0.92593568563461304     
   8.3400000000000002E-002   -0.65174210071563721     
   8.3700000000000011E-002   -0.32528132200241089     
   8.4000000000000005E-002     3.4408655017614365E-002
   8.4300000000000000E-002    0.40588340163230896     
   8.4599999999999995E-002    0.76676845550537109     
   8.4900000000000003E-002     1.0952689647674561     
   8.5199999999999998E-002     1.3720159530639648     
   8.5500000000000007E-002     1.5805524587631226     
   8.5800000000000001E-002     1.7099174261093140     
   8.6100000000000010E-002     1.7535912990570068     
   8.6399999999999991E-002     1.7118675708770752     
   8.6699999999999999E-002     1.5907673835754395     
   8.7000000000000008E-002     1.4014908075332642     
   8.7300000000000003E-002     1.1612000465393066     
   8.7599999999999997E-002    0.88888025283813477     
   8.7900000000000006E-002    0.60750168561935425     
   8.8200000000000014E-002    0.33906197547912598     
   8.8499999999999995E-002    0.10508497804403305     
   8.8800000000000004E-002    -7.6200187206268311E-002
   8.9100000000000013E-002   -0.19105835258960724     
   8.9399999999999993E-002   -0.23070019483566284     
   8.9700000000000002E-002   -0.19292311370372772     
   9.0000000000000011E-002    -8.1426069140434265E-002
   9.0299999999999991E-002     9.4324998557567596E-002
   9.0600000000000000E-002    0.31942167878150940     
   9.0900000000000009E-002    0.57598328590393066     
   9.1200000000000017E-002    0.84280270338058472     
   9.1499999999999998E-002     1.0988670587539673     
   9.1800000000000007E-002     1.3236736059188843     
   9.2100000000000001E-002     1.4988893270492554     
   9.2399999999999996E-002     1.6102085113525391     
   9.2700000000000005E-002     1.6471728086471558     
   9.3000000000000013E-002     1.6043477058410645     
   9.3300000000000008E-002     1.4814823865890503     
   9.3600000000000003E-002     1.2822828292846680     
   9.3899999999999997E-002     1.0157539844512939     
   9.4200000000000006E-002    0.69292366504669189     
   9.4500000000000001E-002    0.32849463820457458     
   9.4800000000000009E-002    -6.1519816517829895E-002
   9.5100000000000004E-002   -0.46091401576995850     
   9.5399999999999999E-002   -0.85252612829208374     
   9.5699999999999993E-002    -1.2211296558380127     
   9.6000000000000002E-002    -1.5523631572723389     
   9.6300000000000011E-002    -1.8341891765594482     
   9.6600000000000005E-002    -2.0572555065155029     
   9.6900000000000000E-002    -2.2149162292480469     
   9.7200000000000009E-002    -2.3040018081665039     
   9.7499999999999989E-002    -2.3242907524108887     
   9.7799999999999998E-002    -2.2792854309082031     
   9.8100000000000007E-002    -2.1751589775085449     
   9.8400000000000015E-002    -2.0209181308746338     
   9.8699999999999996E-002    -1.8278013467788696     
   9.9000000000000005E-002    -1.6081277132034302     
   9.9300000000000013E-002    -1.3747783899307251     
   9.9599999999999994E-002    -1.1403665542602539     
   9.9900000000000003E-002   -0.91526824235916138     
  0.10020000000000001        -0.70825588703155518     
  0.10049999999999999        -0.52418178319931030     
  0.10080000000000000        -0.36503556370735168     
  0.10110000000000001        -0.22861476242542267     
  0.10140000000000000        -0.10933613032102585     
  0.10170000000000000          3.2793264836072922E-005
  0.10200000000000001         0.10980761051177979     
  0.10230000000000002         0.22864204645156860     
  0.10260000000000000         0.36551195383071899     
  0.10290000000000001         0.52578997611999512     
  0.10320000000000000         0.71133476495742798     
  0.10350000000000001         0.91951626539230347     
  0.10380000000000000          1.1426138877868652     
  0.10410000000000001          1.3683733940124512     
  0.10440000000000001          1.5806912183761597     
  0.10470000000000000          1.7608430385589600     
  0.10500000000000000          1.8897482156753540     
  0.10530000000000000          1.9488980770111084     
  0.10560000000000000          1.9234896898269653     
  0.10590000000000001          1.8033616542816162     
  0.10620000000000000          1.5849539041519165     
  0.10650000000000001          1.2723319530487061     
  0.10679999999999999         0.87642335891723633     
  0.10710000000000000         0.41613346338272095     
  0.10740000000000001         -8.3971209824085236E-002
  0.10770000000000000        -0.59501993656158447     
  0.10800000000000000         -1.0851023197174072     
  0.10830000000000001         -1.5235956907272339     
  0.10859999999999999         -1.8815553188323975     
  0.10890000000000000         -2.1351785659790039     
  0.10920000000000001         -2.2679080963134766     
  0.10950000000000001         -2.2703280448913574     
  0.10979999999999999         -2.1432762145996094     
  0.11009999999999999         -1.8952919244766235     
  0.11040000000000001         -1.5439987182617188     
  0.11070000000000001         -1.1136680841445923     
  0.11100000000000000        -0.63354605436325073     
  0.11130000000000000        -0.13627561926841736     
  0.11160000000000002         0.34555286169052124     
  0.11190000000000001         0.78070890903472900     
  0.11220000000000001          1.1426407098770142     
  0.11250000000000000          1.4102416038513184     
  0.11280000000000000          1.5700702667236328     
  0.11309999999999999          1.6172566413879395     
  0.11340000000000001          1.5549733638763428     
  0.11369999999999998          1.3947710990905762     
  0.11400000000000000          1.1550377607345581     
  0.11430000000000000         0.85977774858474731     
  0.11460000000000002         0.53583151102066040     
  0.11489999999999999         0.21119856834411621     
  0.11520000000000001         -8.7682634592056274E-002
  0.11550000000000001        -0.33847999572753906     
  0.11580000000000000        -0.52509355545043945     
  0.11609999999999999        -0.63837444782257080     
  0.11640000000000002        -0.67802119255065918     
  0.11670000000000001        -0.65111631155014038     
  0.11700000000000001        -0.57223516702651978     
  0.11730000000000000        -0.46080094575881958     
  0.11760000000000000        -0.33948153257369995     
  0.11789999999999999        -0.23068813979625702     
  0.11820000000000001        -0.15358385443687439     
  0.11850000000000001        -0.12252291291952133     
  0.11880000000000000        -0.14405874907970428     
  0.11910000000000000        -0.21588605642318726     
  0.11940000000000002        -0.32740741968154907     
  0.11970000000000001        -0.46008589863777161     
  0.12000000000000001        -0.58933883905410767     
  0.12030000000000000        -0.68782913684844971     
  0.12060000000000000        -0.72829377651214600     
  0.12089999999999999        -0.68669605255126953     
  0.12119999999999999        -0.54565417766571045     
  0.12150000000000001        -0.29718437790870667     
  0.12180000000000001          5.7139590382575989E-002
  0.12210000000000000         0.50376904010772705     
  0.12239999999999999          1.0192108154296875     
  0.12270000000000002          1.5719671249389648     
  0.12300000000000001          2.1232082843780518     
  0.12330000000000001          2.6328029632568359     
  0.12360000000000000          3.0607070922851562     
  0.12390000000000000          3.3709475994110107     
  0.12419999999999999          3.5358679294586182     
  0.12450000000000001          3.5367240905761719     
  0.12480000000000001          3.3665537834167480     
  0.12509999999999999          3.0307624340057373     
  0.12540000000000001          2.5453410148620605     
  0.12570000000000003          1.9375249147415161     
  0.12600000000000000          1.2409523725509644     
  0.12630000000000002         0.49577406048774719     
  0.12659999999999999        -0.25744214653968811     
  0.12690000000000001        -0.97851890325546265     
  0.12719999999999998         -1.6323410272598267     
  0.12750000000000000         -2.1905462741851807     
  0.12780000000000002         -2.6332817077636719     
  0.12809999999999999         -2.9512467384338379     
  0.12840000000000001         -3.1436960697174072     
  0.12869999999999998         -3.2201213836669922     
  0.12900000000000000         -3.1974565982818604     
  0.12930000000000003         -3.0969891548156738     
  0.12959999999999999         -2.9451808929443359     
  0.12990000000000002         -2.7671139240264893     
  0.13019999999999998         -2.5873713493347168     
  0.13050000000000000         -2.4269502162933350     
  0.13080000000000003         -2.2997386455535889     
  0.13109999999999999         -2.2171881198883057     
  0.13140000000000002         -2.1802949905395508     
  0.13169999999999998         -2.1872072219848633     
  0.13200000000000001         -2.2298076152801514     
  0.13229999999999997         -2.2954742908477783     
  0.13260000000000000         -2.3705666065216064     
  0.13290000000000002         -2.4383728504180908     
  0.13319999999999999         -2.4847722053527832     
  0.13350000000000001         -2.4941670894622803     
  0.13380000000000003         -2.4554383754730225     
  0.13410000000000000         -2.3597483634948730     
  0.13440000000000002         -2.2005474567413330     
  0.13469999999999999         -1.9762639999389648     
  0.13500000000000001         -1.6873499155044556     
  0.13529999999999998         -1.3380984067916870     
  0.13560000000000000        -0.93568044900894165     
  0.13590000000000002        -0.48864811658859253     
  0.13619999999999999         -9.0122465044260025E-003
  0.13650000000000001         0.49197924137115479     
  0.13680000000000003          1.0003179311752319     
  0.13710000000000000          1.5027626752853394     
  0.13740000000000002          1.9878402948379517     
  0.13769999999999999          2.4412150382995605     
  0.13800000000000001          2.8544096946716309     
  0.13829999999999998          3.2162590026855469     
  0.13860000000000000          3.5204589366912842     
  0.13890000000000002          3.7610590457916260     
  0.13919999999999999          3.9344797134399414     
  0.13950000000000001          4.0402750968933105     
  0.13979999999999998          4.0782637596130371     
  0.14010000000000000          4.0528368949890137     
  0.14040000000000002          3.9687552452087402     
  0.14069999999999999          3.8335027694702148     
  0.14100000000000001          3.6571006774902344     
  0.14130000000000004          3.4488985538482666     
  0.14160000000000000          3.2213523387908936     
  0.14189999999999997          2.9854962825775146     
  0.14219999999999999          2.7526924610137939     
  0.14250000000000002          2.5336422920227051     
  0.14279999999999998          2.3346335887908936     
  0.14310000000000000          2.1632916927337646     
  0.14339999999999997          2.0199964046478271     
  0.14369999999999999          1.9051736593246460     
  0.14400000000000002          1.8149952888488770     
  0.14429999999999998          1.7413631677627563     
  0.14460000000000001          1.6769641637802124     
  0.14490000000000003          1.6092242002487183     
  0.14520000000000000          1.5285782814025879     
  0.14550000000000002          1.4226279258728027     
  0.14579999999999999          1.2817873954772949     
  0.14610000000000001          1.0989416837692261     
  0.14640000000000003         0.86729925870895386     
  0.14670000000000000         0.58693492412567139     
  0.14699999999999996         0.25826627016067505     
  0.14729999999999999        -0.11279198527336121     
  0.14760000000000001        -0.51655882596969604     
  0.14789999999999998        -0.94236910343170166     
  0.14820000000000000         -1.3731299638748169     