  -1.4999999999999999E-002     0.0000000000000000     
  -1.4700000000000000E-002     0.0000000000000000     
  -1.4400000000000000E-002     0.0000000000000000     
  -1.4100000000000000E-002     0.0000000000000000     
  -1.3800000000000000E-002     0.0000000000000000     
  -1.3500000000000000E-002     0.0000000000000000     
  -1.3200000000000000E-002     0.0000000000000000     
  -1.2899999999999998E-002     0.0000000000000000     
  -1.2600000000000000E-002     0.0000000000000000     
  -1.2299999999999998E-002     0.0000000000000000     
  -1.2000000000000000E-002     0.0000000000000000     
  -1.1699999999999999E-002     0.0000000000000000     
  -1.1399999999999999E-002     0.0000000000000000     
  -1.1099999999999999E-002     0.0000000000000000     
  -1.0799999999999999E-002     0.0000000000000000     
  -1.0499999999999999E-002    -1.6432353481360135E-035
  -1.0199999999999999E-002     9.2412900360647562E-035
  -9.8999999999999991E-003    -1.7468159441849832E-034
  -9.5999999999999992E-003    -2.9651029500286319E-033
  -9.2999999999999992E-003     6.2032379729227566E-033
  -8.9999999999999993E-003     4.4412786171524848E-032
  -8.6999999999999994E-003    -1.1072203458827431E-031
  -8.3999999999999995E-003    -4.5300411359785563E-031
  -8.0999999999999996E-003     1.1658026349986279E-030
  -7.7999999999999988E-003     3.8093472422012771E-030
  -7.4999999999999997E-003    -9.1543595520004060E-030
  -7.1999999999999998E-003    -2.3952014327835221E-029
  -6.8999999999999981E-003     4.2603363892106368E-029
  -6.5999999999999982E-003     1.3161519961569357E-028
  -6.3000000000000000E-003    -6.5238631954026188E-029
  -6.0000000000000001E-003    -5.8505413553284493E-028
  -5.6999999999999985E-003    -1.1310119894911262E-027
  -5.3999999999999986E-003     2.8071272496759604E-027
  -5.1000000000000004E-003     1.1995324939409419E-026
  -4.7999999999999987E-003    -1.6819144663589775E-026
  -4.5000000000000005E-003    -5.2746697552513013E-026
  -4.1999999999999989E-003     5.2599371615487167E-026
  -3.8999999999999990E-003     1.6082440714601890E-025
  -3.5999999999999990E-003    -1.5307776840484527E-025
  -3.2999999999999991E-003     2.8746826012971657E-025
  -2.9999999999999992E-003    -7.3250921810222774E-025
  -2.6999999999999993E-003    -5.4854926103044871E-024
  -2.3999999999999994E-003     1.8361636870451002E-023
  -2.0999999999999977E-003    -3.6929272933386892E-024
  -1.7999999999999995E-003    -5.7917284137112839E-023
  -1.4999999999999979E-003     1.2843723339119379E-022
  -1.1999999999999997E-003    -1.7474369669380376E-022
  -8.9999999999999976E-004    -4.8234445665857360E-023
  -5.9999999999999810E-004     9.6571862292306304E-022
  -2.9999999999999992E-004    -1.7617381947343531E-021
   0.0000000000000000          6.0923073902300495E-022
   3.0000000000000165E-004     2.6230919082918695E-021
   5.9999999999999984E-004    -9.1286464944808723E-021
   9.0000000000000149E-004     1.8617648083589362E-020
   1.2000000000000031E-003    -7.4943839811140083E-021
   1.5000000000000013E-003    -6.0291023499882236E-020
   1.8000000000000030E-003     1.6365750324785753E-019
   2.1000000000000012E-003    -1.5333338447440076E-019
   2.3999999999999994E-003    -2.8948847652336552E-019
   2.7000000000000010E-003     1.2256310320779834E-018
   2.9999999999999992E-003    -1.2423831972409839E-018
   3.3000000000000008E-003    -2.0736123419045758E-018
   3.6000000000000025E-003     7.2286751248192552E-018
   3.9000000000000007E-003    -4.9351700519572579E-018
   4.2000000000000023E-003    -1.3465722822587491E-017
   4.5000000000000005E-003     3.3559448678937830E-017
   4.7999999999999987E-003    -9.1380726763876601E-018
   5.1000000000000004E-003    -7.7644969175959949E-017
   5.4000000000000020E-003     1.1695988430876009E-016
   5.7000000000000037E-003     5.5722260958471161E-017
   5.9999999999999984E-003    -3.3471293063207848E-016
   6.3000000000000000E-003     2.2683219396159022E-016
   6.6000000000000017E-003     5.2308879646691901E-016
   6.9000000000000034E-003    -1.0376338892322391E-015
   7.2000000000000015E-003    -1.6887700857036892E-016
   7.5000000000000032E-003     2.4892758837422252E-015
   7.8000000000000014E-003    -1.9370489421315215E-015
   8.0999999999999996E-003    -3.6856406767954864E-015
   8.4000000000000012E-003     7.7332930708520937E-015
   8.7000000000000029E-003     4.7930873391777802E-016
   9.0000000000000011E-003    -1.7422334394937532E-014
   9.2999999999999992E-003     1.7079799353265576E-014
   9.6000000000000009E-003     2.0187561542675710E-014
   9.8999999999999991E-003    -5.8950504796661390E-014
   1.0200000000000001E-002     2.0542432772191477E-014
   1.0500000000000002E-002     1.0278030596749810E-013
   1.0800000000000004E-002    -1.5910902695197293E-013
   1.1099999999999999E-002    -3.2992136583462339E-014
   1.1400000000000000E-002     3.7024886195141660E-013
   1.1700000000000002E-002    -3.6061236462214818E-013
   1.2000000000000004E-002    -3.4083117730031309E-013
   1.2300000000000002E-002     1.1109223350264097E-012
   1.2600000000000000E-002    -5.9268968856038273E-013
   1.2900000000000002E-002    -1.4623561693169473E-012
   1.3200000000000000E-002     2.7635983779195072E-012
   1.3500000000000002E-002    -3.7743368001309785E-013
   1.3800000000000003E-002    -4.6023944204331979E-012
   1.4100000000000001E-002     5.6547418657293402E-012
   1.4400000000000000E-002     1.9123114550212428E-012
   1.4700000000000001E-002    -1.1472797538381041E-011
   1.4999999999999999E-002     8.7741732282542451E-012
   1.5300000000000001E-002     9.1922233713681578E-012
   1.5600000000000003E-002    -2.2757341150425603E-011
   1.5899999999999997E-002     8.7143564933556128E-012
   1.6199999999999999E-002     2.4148339577978462E-011
   1.6500000000000001E-002    -3.4093360079534563E-011
   1.6800000000000002E-002    -8.9091494598347865E-014
   1.7100000000000004E-002     3.8212412400984164E-011
   1.7400000000000006E-002    -2.8469167995259781E-011
   1.7700000000000000E-002    -4.1713230092277342E-012
   1.8000000000000002E-002    -3.5559495886045012E-012
   1.8300000000000004E-002    -7.9334551081333693E-012
   1.8600000000000005E-002     1.2776615876397557E-010
   1.8900000000000000E-002    -8.6307773428107026E-011
   1.9200000000000002E-002    -2.5746588194763831E-010
   1.9500000000000003E-002    -2.3413790350979014E-010
   1.9799999999999998E-002     1.0456864263375110E-009
   2.0100000000000000E-002     4.1122429905726676E-009
   2.0400000000000001E-002    -9.3887999597086491E-009
   2.0700000000000003E-002    -2.3175797281282939E-008
   2.0999999999999998E-002     5.8073883479892174E-008
   2.1299999999999999E-002     9.7254172715111054E-008
   2.1600000000000001E-002    -2.9527211609092774E-007
   2.1900000000000003E-002    -4.3893393808502879E-007
   2.2200000000000004E-002     2.0853176465607248E-006
   2.2500000000000006E-002     8.8896740635391325E-006
   2.2800000000000001E-002     1.8329326849197969E-005
   2.3100000000000002E-002     2.7379477614886127E-005
   2.3400000000000004E-002     3.5455490433378145E-005
   2.3699999999999999E-002     4.6773842768743634E-005
   2.4000000000000000E-002     6.9351925048977137E-005
   2.4300000000000002E-002     1.0848847159650177E-004
   2.4599999999999997E-002     1.6269140178337693E-004
   2.4900000000000005E-002     2.3236758715938777E-004
   2.5200000000000000E-002     3.2780074980109930E-004
   2.5499999999999995E-002     4.6165630919858813E-004
   2.5800000000000003E-002     6.4262369414791465E-004
   2.6099999999999998E-002     8.7769993115216494E-004
   2.6400000000000007E-002     1.1651560198515654E-003
   2.6700000000000002E-002     1.4920283574610949E-003
   2.6999999999999996E-002     1.8528649816289544E-003
   2.7300000000000005E-002     2.2444843780249357E-003
   2.7600000000000000E-002     2.6202271692454815E-003
   2.7900000000000008E-002     2.8745506424456835E-003
   2.8200000000000003E-002     2.8694448992609978E-003
   2.8499999999999998E-002     2.4230212438851595E-003
   2.8800000000000006E-002     1.2633753940463066E-003
   2.9100000000000001E-002    -9.7530428320169449E-004
   2.9400000000000003E-002    -4.7300830483436584E-003
   2.9700000000000004E-002    -1.0517185553908348E-002
   3.0000000000000006E-002    -1.8941320478916168E-002
   3.0300000000000001E-002    -3.0675439164042473E-002
   3.0600000000000002E-002    -4.6429548412561417E-002
   3.0900000000000004E-002    -6.6875174641609192E-002
   3.1199999999999999E-002    -9.2518843710422516E-002
   3.1500000000000007E-002   -0.12361016869544983     
   3.1800000000000002E-002   -0.16006281971931458     
   3.2099999999999997E-002   -0.20128394663333893     
   3.2400000000000005E-002   -0.24599738419055939     
   3.2700000000000000E-002   -0.29216793179512024     
   3.3000000000000002E-002   -0.33693218231201172     
   3.3300000000000003E-002   -0.37650567293167114     
   3.3599999999999998E-002   -0.40621295571327209     
   3.3900000000000000E-002   -0.42066246271133423     
   3.4200000000000001E-002   -0.41398555040359497     
   3.4500000000000003E-002   -0.38018730282783508     
   3.4799999999999998E-002   -0.31364643573760986     
   3.5099999999999999E-002   -0.20960502326488495     
   3.5400000000000001E-002    -6.4835816621780396E-002
   3.5699999999999996E-002    0.12175585329532623     
   3.6000000000000004E-002    0.34858989715576172     
   3.6299999999999999E-002    0.61080926656723022     
   3.6600000000000008E-002    0.90007776021957397     
   3.6900000000000002E-002     1.2046324014663696     
   3.7199999999999997E-002     1.5094144344329834     
   3.7500000000000006E-002     1.7966032028198242     
   3.7800000000000000E-002     2.0466339588165283     
   3.8100000000000009E-002     2.2391736507415771     
   3.8400000000000004E-002     2.3546621799468994     
   3.8699999999999998E-002     2.3758697509765625     
   3.9000000000000007E-002     2.2892699241638184     
   3.9300000000000002E-002     2.0864701271057129     
   3.9600000000000003E-002     1.7656759023666382     
   3.9900000000000005E-002     1.3320417404174805     
   4.0200000000000000E-002    0.79812371730804443     
   4.0500000000000001E-002    0.18379017710685730     
   4.0800000000000003E-002   -0.48488375544548035     
   4.1100000000000005E-002    -1.1767379045486450     
   4.1399999999999999E-002    -1.8573801517486572     
   4.1700000000000008E-002    -2.4911718368530273     
   4.2000000000000003E-002    -3.0435698032379150     
   4.2299999999999997E-002    -3.4834866523742676     
   4.2600000000000006E-002    -3.7850141525268555     
   4.2900000000000001E-002    -3.9293873310089111     
   4.3200000000000002E-002    -3.9062905311584473     
   4.3500000000000004E-002    -3.7142646312713623     
   4.3799999999999999E-002    -3.3612065315246582     
   4.4100000000000000E-002    -2.8638343811035156     
   4.4400000000000002E-002    -2.2465982437133789     
   4.4700000000000004E-002    -1.5405268669128418     
   4.4999999999999998E-002   -0.78139883279800415     
   4.5300000000000000E-002    -7.6834745705127716E-003
   4.5600000000000002E-002    0.74149084091186523     
   4.5899999999999996E-002     1.4284795522689819     
   4.6200000000000005E-002     2.0190165042877197     
   4.6500000000000000E-002     2.4842846393585205     
   4.6799999999999994E-002     2.8025777339935303     
   4.7100000000000003E-002     2.9596998691558838     
   4.7399999999999998E-002     2.9506206512451172     
   4.7700000000000006E-002     2.7796313762664795     
   4.8000000000000001E-002     2.4592332839965820     
   4.8300000000000010E-002     2.0104076862335205     
   4.8600000000000004E-002     1.4614877700805664     
   4.8899999999999999E-002    0.84527564048767090     
   4.9200000000000008E-002    0.19849926233291626     
   4.9500000000000002E-002   -0.44049501419067383     
   4.9800000000000011E-002    -1.0350151062011719     
   5.0100000000000006E-002    -1.5508326292037964     
   5.0400000000000000E-002    -1.9587239027023315     
   5.0700000000000009E-002    -2.2369647026062012     
   5.1000000000000004E-002    -2.3713541030883789     
   5.1299999999999998E-002    -2.3563435077667236     
   5.1600000000000007E-002    -2.1966674327850342     
   5.1900000000000002E-002    -1.9054604768753052     
   5.2200000000000010E-002    -1.5041263103485107     
   5.2500000000000005E-002    -1.0219200849533081     
   5.2800000000000000E-002   -0.49303448200225830     
   5.3099999999999994E-002     4.5364066958427429E-002
   5.3400000000000003E-002    0.55431878566741943     
   5.3699999999999998E-002    0.99696773290634155     
   5.4000000000000006E-002     1.3403896093368530     
   5.4300000000000001E-002     1.5574998855590820     
   5.4599999999999996E-002     1.6297487020492554     
   5.4900000000000004E-002     1.5480124950408936     
   5.5199999999999999E-002     1.3132789134979248     
   5.5499999999999994E-002    0.93710565567016602     
   5.5800000000000002E-002    0.44095087051391602     
   5.6099999999999997E-002   -0.14534451067447662     
   5.6400000000000006E-002   -0.78518921136856079     
   5.6700000000000000E-002    -1.4375870227813721     
   5.6999999999999995E-002    -2.0596361160278320     
   5.7300000000000004E-002    -2.6093955039978027     
   5.7599999999999998E-002    -3.0478990077972412     
   5.7900000000000007E-002    -3.3419394493103027     
   5.8200000000000002E-002    -3.4658062458038330     
   5.8499999999999996E-002    -3.4022195339202881     
   5.8800000000000005E-002    -3.1436839103698730     
   5.9100000000000000E-002    -2.6929049491882324     
   5.9400000000000008E-002    -2.0617043972015381     
   5.9700000000000003E-002    -1.2714098691940308     
   6.0000000000000012E-002   -0.35192748904228210     
   6.0300000000000006E-002    0.66099983453750610     
   6.0600000000000001E-002     1.7263518571853638     
   6.0900000000000010E-002     2.7995617389678955     
   6.1200000000000004E-002     3.8358337879180908     
   6.1500000000000013E-002     4.7914180755615234     
   6.1800000000000008E-002     5.6257019042968750     
   6.2100000000000002E-002     6.3043308258056641     
   6.2399999999999997E-002     6.7998781204223633     
   6.2700000000000006E-002     7.0938153266906738     
   6.3000000000000000E-002     7.1776313781738281     
   6.3300000000000009E-002     7.0523414611816406     
   6.3600000000000004E-002     6.7284278869628906     
   6.3899999999999998E-002     6.2250308990478516     
   6.4199999999999993E-002     5.5677909851074219     
   6.4500000000000002E-002     4.7873444557189941     
   6.4800000000000010E-002     3.9169008731842041     
   6.5100000000000005E-002     2.9905018806457520     
   6.5400000000000000E-002     2.0403876304626465     
   6.5700000000000008E-002     1.0959174633026123     
   6.5999999999999989E-002    0.18326385319232941     
   6.6299999999999998E-002   -0.67614209651947021     
   6.6600000000000006E-002    -1.4658559560775757     
   6.6900000000000001E-002    -2.1717157363891602     
   6.7199999999999996E-002    -2.7844827175140381     
   6.7500000000000004E-002    -3.2980229854583740     
   6.7800000000000013E-002    -3.7079145908355713     
   6.8099999999999994E-002    -4.0123481750488281     
   6.8400000000000002E-002    -4.2127099037170410     
   6.8700000000000011E-002    -4.3116760253906250     
   6.8999999999999992E-002    -4.3148183822631836     
   6.9300000000000000E-002    -4.2321720123291016     
   6.9600000000000009E-002    -4.0740642547607422     
   6.9900000000000004E-002    -3.8544049263000488     
   7.0199999999999999E-002    -3.5907886028289795     
   7.0500000000000007E-002    -3.2995264530181885     
   7.0800000000000016E-002    -2.9975297451019287     
   7.1099999999999997E-002    -2.7032270431518555     
   7.1400000000000005E-002    -2.4300875663757324     
   7.1700000000000000E-002    -2.1893181800842285     
   7.1999999999999995E-002    -1.9902776479721069     
   7.2300000000000003E-002    -1.8353605270385742     
   7.2600000000000012E-002    -1.7240610122680664     
   7.2900000000000006E-002    -1.6524724960327148     
   7.3200000000000001E-002    -1.6104841232299805     
   7.3499999999999996E-002    -1.5861679315567017     
   7.3800000000000004E-002    -1.5654892921447754     
   7.4099999999999999E-002    -1.5302801132202148     
   7.4400000000000008E-002    -1.4632118940353394     
   7.4700000000000003E-002    -1.3463704586029053     
   7.5000000000000011E-002    -1.1621302366256714     
   7.5299999999999992E-002   -0.89620536565780640     
   7.5600000000000001E-002   -0.53706127405166626     
   7.5900000000000009E-002    -7.8316271305084229E-002
   7.6200000000000004E-002    0.47947853803634644     
   7.6499999999999999E-002     1.1289379596710205     
   7.6800000000000007E-002     1.8527384996414185     
   7.7099999999999988E-002     2.6245136260986328     
   7.7399999999999997E-002     3.4083976745605469     
   7.7700000000000005E-002     4.1570796966552734     
   7.8000000000000014E-002     4.8174176216125488     
   7.8299999999999995E-002     5.3291335105895996     
   7.8600000000000003E-002     5.6281466484069824     
   7.8900000000000012E-002     5.6543126106262207     
   7.9199999999999993E-002     5.3531355857849121     
   7.9500000000000001E-002     4.6826434135437012     
   7.9800000000000010E-002     3.6229641437530518     
   8.0100000000000018E-002     2.1782288551330566     
   8.0399999999999999E-002    0.38402062654495239     
   8.0700000000000008E-002    -1.6869032382965088     
   8.1000000000000003E-002    -3.9273371696472168     
   8.1299999999999997E-002    -6.1949181556701660     
   8.1600000000000006E-002    -8.3182802200317383     
   8.1900000000000014E-002    -10.109388351440430     
   8.2199999999999995E-002    -11.375293731689453     
   8.2500000000000004E-002    -11.936014175415039     
   8.2799999999999999E-002    -11.644714355468750     
   8.3100000000000007E-002    -10.404996871948242     
   8.3400000000000002E-002    -8.1890144348144531     
   8.3700000000000011E-002    -5.0494217872619629     
   8.4000000000000005E-002    -1.1253112554550171     
   8.4300000000000000E-002     3.3574955463409424     
   8.4599999999999995E-002     8.1001501083374023     
   8.4900000000000003E-002     12.748287200927734     
   8.5199999999999998E-002     16.916471481323242     
   8.5500000000000007E-002     20.224924087524414     
   8.5800000000000001E-002     22.330621719360352     
   8.6100000000000010E-002     22.959579467773438     
   8.6399999999999991E-002     21.941560745239258     
   8.6699999999999999E-002     19.225345611572266     
   8.7000000000000008E-002     14.892048835754395     
   8.7300000000000003E-002     9.1566705703735352     
   8.7599999999999997E-002     2.3508319854736328     
   8.7900000000000006E-002    -5.0989227294921875     
   8.8200000000000014E-002    -12.702362060546875     
   8.8499999999999995E-002    -19.948450088500977     
   8.8800000000000004E-002    -26.344778060913086     
   8.9100000000000013E-002    -31.453912734985352     
   8.9399999999999993E-002    -34.930240631103516     
   8.9700000000000002E-002    -36.543842315673828     
   9.0000000000000011E-002    -36.193847656250000     
   9.0299999999999991E-002    -33.911052703857422     
   9.0600000000000000E-002    -29.850919723510742     
   9.0900000000000009E-002    -24.275390625000000     
   9.1200000000000017E-002    -17.524307250976562     
   9.1499999999999998E-002    -9.9910755157470703     
   9.1800000000000007E-002    -2.0900664329528809     
   9.2100000000000001E-002     5.7772316932678223     
   9.2399999999999996E-002     13.241703033447266     
   9.2700000000000005E-002     19.986268997192383     
   9.3000000000000013E-002     25.765377044677734     
   9.3300000000000008E-002     30.403869628906250     
   9.3600000000000003E-002     33.799140930175781     
   9.3899999999999997E-002     35.920082092285156     
   9.4200000000000006E-002     36.791591644287109     
   9.4500000000000001E-002     36.487579345703125     
   9.4800000000000009E-002     35.119411468505859     
   9.5100000000000004E-002     32.821128845214844     
   9.5399999999999999E-002     29.741287231445312     
   9.5699999999999993E-002     26.034227371215820     
   9.6000000000000002E-002     21.852108001708984     
   9.6300000000000011E-002     17.340742111206055     
   9.6600000000000005E-002     12.634798049926758     
   9.6900000000000000E-002     7.8622059822082520     
   9.7200000000000009E-002     3.1358253955841064     
   9.7499999999999989E-002    -1.4452786445617676     
   9.7799999999999998E-002    -5.7856655120849609     
   9.8100000000000007E-002    -9.8086967468261719     
   9.8400000000000015E-002    -13.446879386901855     
   9.8699999999999996E-002    -16.636980056762695     
   9.9000000000000005E-002    -19.336126327514648     
   9.9300000000000013E-002    -21.512569427490234     
   9.9599999999999994E-002    -23.138498306274414     
   9.9900000000000003E-002    -24.212139129638672     
  0.10020000000000001         -24.744394302368164     
  0.10049999999999999         -24.750316619873047     
  0.10080000000000000         -24.273103713989258     
  0.10110000000000001         -23.361806869506836     
  0.10140000000000000         -22.069284439086914     
  0.10170000000000000         -20.465686798095703     
  0.10200000000000001         -18.616491317749023     
  0.10230000000000002         -16.581129074096680     
  0.10260000000000000         -14.424054145812988     
  0.10290000000000001         -12.194584846496582     
  0.10320000000000000         -9.9299077987670898     
  0.10350000000000001         -7.6626749038696289     
  0.10380000000000000         -5.4131164550781250     
  0.10410000000000001         -3.1899104118347168     
  0.10440000000000001         -1.0030741691589355     
  0.10470000000000000          1.1420651674270630     
  0.10500000000000000          3.2404551506042480     
  0.10530000000000000          5.2773976325988770     
  0.10560000000000000          7.2355980873107910     
  0.10590000000000001          9.0896835327148438     
  0.10620000000000000          10.804991722106934     
  0.10650000000000001          12.342699050903320     
  0.10679999999999999          13.663051605224609     
  0.10710000000000000          14.722144126892090     
  0.10740000000000001          15.484128952026367     
  0.10770000000000000          15.917606353759766     
  0.10800000000000000          16.003847122192383     
  0.10830000000000001          15.737504005432129     
  0.10859999999999999          15.125042915344238     
  0.10890000000000000          14.191330909729004     
  0.10920000000000001          12.975548744201660     
  0.10950000000000001          11.524121284484863     
  0.10979999999999999          9.9012880325317383     
  0.11009999999999999          8.1752986907958984     
  0.11040000000000001          6.4095697402954102     
  0.11070000000000001          4.6774368286132812     
  0.11100000000000000          3.0413589477539062     
  0.11130000000000000          1.5475541353225708     
  0.11160000000000002         0.24201591312885284     
  0.11190000000000001        -0.85030597448348999     
  0.11220000000000001         -1.7275159358978271     
  0.11250000000000000         -2.3875167369842529     
  0.11280000000000000         -2.8552315235137939     
  0.11309999999999999         -3.1682522296905518     
  0.11340000000000001         -3.3600416183471680     
  0.11369999999999998         -3.4814741611480713     
  0.11400000000000000         -3.5820415019989014     
  0.11430000000000000         -3.6961224079132080     
  0.11460000000000002         -3.8643856048583984     
  0.11489999999999999         -4.1106185913085938     
  0.11520000000000001         -4.4388976097106934     
  0.11550000000000001         -4.8521542549133301     
  0.11580000000000000         -5.3332085609436035     
  0.11609999999999999         -5.8486642837524414     
  0.11640000000000002         -6.3664507865905762     
  0.11670000000000001         -6.8417367935180664     
  0.11700000000000001         -7.2268066406250000     
  0.11730000000000000         -7.4817032814025879     
  0.11760000000000000         -7.5668263435363770     
  0.11789999999999999         -7.4521923065185547     
  0.11820000000000001         -7.1213135719299316     
  0.11850000000000001         -6.5678400993347168     
  0.11880000000000000         -5.8008160591125488     
  0.11910000000000000         -4.8428297042846680     
  0.11940000000000002         -3.7274754047393799     
  0.11970000000000001         -2.5005686283111572     
  0.12000000000000001         -1.2168177366256714     
  0.12030000000000000          6.5163224935531616E-002
  0.12060000000000000          1.2846506834030151     
  0.12089999999999999          2.3819203376770020     
  0.12119999999999999          3.3034813404083252     
  0.12150000000000001          4.0068244934082031     
  0.12180000000000001          4.4602379798889160     
  0.12210000000000000          4.6484179496765137     
  0.12239999999999999          4.5751399993896484     
  0.12270000000000002          4.2596573829650879     
  0.12300000000000001          3.7414526939392090     
  0.12330000000000001          3.0737612247467041     
  0.12360000000000000          2.3181228637695312     
  0.12390000000000000          1.5491665601730347     
  0.12419999999999999         0.83915209770202637     
  0.12450000000000001         0.25088119506835938     
  0.12480000000000001        -0.15554833412170410     
  0.12509999999999999        -0.34219181537628174     
  0.12540000000000001        -0.29254969954490662     
  0.12570000000000003         -5.9161782264709473E-003
  0.12600000000000000         0.49040597677230835     
  0.12630000000000002          1.1481418609619141     
  0.12659999999999999          1.9086872339248657     
  0.12690000000000001          2.6958379745483398     
  0.12719999999999998          3.4326148033142090     
  0.12750000000000000          4.0462017059326172     
  0.12780000000000002          4.4690437316894531     
  0.12809999999999999          4.6525692939758301     
  0.12840000000000001          4.5676455497741699     
  0.12869999999999998          4.2052597999572754     
  0.12900000000000000          3.5815234184265137     
  0.12930000000000003          2.7315537929534912     
  0.12959999999999999          1.7082637548446655     
  0.12990000000000002         0.57890141010284424     
  0.13019999999999998        -0.58475649356842041     
  0.13050000000000000         -1.7063280344009399     
  0.13080000000000003         -2.7180945873260498     
  0.13109999999999999         -3.5606193542480469     
  0.13140000000000002         -4.1848649978637695     
  0.13169999999999998         -4.5631375312805176     
  0.13200000000000001         -4.6835603713989258     
  0.13229999999999997         -4.5488352775573730     
  0.13260000000000000         -4.1841549873352051     
  0.13290000000000002         -3.6233043670654297     
  0.13319999999999999         -2.9121570587158203     
  0.13350000000000001         -2.1063752174377441     
  0.13380000000000003         -1.2610142230987549     
  0.13410000000000000        -0.43369662761688232     
  0.13440000000000002         0.32282516360282898     
  0.13469999999999999         0.96546983718872070     
  0.13500000000000001          1.4572678804397583     
  0.13529999999999998          1.7757629156112671     
  0.13560000000000000          1.9117541313171387     
  0.13590000000000002          1.8650956153869629     
  0.13619999999999999          1.6535583734512329     
  0.13650000000000001          1.3028723001480103     
  0.13680000000000003         0.84608668088912964     
  0.13710000000000000         0.32691574096679688     
  0.13740000000000002        -0.21232038736343384     
  0.13769999999999999        -0.72900378704071045     
  0.13800000000000001         -1.1786733865737915     
  0.13829999999999998         -1.5311222076416016     
  0.13860000000000000         -1.7608263492584229     
  0.13890000000000002         -1.8489838838577271     
  0.13919999999999999         -1.7956246137619019     
  0.13950000000000001         -1.6069978475570679     
  0.13979999999999998         -1.2979044914245605     
  0.14010000000000000        -0.89752840995788574     
  0.14040000000000002        -0.43722134828567505     
  0.14069999999999999          4.8760633915662766E-002
  0.14100000000000001         0.52179759740829468     
  0.14130000000000004         0.94805043935775757     
  0.14160000000000000          1.2984304428100586     
  0.14189999999999997          1.5491210222244263     
  0.14219999999999999          1.6842429637908936     
  0.14250000000000002          1.7003767490386963     
  0.14279999999999998          1.5998023748397827     
  0.14310000000000000          1.3932666778564453     
  0.14339999999999997          1.1033201217651367     
  0.14369999999999999         0.75352197885513306     
  0.14400000000000002         0.37144097685813904     
  0.14429999999999998         -7.5531434267759323E-003
  0.14460000000000001        -0.35647729039192200     
  0.14490000000000003        -0.64941471815109253     
  0.14520000000000000        -0.85875880718231201     
  0.14550000000000002        -0.97353702783584595     
  0.14579999999999999        -0.98425978422164917     
  0.14610000000000001        -0.88708817958831787     
  0.14640000000000003        -0.69526016712188721     
  0.14670000000000000        -0.42213833332061768     
  0.14699999999999996         -8.6830914020538330E-002
  0.14729999999999999         0.27745452523231506     
  0.14760000000000001         0.64623266458511353     
  0.14789999999999998         0.99074470996856689     
  0.14820000000000000          1.2780661582946777     