  -1.4999999999999999E-002     0.0000000000000000     
  -1.4700000000000000E-002     0.0000000000000000     
  -1.4400000000000000E-002     0.0000000000000000     
  -1.4100000000000000E-002     0.0000000000000000     
  -1.3800000000000000E-002     0.0000000000000000     
  -1.3500000000000000E-002     0.0000000000000000     
  -1.3200000000000000E-002     0.0000000000000000     
  -1.2899999999999998E-002     0.0000000000000000     
  -1.2600000000000000E-002     0.0000000000000000     
  -1.2299999999999998E-002     0.0000000000000000     
  -1.2000000000000000E-002     0.0000000000000000     
  -1.1699999999999999E-002     0.0000000000000000     
  -1.1399999999999999E-002     0.0000000000000000     
  -1.1099999999999999E-002     0.0000000000000000     
  -1.0799999999999999E-002     0.0000000000000000     
  -1.0499999999999999E-002     0.0000000000000000     
  -1.0199999999999999E-002     0.0000000000000000     
  -9.8999999999999991E-003     0.0000000000000000     
  -9.5999999999999992E-003     0.0000000000000000     
  -9.2999999999999992E-003     6.7761551757452807E-037
  -8.9999999999999993E-003     8.9694595503104316E-036
  -8.6999999999999994E-003     3.8201966168203791E-034
  -8.3999999999999995E-003    -9.4120528606295117E-034
  -8.0999999999999996E-003    -2.3398249491428692E-034
  -7.7999999999999988E-003     3.0112805925617547E-033
  -7.4999999999999997E-003     1.0074594904873554E-032
  -7.1999999999999998E-003    -1.2978771248015098E-032
  -6.8999999999999981E-003    -1.2228235149683154E-031
  -6.5999999999999982E-003     9.1789722407970192E-032
  -6.3000000000000000E-003     8.4936181270642169E-031
  -6.0000000000000001E-003    -6.1381653680729592E-031
  -5.6999999999999985E-003    -2.2019145769433500E-030
  -5.3999999999999986E-003    -4.0490487840062662E-030
  -5.1000000000000004E-003     6.8896805356497027E-031
  -4.7999999999999987E-003     8.3058810339610566E-029
  -4.5000000000000005E-003    -7.3966832109898693E-029
  -4.1999999999999989E-003    -3.9015871591973071E-028
  -3.8999999999999990E-003     8.3371061361494068E-028
  -3.5999999999999990E-003    -1.2226914548548085E-027
  -3.2999999999999991E-003     2.1719690355266607E-027
  -2.9999999999999992E-003     8.6856790412260860E-027
  -2.6999999999999993E-003    -5.0753430934294178E-026
  -2.3999999999999994E-003     9.2926742277242156E-026
  -2.0999999999999977E-003    -6.7865167497267128E-026
  -1.7999999999999995E-003    -1.2004517942294364E-025
  -1.4999999999999979E-003     8.7450566015620716E-025
  -1.1999999999999997E-003    -2.4533006172521708E-024
  -8.9999999999999976E-004     3.3955377761230409E-024
  -5.9999999999999810E-004    -1.1578930935194089E-024
  -2.9999999999999992E-004    -8.2389035260344136E-024
   0.0000000000000000          3.7044854466637159E-023
   3.0000000000000165E-004    -9.3053224586303606E-023
   5.9999999999999984E-004     1.3145632398233220E-022
   9.0000000000000149E-004    -5.6881730649611113E-024
   1.2000000000000031E-003    -5.9491456704570092E-022
   1.5000000000000013E-003     1.9449203302204188E-021
   1.8000000000000030E-003    -3.0098727577717855E-021
   2.1000000000000012E-003    -2.1827309193099712E-022
   2.3999999999999994E-003     1.2863194092334466E-020
   2.7000000000000010E-003    -3.1495984266336237E-020
   2.9999999999999992E-003     2.8024336316019590E-020
   3.3000000000000008E-003     4.9676002107096763E-020
   3.6000000000000025E-003    -2.0851018289141491E-019
   3.9000000000000007E-003     2.7842498752925706E-019
   4.2000000000000023E-003     8.9892172858581034E-020
   4.5000000000000005E-003    -1.0299123443296944E-018
   4.7999999999999987E-003     1.7501290945001478E-018
   5.1000000000000004E-003    -4.0310323292238413E-019
   5.4000000000000020E-003    -4.0763410955776451E-018
   5.7000000000000037E-003     8.5536257330464807E-018
   5.9999999999999984E-003    -5.1172829627975450E-018
   6.3000000000000000E-003    -1.1816400781773108E-017
   6.6000000000000017E-003     3.3614909484648285E-017
   6.9000000000000034E-003    -3.3581411978562338E-017
   7.2000000000000015E-003    -1.5198877964122897E-017
   7.5000000000000032E-003     1.0378462430390937E-016
   7.8000000000000014E-003    -1.6306011568421842E-016
   8.0999999999999996E-003     8.3343343623943852E-017
   8.4000000000000012E-003     2.1002870141440021E-016
   8.7000000000000029E-003    -6.2118924074215588E-016
   9.0000000000000011E-003     7.5239437957405099E-016
   9.2999999999999992E-003    -1.2325202885276926E-017
   9.6000000000000009E-003    -1.7848633795312886E-015
   9.8999999999999991E-003     3.5128008510511679E-015
   1.0200000000000001E-002    -2.5334759687540859E-015
   1.0500000000000002E-002    -3.3286726172187912E-015
   1.0800000000000004E-002     1.1807482583629705E-014
   1.1099999999999999E-002    -1.4082797733137257E-014
   1.1400000000000000E-002    -1.0325733967679867E-016
   1.1700000000000002E-002     2.9650943972250182E-014
   1.2000000000000004E-002    -5.1430546290937712E-014
   1.2300000000000002E-002     2.9149249745723249E-014
   1.2600000000000000E-002     5.0983976968618089E-014
   1.2900000000000002E-002    -1.4188921305252622E-013
   1.3200000000000000E-002     1.4199111450421270E-013
   1.3500000000000002E-002     2.5466960354783574E-014
   1.3800000000000003E-002    -2.9863457084826350E-013
   1.4100000000000001E-002     4.4337420562236274E-013
   1.4400000000000000E-002    -2.0275614683300941E-013
   1.4700000000000001E-002    -4.2576838864445687E-013
   1.4999999999999999E-002     1.0238971129283847E-012
   1.5300000000000001E-002    -9.4703075676633164E-013
   1.5600000000000003E-002    -1.2321933295748877E-013
   1.5899999999999997E-002     1.6883149609250858E-012
   1.6199999999999999E-002    -2.5501204880401529E-012
   1.6500000000000001E-002     1.5928565974890341E-012
   1.6800000000000002E-002     1.3039850232585137E-012
   1.7100000000000004E-002    -4.8198875446381351E-012
   1.7400000000000006E-002     6.4625566183196259E-012
   1.7700000000000000E-002    -3.4861954902737358E-012
   1.8000000000000002E-002    -5.4164103757692317E-012
   1.8300000000000004E-002     1.7324721518496844E-011
   1.8600000000000005E-002    -2.2084181705572803E-011
   1.8900000000000000E-002     3.3622700977564701E-012
   1.9200000000000002E-002     4.5060049441714156E-011
   1.9500000000000003E-002    -8.1357212633470510E-011
   1.9799999999999998E-002     1.4326117549201545E-011
   2.0100000000000000E-002     1.3830650513746434E-010
   2.0400000000000001E-002    -8.9185901719357474E-011
   2.0700000000000003E-002    -1.8638057763809002E-010
   2.0999999999999998E-002    -4.1059983191260585E-010
   2.1299999999999999E-002     1.7910479765959053E-009
   2.1600000000000001E-002     2.2696318158210715E-009
   2.1900000000000003E-002    -1.3399984233330997E-008
   2.2200000000000004E-002    -2.4305228940590951E-009
   2.2500000000000006E-002     6.5931502035709855E-008
   2.2800000000000001E-002    -2.5564201422412225E-008
   2.3100000000000002E-002    -3.0501095693580282E-007
   2.3400000000000004E-002     2.3603621457368718E-007
   2.3699999999999999E-002     2.9043130780337378E-006
   2.4000000000000000E-002     7.6910164352739230E-006
   2.4300000000000002E-002     1.3340575605980121E-005
   2.4599999999999997E-002     1.8533039110479876E-005
   2.4900000000000005E-002     2.4039341951720417E-005
   2.5200000000000000E-002     3.4343192965025082E-005
   2.5499999999999995E-002     5.3341300372267142E-005
   2.5800000000000003E-002     8.1090132880490273E-005
   2.6099999999999998E-002     1.2007982149953023E-004
   2.6400000000000007E-002     1.7662551545072347E-004
   2.6700000000000002E-002     2.5451657711528242E-004
   2.6999999999999996E-002     3.5924292751587927E-004
   2.7300000000000005E-002     5.0326128257438540E-004
   2.7600000000000000E-002     6.9516879739239812E-004
   2.7900000000000008E-002     9.3459954950958490E-004
   2.8200000000000003E-002     1.2249895371496677E-003
   2.8499999999999998E-002     1.5717674978077412E-003
   2.8800000000000006E-002     1.9651760812848806E-003
   2.9100000000000001E-002     2.3785592056810856E-003
   2.9400000000000003E-002     2.7730793226510286E-003
   2.9700000000000004E-002     3.0907751061022282E-003
   3.0000000000000006E-002     3.2352674752473831E-003
   3.0300000000000001E-002     3.0579690355807543E-003
   3.0600000000000002E-002     2.3579949047416449E-003
   3.0900000000000004E-002     8.8789116125553846E-004
   3.1199999999999999E-002    -1.6560617368668318E-003
   3.1500000000000007E-002    -5.6715295650064945E-003
   3.1800000000000002E-002    -1.1619561351835728E-002
   3.2099999999999997E-002    -1.9962541759014130E-002
   3.2400000000000005E-002    -3.1194534152746201E-002
   3.2700000000000000E-002    -4.5851908624172211E-002
   3.3000000000000002E-002    -6.4451411366462708E-002
   3.3300000000000003E-002    -8.7428778409957886E-002
   3.3599999999999998E-002   -0.11511450260877609     
   3.3900000000000000E-002   -0.14767634868621826     
   3.4200000000000001E-002   -0.18504457175731659     
   3.4500000000000003E-002   -0.22692973911762238     
   3.4799999999999998E-002   -0.27278882265090942     
   3.5099999999999999E-002   -0.32182601094245911     
   3.5400000000000001E-002   -0.37298533320426941     
   3.5699999999999996E-002   -0.42494228482246399     
   3.6000000000000004E-002   -0.47618213295936584     
   3.6299999999999999E-002   -0.52507382631301880     
   3.6600000000000008E-002   -0.56984287500381470     
   3.6900000000000002E-002   -0.60867971181869507     
   3.7199999999999997E-002   -0.63977289199829102     
   3.7500000000000006E-002   -0.66127181053161621     
   3.7800000000000000E-002   -0.67137879133224487     
   3.8100000000000009E-002   -0.66830939054489136     
   3.8400000000000004E-002   -0.65032970905303955     
   3.8699999999999998E-002   -0.61567562818527222     
   3.9000000000000007E-002   -0.56265723705291748     
   3.9300000000000002E-002   -0.48967888951301575     
   3.9600000000000003E-002   -0.39541220664978027     
   3.9900000000000005E-002   -0.27880066633224487     
   4.0200000000000000E-002   -0.13940444588661194     
   4.0500000000000001E-002     2.2444590926170349E-002
   4.0800000000000003E-002    0.20530240237712860     
   4.1100000000000005E-002    0.40655100345611572     
   4.1399999999999999E-002    0.62202721834182739     
   4.1700000000000008E-002    0.84608405828475952     
   4.2000000000000003E-002     1.0713723897933960     
   4.2299999999999997E-002     1.2893967628479004     
   4.2600000000000006E-002     1.4905066490173340     
   4.2900000000000001E-002     1.6647040843963623     
   4.3200000000000002E-002     1.8019742965698242     
   4.3500000000000004E-002     1.8935439586639404     
   4.3799999999999999E-002     1.9320774078369141     
   4.4100000000000000E-002     1.9132720232009888     
   4.4400000000000002E-002     1.8355797529220581     
   4.4700000000000004E-002     1.7016043663024902     
   4.4999999999999998E-002     1.5173840522766113     
   4.5300000000000000E-002     1.2931011915206909     
   4.5600000000000002E-002     1.0418605804443359     
   4.5899999999999996E-002    0.77945202589035034     
   4.6200000000000005E-002    0.52274531126022339     
   4.6500000000000000E-002    0.28873002529144287     
   4.6799999999999994E-002     9.2846743762493134E-002
   4.7100000000000003E-002    -5.2026659250259399E-002
   4.7399999999999998E-002   -0.13711635768413544     
   4.7700000000000006E-002   -0.15843421220779419     
   4.8000000000000001E-002   -0.11711402982473373     
   4.8300000000000010E-002    -1.9838318228721619E-002
   4.8600000000000004E-002    0.12210910022258759     
   4.8899999999999999E-002    0.29304128885269165     
   4.9200000000000008E-002    0.47464424371719360     
   4.9500000000000002E-002    0.64673328399658203     
   4.9800000000000011E-002    0.78920912742614746     
   5.0100000000000006E-002    0.88296484947204590     
   5.0400000000000000E-002    0.91150552034378052     
   5.0700000000000009E-002    0.86154586076736450     
   5.1000000000000004E-002    0.72417157888412476     
   5.1299999999999998E-002    0.49506890773773193     
   5.1600000000000007E-002    0.17473469674587250     
   5.1900000000000002E-002   -0.23151333630084991     
   5.2200000000000010E-002   -0.71352720260620117     
   5.2500000000000005E-002    -1.2569248676300049     
   5.2800000000000000E-002    -1.8430233001708984     
   5.3099999999999994E-002    -2.4497582912445068     
   5.3400000000000003E-002    -3.0514824390411377     
   5.3699999999999998E-002    -3.6205630302429199     
   5.4000000000000006E-002    -4.1273188591003418     
   5.4300000000000001E-002    -4.5420470237731934     
   5.4599999999999996E-002    -4.8356151580810547     
   5.4900000000000004E-002    -4.9820108413696289     
   5.5199999999999999E-002    -4.9593906402587891     
   5.5499999999999994E-002    -4.7527599334716797     
   5.5800000000000002E-002    -4.3554606437683105     
   5.6099999999999997E-002    -3.7709965705871582     
   5.6400000000000006E-002    -3.0140094757080078     
   5.6700000000000000E-002    -2.1104774475097656     
   5.6999999999999995E-002    -1.0973712205886841     
   5.7300000000000004E-002    -2.0927093923091888E-002
   5.7599999999999998E-002     1.0653495788574219     
   5.7900000000000007E-002     2.1048676967620850     
   5.8200000000000002E-002     3.0407698154449463     
   5.8499999999999996E-002     3.8209328651428223     
   5.8800000000000005E-002     4.4011454582214355     
   5.9100000000000000E-002     4.7496361732482910     
   5.9400000000000008E-002     4.8484330177307129     
   5.9700000000000003E-002     4.6963043212890625     
   6.0000000000000012E-002     4.3076324462890625     
   6.0300000000000006E-002     3.7124950885772705     
   6.0600000000000001E-002     2.9535231590270996     
   6.0900000000000010E-002     2.0832436084747314     
   6.1200000000000004E-002     1.1594718694686890     
   6.1500000000000013E-002    0.24166271090507507     
   6.1800000000000008E-002   -0.61411952972412109     
   6.2100000000000002E-002    -1.3579330444335938     
   6.2399999999999997E-002    -1.9500737190246582     
   6.2700000000000006E-002    -2.3621640205383301     
   6.3000000000000000E-002    -2.5792253017425537     
   6.3300000000000009E-002    -2.5986485481262207     
   6.3600000000000004E-002    -2.4300935268402100     
   6.3899999999999998E-002    -2.0931677818298340     
   6.4199999999999993E-002    -1.6156359910964966     
   6.4500000000000002E-002    -1.0306639671325684     
   6.4800000000000010E-002   -0.37426316738128662     
   6.5100000000000005E-002    0.31703424453735352     
   6.5400000000000000E-002     1.0085078477859497     
   6.5700000000000008E-002     1.6685014963150024     
   6.5999999999999989E-002     2.2703497409820557     
   6.6299999999999998E-002     2.7922635078430176     
   6.6600000000000006E-002     3.2183835506439209     
   6.6900000000000001E-002     3.5381281375885010     
   6.7199999999999996E-002     3.7464828491210938     
   6.7500000000000004E-002     3.8430662155151367     
   6.7800000000000013E-002     3.8320243358612061     
   6.8099999999999994E-002     3.7206206321716309     
   6.8400000000000002E-002     3.5197937488555908     
   6.8700000000000011E-002     3.2420978546142578     
   6.8999999999999992E-002     2.9026000499725342     
   6.9300000000000000E-002     2.5168106555938721     
   6.9600000000000009E-002     2.1013832092285156     
   6.9900000000000004E-002     1.6721841096878052     
   7.0199999999999999E-002     1.2448542118072510     
   7.0500000000000007E-002    0.83291482925415039     
   7.0800000000000016E-002    0.44845211505889893     
   7.1099999999999997E-002     9.9569611251354218E-002
   7.1400000000000005E-002   -0.20733077824115753     
   7.1700000000000000E-002   -0.47066143155097961     
   7.1999999999999995E-002   -0.69127029180526733     
   7.2300000000000003E-002   -0.87460267543792725     
   7.2600000000000012E-002    -1.0277726650238037     
   7.2900000000000006E-002    -1.1607462167739868     
   7.3200000000000001E-002    -1.2847739458084106     
   7.3499999999999996E-002    -1.4108818769454956     
   7.3800000000000004E-002    -1.5501513481140137     
   7.4099999999999999E-002    -1.7106611728668213     
   7.4400000000000008E-002    -1.8992185592651367     
   7.4700000000000003E-002    -2.1177401542663574     
   7.5000000000000011E-002    -2.3659665584564209     
   7.5299999999999992E-002    -2.6384692192077637     
   7.5600000000000001E-002    -2.9276092052459717     
   7.5900000000000009E-002    -3.2222356796264648     
   7.6200000000000004E-002    -3.5095942020416260     
   7.6499999999999999E-002    -3.7761991024017334     
   7.6800000000000007E-002    -4.0083179473876953     
   7.7099999999999988E-002    -4.1940650939941406     
   7.7399999999999997E-002    -4.3230319023132324     
   7.7700000000000005E-002    -4.3883404731750488     
   7.8000000000000014E-002    -4.3850116729736328     
   7.8299999999999995E-002    -4.3121123313903809     
   7.8600000000000003E-002    -4.1706461906433105     
   7.8900000000000012E-002    -3.9648032188415527     
   7.9199999999999993E-002    -3.6997601985931396     
   7.9500000000000001E-002    -3.3826422691345215     
   7.9800000000000010E-002    -3.0203037261962891     
   8.0100000000000018E-002    -2.6211891174316406     
   8.0399999999999999E-002    -2.1926338672637939     
   8.0700000000000008E-002    -1.7433521747589111     
   8.1000000000000003E-002    -1.2812489271163940     
   8.1299999999999997E-002   -0.81671279668807983     
   8.1600000000000006E-002   -0.35914194583892822     
   8.1900000000000014E-002     7.8066602349281311E-002
   8.2199999999999995E-002    0.48197788000106812     
   8.2500000000000004E-002    0.83559376001358032     
   8.2799999999999999E-002     1.1231895685195923     
   8.3100000000000007E-002     1.3265656232833862     
   8.3400000000000002E-002     1.4307379722595215     
   8.3700000000000011E-002     1.4231666326522827     
   8.4000000000000005E-002     1.2983382940292358     
   8.4300000000000000E-002     1.0587314367294312     
   8.4599999999999995E-002    0.71943187713623047     
   8.4900000000000003E-002    0.30791381001472473     
   8.5199999999999998E-002   -0.13272023200988770     
   8.5500000000000007E-002   -0.54593735933303833     
   8.5800000000000001E-002   -0.86281096935272217     
   8.6100000000000010E-002    -1.0083354711532593     
   8.6399999999999991E-002   -0.90569293498992920     
   8.6699999999999999E-002   -0.48711067438125610     
   8.7000000000000008E-002    0.29926031827926636     
   8.7300000000000003E-002     1.4768123626708984     
   8.7599999999999997E-002     3.0357596874237061     
   8.7900000000000006E-002     4.9225811958312988     
   8.8200000000000014E-002     7.0425133705139160     
   8.8499999999999995E-002     9.2558126449584961     
   8.8800000000000004E-002     11.391082763671875     
   8.9100000000000013E-002     13.250606536865234     
   8.9399999999999993E-002     14.632977485656738     
   8.9700000000000002E-002     15.345707893371582     
   9.0000000000000011E-002     15.232201576232910     
   9.0299999999999991E-002     14.184498786926270     
   9.0600000000000000E-002     12.164821624755859     
   9.0900000000000009E-002     9.2116537094116211     
   9.1200000000000017E-002     5.4475708007812500     
   9.1499999999999998E-002     1.0710120201110840     
   9.1800000000000007E-002    -3.6513009071350098     
   9.2100000000000001E-002    -8.4073286056518555     
   9.2399999999999996E-002    -12.860905647277832     
   9.2700000000000005E-002    -16.682325363159180     
   9.3000000000000013E-002    -19.573755264282227     
   9.3300000000000008E-002    -21.297565460205078     
   9.3600000000000003E-002    -21.695827484130859     
   9.3899999999999997E-002    -20.705232620239258     
   9.4200000000000006E-002    -18.363107681274414     
   9.4500000000000001E-002    -14.803495407104492     
   9.4800000000000009E-002    -10.247403144836426     
   9.5100000000000004E-002    -4.9829487800598145     
   9.5399999999999999E-002    0.65673607587814331     
   9.5699999999999993E-002     6.3216762542724609     
   9.6000000000000002E-002     11.668853759765625     
   9.6300000000000011E-002     16.389936447143555     
   9.6600000000000005E-002     20.226852416992188     
   9.6900000000000000E-002     22.992038726806641     
   9.7200000000000009E-002     24.569301605224609     
   9.7499999999999989E-002     24.922710418701172     
   9.7799999999999998E-002     24.084913253784180     
   9.8100000000000007E-002     22.154516220092773     
   9.8400000000000015E-002     19.277748107910156     
   9.8699999999999996E-002     15.638559341430664     
   9.9000000000000005E-002     11.440380096435547     
   9.9300000000000013E-002     6.8947491645812988     
   9.9599999999999994E-002     2.2081344127655029     
   9.9900000000000003E-002    -2.4291627407073975     
  0.10020000000000001         -6.8466043472290039     
  0.10049999999999999         -10.903319358825684     
  0.10080000000000000         -14.484305381774902     
  0.10110000000000001         -17.508346557617188     
  0.10140000000000000         -19.919811248779297     
  0.10170000000000000         -21.693389892578125     
  0.10200000000000001         -22.825843811035156     
  0.10230000000000002         -23.336467742919922     
  0.10260000000000000         -23.261512756347656     
  0.10290000000000001         -22.650905609130859     
  0.10320000000000000         -21.563796997070312     
  0.10350000000000001         -20.065153121948242     
  0.10380000000000000         -18.221868515014648     
  0.10410000000000001         -16.099491119384766     
  0.10440000000000001         -13.759994506835938     
  0.10470000000000000         -11.261533737182617     
  0.10500000000000000         -8.6551809310913086     
  0.10530000000000000         -5.9872341156005859     
  0.10560000000000000         -3.2985715866088867     
  0.10590000000000001        -0.62724614143371582     
  0.10620000000000000          1.9919835329055786     
  0.10650000000000001          4.5245723724365234     
  0.10679999999999999          6.9362769126892090     
  0.10710000000000000          9.1913738250732422     
  0.10740000000000001          11.254722595214844     
  0.10770000000000000          13.089847564697266     
  0.10800000000000000          14.661590576171875     
  0.10830000000000001          15.937424659729004     
  0.10859999999999999          16.888944625854492     
  0.10890000000000000          17.493783950805664     
  0.10920000000000001          17.737638473510742     
  0.10950000000000001          17.615745544433594     
  0.10979999999999999          17.134990692138672     
  0.11009999999999999          16.312091827392578     
  0.11040000000000001          15.177394866943359     
  0.11070000000000001          13.769756317138672     
  0.11100000000000000          12.139322280883789     
  0.11130000000000000          10.341819763183594     
  0.11160000000000002          8.4396829605102539     
  0.11190000000000001          6.4942550659179688     
  0.11220000000000001          4.5677347183227539     
  0.11250000000000000          2.7153344154357910     
  0.11280000000000000         0.98603129386901855     
  0.11309999999999999        -0.58340227603912354     
  0.11340000000000001         -1.9665331840515137     
  0.11369999999999998         -3.1506507396697998     
  0.11400000000000000         -4.1355729103088379     
  0.11430000000000000         -4.9329285621643066     
  0.11460000000000002         -5.5631637573242188     
  0.11489999999999999         -6.0548977851867676     
  0.11520000000000001         -6.4383730888366699     
  0.11550000000000001         -6.7467627525329590     
  0.11580000000000000         -7.0074696540832520     
  0.11609999999999999         -7.2451195716857910     
  0.11640000000000002         -7.4732689857482910     
  0.11670000000000001         -7.6986036300659180     
  0.11700000000000001         -7.9156661033630371     
  0.11730000000000000         -8.1116275787353516     
  0.11760000000000000         -8.2648258209228516     
  0.11789999999999999         -8.3479232788085938     
  0.11820000000000001         -8.3330717086791992     
  0.11850000000000001         -8.1901397705078125     
  0.11880000000000000         -7.8978018760681152     
  0.11910000000000000         -7.4363474845886230     
  0.11940000000000002         -6.8025517463684082     
  0.11970000000000001         -5.9967927932739258     
  0.12000000000000001         -5.0399036407470703     
  0.12030000000000000         -3.9554276466369629     
  0.12060000000000000         -2.7846858501434326     
  0.12089999999999999         -1.5684077739715576     
  0.12119999999999999        -0.35954082012176514     
  0.12150000000000001         0.79629212617874146     
  0.12180000000000001          1.8503549098968506     
  0.12210000000000000          2.7649891376495361     
  0.12239999999999999          3.5084202289581299     
  0.12270000000000002          4.0625357627868652     
  0.12300000000000001          4.4217009544372559     
  0.12330000000000001          4.5908002853393555     
  0.12360000000000000          4.5901045799255371     
  0.12390000000000000          4.4446249008178711     
  0.12419999999999999          4.1926693916320801     
  0.12450000000000001          3.8700561523437500     
  0.12480000000000001          3.5198369026184082     
  0.12509999999999999          3.1755671501159668     
  0.12540000000000001          2.8716542720794678     
  0.12570000000000003          2.6288180351257324     
  0.12600000000000000          2.4632167816162109     
  0.12630000000000002          2.3762154579162598     
  0.12659999999999999          2.3631172180175781     
  0.12690000000000001          2.4089462757110596     
  0.12719999999999998          2.4924712181091309     
  0.12750000000000000          2.5896558761596680     
  0.12780000000000002          2.6726238727569580     
  0.12809999999999999          2.7190403938293457     
  0.12840000000000001          2.7049026489257812     
  0.12869999999999998          2.6179881095886230     
  0.12900000000000000          2.4453365802764893     
  0.12930000000000003          2.1885571479797363     
  0.12959999999999999          1.8480423688888550     
  0.12990000000000002          1.4377586841583252     
  0.13019999999999998         0.96873944997787476     
  0.13050000000000000         0.46222537755966187     
  0.13080000000000003         -6.4796723425388336E-002
  0.13109999999999999        -0.58905082941055298     
  0.13140000000000002         -1.0924880504608154     
  0.13169999999999998         -1.5548264980316162     
  0.13200000000000001         -1.9599947929382324     
  0.13229999999999997         -2.2933182716369629     
  0.13260000000000000         -2.5441362857818604     
  0.13290000000000002         -2.7050223350524902     
  0.13319999999999999         -2.7726173400878906     
  0.13350000000000001         -2.7487099170684814     
  0.13380000000000003         -2.6385900974273682     
  0.13410000000000000         -2.4537172317504883     
  0.13440000000000002         -2.2081820964813232     
  0.13469999999999999         -1.9210269451141357     
  0.13500000000000001         -1.6127129793167114     
  0.13529999999999998         -1.3052113056182861     
  0.13560000000000000         -1.0195583105087280     
  0.13590000000000002        -0.77366811037063599     
  0.13619999999999999        -0.58246660232543945     
  0.13650000000000001        -0.45402377843856812     
  0.13680000000000003        -0.39134666323661804     
  0.13710000000000000        -0.38899165391921997     
  0.13740000000000002        -0.43690392374992371     
  0.13769999999999999        -0.51817083358764648     
  0.13800000000000001        -0.61347466707229614     
  0.13829999999999998        -0.70022422075271606     
  0.13860000000000000        -0.75770640373229980     
  0.13890000000000002        -0.76631355285644531     
  0.13919999999999999        -0.71177887916564941     
  0.13950000000000001        -0.58580386638641357     
  0.13979999999999998        -0.38692295551300049     
  0.14010000000000000        -0.12211994826793671     
  0.14040000000000002         0.19642315804958344     
  0.14069999999999999         0.54754871129989624     
  0.14100000000000001         0.90918421745300293     
  0.14130000000000004          1.2520719766616821     
  0.14160000000000000          1.5525382757186890     
  0.14189999999999997          1.7826266288757324     
  0.14219999999999999          1.9254659414291382     
  0.14250000000000002          1.9638565778732300     
  0.14279999999999998          1.8951191902160645     
  0.14310000000000000          1.7179766893386841     
  0.14339999999999997          1.4459941387176514     
  0.14369999999999999          1.0945914983749390     
  0.14400000000000002         0.68990749120712280     
  0.14429999999999998         0.25925272703170776     
  0.14460000000000001        -0.16617429256439209     
  0.14490000000000003        -0.55612874031066895     
  0.14520000000000000        -0.88363987207412720     
  0.14550000000000002         -1.1246887445449829     
  0.14579999999999999         -1.2647602558135986     
  0.14610000000000001         -1.2927659749984741     
  0.14640000000000003         -1.2107051610946655     
  0.14670000000000000         -1.0231593847274780     
  0.14699999999999996        -0.74815875291824341     
  0.14729999999999999        -0.40440201759338379     
  0.14760000000000001         -2.0323559641838074E-002
  0.14789999999999998         0.37702095508575439     
  0.14820000000000000         0.75626462697982788     