  -1.4999999999999999E-002     0.0000000000000000     
  -1.4700000000000000E-002     0.0000000000000000     
  -1.4400000000000000E-002     0.0000000000000000     
  -1.4100000000000000E-002     0.0000000000000000     
  -1.3800000000000000E-002     0.0000000000000000     
  -1.3500000000000000E-002     0.0000000000000000     
  -1.3200000000000000E-002     0.0000000000000000     
  -1.2899999999999998E-002     0.0000000000000000     
  -1.2600000000000000E-002     0.0000000000000000     
  -1.2299999999999998E-002     0.0000000000000000     
  -1.2000000000000000E-002     0.0000000000000000     
  -1.1699999999999999E-002     0.0000000000000000     
  -1.1399999999999999E-002     0.0000000000000000     
  -1.1099999999999999E-002     0.0000000000000000     
  -1.0799999999999999E-002     0.0000000000000000     
  -1.0499999999999999E-002     0.0000000000000000     
  -1.0199999999999999E-002     0.0000000000000000     
  -9.8999999999999991E-003     0.0000000000000000     
  -9.5999999999999992E-003     0.0000000000000000     
  -9.2999999999999992E-003     0.0000000000000000     
  -8.9999999999999993E-003     0.0000000000000000     
  -8.6999999999999994E-003     0.0000000000000000     
  -8.3999999999999995E-003     0.0000000000000000     
  -8.0999999999999996E-003     0.0000000000000000     
  -7.7999999999999988E-003     0.0000000000000000     
  -7.4999999999999997E-003     0.0000000000000000     
  -7.1999999999999998E-003     0.0000000000000000     
  -6.8999999999999981E-003     0.0000000000000000     
  -6.5999999999999982E-003     0.0000000000000000     
  -6.3000000000000000E-003     0.0000000000000000     
  -6.0000000000000001E-003     0.0000000000000000     
  -5.6999999999999985E-003     0.0000000000000000     
  -5.3999999999999986E-003     0.0000000000000000     
  -5.1000000000000004E-003    -1.7281521158557207E-036
  -4.7999999999999987E-003    -1.6927760065384419E-035
  -4.5000000000000005E-003     4.1437444344276317E-035
  -4.1999999999999989E-003     6.9814147739896301E-035
  -3.8999999999999990E-003    -1.9641142253347670E-034
  -3.5999999999999990E-003    -1.2027623300125106E-033
  -3.2999999999999991E-003     5.3921957273393343E-033
  -2.9999999999999992E-003    -5.2536861259559902E-033
  -2.6999999999999993E-003    -2.4234344184857526E-033
  -2.3999999999999994E-003    -1.8895450146830274E-032
  -2.0999999999999977E-003     4.7622608678295448E-032
  -1.7999999999999995E-003     7.5659577171043254E-032
  -1.4999999999999979E-003    -3.0615099143296123E-031
  -1.1999999999999997E-003     9.7466415024983779E-031
  -8.9999999999999976E-004    -3.8892665640458866E-030
  -5.9999999999999810E-004     6.4134091570694111E-030
  -2.9999999999999992E-004     3.8034588618595900E-030
   0.0000000000000000         -2.8708826567759722E-029
   3.0000000000000165E-004     5.3330119606862736E-029
   5.9999999999999984E-004    -7.2560042600552113E-029
   9.0000000000000149E-004    -1.4102622017775535E-030
   1.2000000000000031E-003     3.3552651118865422E-028
   1.5000000000000013E-003    -6.6698160647487382E-028
   1.8000000000000030E-003     4.6126638465656503E-028
   2.1000000000000012E-003     4.4699842155306385E-028
   2.3999999999999994E-003    -4.3026534515794478E-027
   2.7000000000000010E-003     1.2841154082013428E-026
   2.9999999999999992E-003    -8.9733914045021619E-027
   3.3000000000000008E-003    -4.0546168629389023E-026
   3.6000000000000025E-003     1.2347679831636491E-025
   3.9000000000000007E-003    -1.0585277055116077E-025
   4.2000000000000023E-003    -2.6964705411606212E-025
   4.5000000000000005E-003     9.7538223448747557E-025
   4.7999999999999987E-003    -7.2713549761586221E-025
   5.1000000000000004E-003    -2.3724120033221661E-024
   5.4000000000000020E-003     6.0918355567454187E-024
   5.7000000000000037E-003    -1.2754023069991965E-024
   5.9999999999999984E-003    -1.6934234083220652E-023
   6.3000000000000000E-003     2.7192455076969855E-023
   6.6000000000000017E-003     1.5247322879443368E-023
   6.9000000000000034E-003    -1.0176294948842741E-022
   7.2000000000000015E-003     7.4362377127442151E-023
   7.5000000000000032E-003     2.2221850717325673E-022
   7.8000000000000014E-003    -4.6663149600804904E-022
   8.0999999999999996E-003    -1.4331180529342394E-022
   8.4000000000000012E-003     1.5350733393331342E-021
   8.7000000000000029E-003    -1.3078265696411263E-021
   9.0000000000000011E-003    -3.1253274611211547E-021
   9.2999999999999992E-003     7.6557342837629993E-021
   9.6000000000000009E-003     5.5858056776253290E-022
   9.8999999999999991E-003    -2.4508810634733553E-020
   1.0200000000000001E-002     2.9392373495734389E-020
   1.0500000000000002E-002     3.6549414805355947E-020
   1.0800000000000004E-002    -1.3959507772263138E-019
   1.1099999999999999E-002     8.8141283533399162E-020
   1.1400000000000000E-002     2.8538884016058201E-019
   1.1700000000000002E-002    -6.7628653200625750E-019
   1.2000000000000004E-002     1.9059604868762763E-019
   1.2300000000000002E-002     1.5919814671619002E-018
   1.2600000000000000E-002    -2.8801951232292674E-018
   1.2900000000000002E-002     8.0819474954340431E-020
   1.3200000000000000E-002     7.2861277814447383E-018
   1.3500000000000002E-002    -1.0904402723570118E-017
   1.3800000000000003E-002    -1.9897589752585440E-018
   1.4100000000000001E-002     2.8870466188840135E-017
   1.4400000000000000E-002    -3.6308341908018952E-017
   1.4700000000000001E-002    -1.4313879081113638E-017
   1.4999999999999999E-002     9.9397152455809706E-017
   1.5300000000000001E-002    -1.0505803907843271E-016
   1.5600000000000003E-002    -6.4589604037815115E-017
   1.5899999999999997E-002     2.9701662928703230E-016
   1.6199999999999999E-002    -2.6311135624632075E-016
   1.6500000000000001E-002    -2.1920401376196501E-016
   1.6800000000000002E-002     7.6073569534081532E-016
   1.7100000000000004E-002    -5.8651446473864340E-016
   1.7400000000000006E-002    -5.4612073403350670E-016
   1.7700000000000000E-002     1.6776529370896541E-015
   1.8000000000000002E-002    -1.3351041311323057E-015
   1.8300000000000004E-002    -8.5608471190557422E-016
   1.8600000000000005E-002     3.4335490603742665E-015
   1.8900000000000000E-002    -3.8833589189918478E-015
   1.9200000000000002E-002    -1.0635896257140710E-016
   1.9500000000000003E-002     8.2983750079868024E-015
   1.9799999999999998E-002    -1.3446619238541811E-014
   2.0100000000000000E-002     3.1841321622422388E-015
   2.0400000000000001E-002     2.0685183234792244E-014
   2.0700000000000003E-002    -3.2794581395108324E-014
   2.0999999999999998E-002     3.6094780999805162E-014
   2.1299999999999999E-002    -7.3347456038506953E-014
   2.1600000000000001E-002    -4.4656508715488694E-014
   2.1900000000000003E-002     8.1486559036850204E-013
   2.2200000000000004E-002    -1.4227988362133792E-012
   2.2500000000000006E-002    -1.8843607230145665E-012
   2.2800000000000001E-002     8.9351477605692509E-012
   2.3100000000000002E-002    -3.2276247646789713E-012
   2.3400000000000004E-002    -2.6687667700753259E-011
   2.3699999999999999E-002     2.8659371750783258E-011
   2.4000000000000000E-002     4.7776366196572440E-011
   2.4300000000000002E-002    -3.3974142943371533E-011
   2.4599999999999997E-002    -1.4463596986757921E-010
   2.4900000000000005E-002    -3.5513281204657687E-010
   2.5200000000000000E-002     1.2873053734097084E-009
   2.5499999999999995E-002     2.6499866745410827E-009
   2.5800000000000003E-002    -9.4607077727459910E-009
   2.6099999999999998E-002    -1.2807877425302649E-008
   2.6400000000000007E-002     5.1662574662714178E-008
   2.6700000000000002E-002     5.4562775630984106E-008
   2.6999999999999996E-002    -2.6344858383708925E-007
   2.7300000000000005E-002    -2.5794895464059664E-007
   2.7600000000000000E-002     2.0689230950665660E-006
   2.7900000000000008E-002     7.5777866186399478E-006
   2.8200000000000003E-002     1.3914966075390112E-005
   2.8499999999999998E-002     1.9958813936682418E-005
   2.8800000000000006E-002     3.0738599889446050E-005
   2.9100000000000001E-002     5.0717935664579272E-005
   2.9400000000000003E-002     7.6367388828657568E-005
   2.9700000000000004E-002     1.0715954704210162E-004
   3.0000000000000006E-002     1.5531083045061678E-004
   3.0300000000000001E-002     2.3072690237313509E-004
   3.0600000000000002E-002     3.3343903487548232E-004
   3.0900000000000004E-002     4.7284210450015962E-004
   3.1199999999999999E-002     6.6854996839538217E-004
   3.1500000000000007E-002     9.3023793306201696E-004
   3.1800000000000002E-002     1.2664470123127103E-003
   3.2099999999999997E-002     1.6955828759819269E-003
   3.2400000000000005E-002     2.2192690521478653E-003
   3.2700000000000000E-002     2.8166146948933601E-003
   3.3000000000000002E-002     3.4718806855380535E-003
   3.3300000000000003E-002     4.1545643471181393E-003
   3.3599999999999998E-002     4.7716782428324223E-003
   3.3900000000000000E-002     5.1726545207202435E-003
   3.4200000000000001E-002     5.1641557365655899E-003
   3.4500000000000003E-002     4.4803791679441929E-003
   3.4799999999999998E-002     2.7549816295504570E-003
   3.5099999999999999E-002    -4.7564151464030147E-004
   3.5400000000000001E-002    -5.7581653818488121E-003
   3.5699999999999996E-002    -1.3711806386709213E-002
   3.6000000000000004E-002    -2.5019247084856033E-002
   3.6299999999999999E-002    -4.0380254387855530E-002
   3.6600000000000008E-002    -6.0410037636756897E-002
   3.6900000000000002E-002    -8.5555814206600189E-002
   3.7199999999999997E-002   -0.11602932214736938     
   3.7500000000000006E-002   -0.15165945887565613     
   3.7800000000000000E-002   -0.19172699749469757     
   3.8100000000000009E-002   -0.23487558960914612     
   3.8400000000000004E-002   -0.27903574705123901     
   3.8699999999999998E-002   -0.32131084799766541     
   3.9000000000000007E-002   -0.35800606012344360     
   3.9300000000000002E-002   -0.38472616672515869     
   3.9600000000000003E-002   -0.39655059576034546     
   3.9900000000000005E-002   -0.38824766874313354     
   4.0200000000000000E-002   -0.35469254851341248     
   4.0500000000000001E-002   -0.29133659601211548     
   4.0800000000000003E-002   -0.19461458921432495     
   4.1100000000000005E-002    -6.2457408756017685E-002
   4.1399999999999999E-002    0.10510316491127014     
   4.1700000000000008E-002    0.30568760633468628     
   4.2000000000000003E-002    0.53434020280838013     
   4.2299999999999997E-002    0.78333228826522827     
   4.2600000000000006E-002     1.0423383712768555     
   4.2900000000000001E-002     1.2989635467529297     
   4.3200000000000002E-002     1.5390973091125488     
   4.3500000000000004E-002     1.7478348016738892     
   4.3799999999999999E-002     1.9104818105697632     
   4.4100000000000000E-002     2.0133225917816162     
   4.4400000000000002E-002     2.0447463989257812     
   4.4700000000000004E-002     1.9962031841278076     
   4.4999999999999998E-002     1.8626792430877686     
   4.5300000000000000E-002     1.6433936357498169     
   4.5600000000000002E-002     1.3420644998550415     
   4.5899999999999996E-002    0.96655589342117310     
   4.6200000000000005E-002    0.52894794940948486     
   4.6500000000000000E-002     4.4454798102378845E-002
   4.6799999999999994E-002   -0.46898558735847473     
   4.7100000000000003E-002   -0.99161100387573242     
   4.7399999999999998E-002    -1.5032083988189697     
   4.7700000000000006E-002    -1.9835727214813232     
   4.8000000000000001E-002    -2.4137253761291504     
   4.8300000000000010E-002    -2.7767605781555176     
   4.8600000000000004E-002    -3.0580942630767822     
   4.8899999999999999E-002    -3.2465386390686035     
   4.9200000000000008E-002    -3.3342657089233398     
   4.9500000000000002E-002    -3.3170933723449707     
   4.9800000000000011E-002    -3.1949684619903564     
   5.0100000000000006E-002    -2.9715077877044678     
   5.0400000000000000E-002    -2.6539900302886963     
   5.0700000000000009E-002    -2.2537872791290283     
   5.1000000000000004E-002    -1.7850335836410522     
   5.1299999999999998E-002    -1.2649116516113281     
   5.1600000000000007E-002   -0.71307069063186646     
   5.1900000000000002E-002   -0.15053671598434448     
   5.2200000000000010E-002    0.40085896849632263     
   5.2500000000000005E-002    0.91931670904159546     
   5.2800000000000000E-002     1.3844034671783447     
   5.3099999999999994E-002     1.7777595520019531     
   5.3400000000000003E-002     2.0845153331756592     
   5.3699999999999998E-002     2.2937412261962891     
   5.4000000000000006E-002     2.3995847702026367     
   5.4300000000000001E-002     2.4012691974639893     
   5.4599999999999996E-002     2.3036489486694336     
   5.4900000000000004E-002     2.1169385910034180     
   5.5199999999999999E-002     1.8557106256484985     
   5.5499999999999994E-002     1.5384441614151001     
   5.5800000000000002E-002     1.1865346431732178     
   5.6099999999999997E-002    0.82174569368362427     
   5.6400000000000006E-002    0.46578621864318848     
   5.6700000000000000E-002    0.13880787789821625     
   5.6999999999999995E-002   -0.14316412806510925     
   5.7300000000000004E-002   -0.36805418133735657     
   5.7599999999999998E-002   -0.52878564596176147     
   5.7900000000000007E-002   -0.62439113855361938     
   5.8200000000000002E-002   -0.65879845619201660     
   5.8499999999999996E-002   -0.64033269882202148     
   5.8800000000000005E-002   -0.58147782087326050     
   5.9100000000000000E-002   -0.49644967913627625     
   5.9400000000000008E-002   -0.39995923638343811     
   5.9700000000000003E-002   -0.30631420016288757     
   6.0000000000000012E-002   -0.22702296078205109     
   6.0300000000000006E-002   -0.17017973959445953     
   6.0600000000000001E-002   -0.14012910425662994     
   6.0900000000000010E-002   -0.13671879470348358     
   6.1200000000000004E-002   -0.15593162178993225     
   6.1500000000000013E-002   -0.19076442718505859     
   6.1800000000000008E-002   -0.23222163319587708     
   6.2100000000000002E-002   -0.27050316333770752     
   6.2399999999999997E-002   -0.29670053720474243     
   6.2700000000000006E-002   -0.30388942360877991     
   6.3000000000000000E-002   -0.28762876987457275     
   6.3300000000000009E-002   -0.24681718647480011     
   6.3600000000000004E-002   -0.18411630392074585     
   6.3899999999999998E-002   -0.10442091524600983     
   6.4199999999999993E-002    -1.4997625723481178E-002
   6.4500000000000002E-002     7.5635232031345367E-002
   6.4800000000000010E-002    0.15943510830402374     
   6.5100000000000005E-002    0.22913046181201935     
   6.5400000000000000E-002    0.27918437123298645     
   6.5700000000000008E-002    0.30708613991737366     
   6.5999999999999989E-002    0.31249389052391052     
   6.6299999999999998E-002    0.29747757315635681     
   6.6600000000000006E-002    0.26641091704368591     
   6.6900000000000001E-002    0.22462466359138489     
   6.7199999999999996E-002    0.17785835266113281     
   6.7500000000000004E-002    0.13201978802680969     
   6.7800000000000013E-002     9.1819703578948975E-002
   6.8099999999999994E-002     6.0693725943565369E-002
   6.8400000000000002E-002     4.0775477886199951E-002
   6.8700000000000011E-002     3.2651167362928391E-002
   6.8999999999999992E-002     3.5769786685705185E-002
   6.9300000000000000E-002     4.8997584730386734E-002
   6.9600000000000009E-002     7.0774592459201813E-002
   6.9900000000000004E-002     9.9604383111000061E-002
   7.0199999999999999E-002    0.13438141345977783     
   7.0500000000000007E-002    0.17460389435291290     
   7.0800000000000016E-002    0.22019168734550476     
   7.1099999999999997E-002    0.27159720659255981     
   7.1400000000000005E-002    0.32936343550682068     
   7.1700000000000000E-002    0.39373296499252319     
   7.1999999999999995E-002    0.46464604139328003     
   7.2300000000000003E-002    0.54097473621368408     
   7.2600000000000012E-002    0.62101513147354126     
   7.2900000000000006E-002    0.70183223485946655     
   7.3200000000000001E-002    0.77967655658721924     
   7.3499999999999996E-002    0.85050630569458008     
   7.3800000000000004E-002    0.91001695394515991     
   7.4099999999999999E-002    0.95411020517349243     
   7.4400000000000008E-002    0.97999966144561768     
   7.4700000000000003E-002    0.98615765571594238     
   7.5000000000000011E-002    0.97258692979812622     
   7.5299999999999992E-002    0.94186651706695557     
   7.5600000000000001E-002    0.89818954467773438     
   7.5900000000000009E-002    0.84729599952697754     
   7.6200000000000004E-002    0.79675942659378052     
   7.6499999999999999E-002    0.75395184755325317     
   7.6800000000000007E-002    0.72538685798645020     
   7.7099999999999988E-002    0.71651083230972290     
   7.7399999999999997E-002    0.72895848751068115     
   7.7700000000000005E-002    0.76080131530761719     
   7.8000000000000014E-002    0.80568271875381470     
   7.8299999999999995E-002    0.85193103551864624     
   7.8600000000000003E-002    0.88345772027969360     
   7.8900000000000012E-002    0.88076382875442505     
   7.9199999999999993E-002    0.82134342193603516     
   7.9500000000000001E-002    0.68298721313476562     
   7.9800000000000010E-002    0.44560390710830688     
   8.0100000000000018E-002     9.2867136001586914E-002
   8.0399999999999999E-002   -0.38400673866271973     
   8.0700000000000008E-002   -0.98441952466964722     
   8.1000000000000003E-002    -1.6978303194046021     
   8.1299999999999997E-002    -2.5021686553955078     
   8.1600000000000006E-002    -3.3635737895965576     
   8.1900000000000014E-002    -4.2383961677551270     
   8.2199999999999995E-002    -5.0753769874572754     
   8.2500000000000004E-002    -5.8180317878723145     
   8.2799999999999999E-002    -6.4088740348815918     
   8.3100000000000007E-002    -6.7942543029785156     
   8.3400000000000002E-002    -6.9282546043395996     
   8.3700000000000011E-002    -6.7767663002014160     
   8.4000000000000005E-002    -6.3223514556884766     
   8.4300000000000000E-002    -5.5656871795654297     
   8.4599999999999995E-002    -4.5271368026733398     
   8.4900000000000003E-002    -3.2485113143920898     
   8.5199999999999998E-002    -1.7880554199218750     
   8.5500000000000007E-002   -0.21963855624198914     
   8.5800000000000001E-002     1.3726462125778198     
   8.6100000000000010E-002     2.9021577835083008     
   8.6399999999999991E-002     4.2839522361755371     
   8.6699999999999999E-002     5.4427752494812012     
   8.7000000000000008E-002     6.3198151588439941     
   8.7300000000000003E-002     6.8755726814270020     
   8.7599999999999997E-002     7.0949645042419434     
   8.7900000000000006E-002     6.9876761436462402     
   8.8200000000000014E-002     6.5862255096435547     
   8.8499999999999995E-002     5.9446063041687012     
   8.8800000000000004E-002     5.1312851905822754     
   8.9100000000000013E-002     4.2239389419555664     
   8.9399999999999993E-002     3.3027031421661377     
   8.9700000000000002E-002     2.4418227672576904     
   9.0000000000000011E-002     1.7050291299819946     
   9.0299999999999991E-002     1.1406513452529907     
   9.0600000000000000E-002    0.77663719654083252     
   9.0900000000000009E-002    0.62187081575393677     
   9.1200000000000017E-002    0.66562902927398682     
   9.1499999999999998E-002    0.87908959388732910     
   9.1800000000000007E-002     1.2214053869247437     
   9.2100000000000001E-002     1.6414420604705811     
   9.2399999999999996E-002     2.0836756229400635     
   9.2700000000000005E-002     2.4939839839935303     
   9.3000000000000013E-002     2.8211166858673096     
   9.3300000000000008E-002     3.0213241577148438     
   9.3600000000000003E-002     3.0617129802703857     
   9.3899999999999997E-002     2.9191048145294189     
   9.4200000000000006E-002     2.5830860137939453     
   9.4500000000000001E-002     2.0550982952117920     
   9.4800000000000009E-002     1.3473440408706665     
   9.5100000000000004E-002    0.48306992650032043     
   9.5399999999999999E-002   -0.50645059347152710     
   9.5699999999999993E-002    -1.5815283060073853     
   9.6000000000000002E-002    -2.6963188648223877     
   9.6300000000000011E-002    -3.8025674819946289     
   9.6600000000000005E-002    -4.8506073951721191     
   9.6900000000000000E-002    -5.7893695831298828     
   9.7200000000000009E-002    -6.5744276046752930     
   9.7499999999999989E-002    -7.1666135787963867     
   9.7799999999999998E-002    -7.5335102081298828     
   9.8100000000000007E-002    -7.6560907363891602     
   9.8400000000000015E-002    -7.5264873504638672     
   9.8699999999999996E-002    -7.1487760543823242     
   9.9000000000000005E-002    -6.5430593490600586     
   9.9300000000000013E-002    -5.7415733337402344     
   9.9599999999999994E-002    -4.7874388694763184     
   9.9900000000000003E-002    -3.7371921539306641     
  0.10020000000000001         -2.6536755561828613     
  0.10049999999999999         -1.6051281690597534     
  0.10080000000000000        -0.66417765617370605     
  0.10110000000000001          9.9888980388641357E-002
  0.10140000000000000         0.62336587905883789     
  0.10170000000000000         0.85097461938858032     
  0.10200000000000001         0.74589616060256958     
  0.10230000000000002         0.29064872860908508     
  0.10260000000000000        -0.50731390714645386     
  0.10290000000000001         -1.6077752113342285     
  0.10320000000000000         -2.9394388198852539     
  0.10350000000000001         -4.3985939025878906     
  0.10380000000000000         -5.8492522239685059     
  0.10410000000000001         -7.1325511932373047     
  0.10440000000000001         -8.0772333145141602     
  0.10470000000000000         -8.5095682144165039     
  0.10500000000000000         -8.2740736007690430     
  0.10530000000000000         -7.2504529953002930     
  0.10560000000000000         -5.3686327934265137     
  0.10590000000000001         -2.6275744438171387     
  0.10620000000000000         0.89656209945678711     
  0.10650000000000001          5.0471062660217285     
  0.10679999999999999          9.5883502960205078     
  0.10710000000000000          14.219033241271973     
  0.10740000000000001          18.595680236816406     
  0.10770000000000000          22.354360580444336     
  0.10800000000000000          25.146442413330078     
  0.10830000000000001          26.671497344970703     
  0.10859999999999999          26.705310821533203     
  0.10890000000000000          25.128654479980469     
  0.10920000000000001          21.944477081298828     
  0.10950000000000001          17.280143737792969     
  0.10979999999999999          11.387808799743652     
  0.11009999999999999          4.6268701553344727     
  0.11040000000000001         -2.5698518753051758     
  0.11070000000000001         -9.7204303741455078     
  0.11100000000000000         -16.339262008666992     
  0.11130000000000000         -21.978694915771484     
  0.11160000000000002         -26.257387161254883     
  0.11190000000000001         -28.893932342529297     
  0.11220000000000001         -29.731159210205078     
  0.11250000000000000         -28.734815597534180     
  0.11280000000000000         -25.997470855712891     
  0.11309999999999999         -21.728101730346680     
  0.11340000000000001         -16.222734451293945     
  0.11369999999999998         -9.8425321578979492     
  0.11400000000000000         -2.9848124980926514     
  0.11430000000000000          3.9521136283874512     
  0.11460000000000002          10.592656135559082     
  0.11489999999999999          16.603826522827148     
  0.11520000000000001          21.716852188110352     
  0.11550000000000001          25.733901977539062     
  0.11580000000000000          28.527276992797852     
  0.11609999999999999          30.042268753051758     
  0.11640000000000002          30.289146423339844     
  0.11670000000000001          29.328483581542969     
  0.11700000000000001          27.265741348266602     
  0.11730000000000000          24.239276885986328     
  0.11760000000000000          20.404493331909180     
  0.11789999999999999          15.930824279785156     
  0.11820000000000001          10.993824005126953     
  0.11850000000000001          5.7634630203247070     
  0.11880000000000000         0.40657302737236023     
  0.11910000000000000         -4.9161677360534668     
  0.11940000000000002         -10.058003425598145     
  0.11970000000000001         -14.883558273315430     
  0.12000000000000001         -19.266120910644531     
  0.12030000000000000         -23.097051620483398     
  0.12060000000000000         -26.282087326049805     
  0.12089999999999999         -28.743759155273438     
  0.12119999999999999         -30.422863006591797     
  0.12150000000000001         -31.284177780151367     
  0.12180000000000001         -31.313680648803711     
  0.12210000000000000         -30.522750854492188     
  0.12239999999999999         -28.951259613037109     
  0.12270000000000002         -26.662725448608398     
  0.12300000000000001         -23.745502471923828     
  0.12330000000000001         -20.311178207397461     
  0.12360000000000000         -16.487901687622070     
  0.12390000000000000         -12.412624359130859     
  0.12419999999999999         -8.2287244796752930     
  0.12450000000000001         -4.0756282806396484     
  0.12480000000000001         -8.0027833580970764E-002
  0.12509999999999999          3.6494712829589844     
  0.12540000000000001          7.0231771469116211     
  0.12570000000000003          9.9828615188598633     
  0.12600000000000000          12.497076034545898     
  0.12630000000000002          14.555190086364746     
  0.12659999999999999          16.177015304565430     
  0.12690000000000001          17.399019241333008     
  0.12719999999999998          18.263244628906250     
  0.12750000000000000          18.828350067138672     
  0.12780000000000002          19.148235321044922     
  0.12809999999999999          19.262552261352539     
  0.12840000000000001          19.217256546020508     
  0.12869999999999998          19.035846710205078     
  0.12900000000000000          18.724248886108398     
  0.12930000000000003          18.286859512329102     
  0.12959999999999999          17.709226608276367     
  0.12990000000000002          16.966146469116211     
  0.13019999999999998          16.038238525390625     
  0.13050000000000000          14.899732589721680     
  0.13080000000000003          13.526305198669434     
  0.13109999999999999          11.908763885498047     
  0.13140000000000002          10.046732902526855     
  0.13169999999999998          7.9492602348327637     
  0.13200000000000001          5.6448292732238770     
  0.13229999999999997          3.1786777973175049     
  0.13260000000000000         0.60080689191818237     
  0.13290000000000002         -2.0211858749389648     
  0.13319999999999999         -4.6077561378479004     
  0.13350000000000001         -7.0858588218688965     
  0.13380000000000003         -9.3780059814453125     
  0.13410000000000000         -11.404044151306152     
  0.13440000000000002         -13.108079910278320     
  0.13469999999999999         -14.439443588256836     
  0.13500000000000001         -15.358352661132812     
  0.13529999999999998         -15.856906890869141     
  0.13560000000000000         -15.937460899353027     
  0.13590000000000002         -15.617701530456543     
  0.13619999999999999         -14.945392608642578     
  0.13650000000000001         -13.970373153686523     
  0.13680000000000003         -12.753314971923828     
  0.13710000000000000         -11.372283935546875     
  0.13740000000000002         -9.8954296112060547     
  0.13769999999999999         -8.3897972106933594     
  0.13800000000000001         -6.9248270988464355     
  0.13829999999999998         -5.5511078834533691     
  0.13860000000000000         -4.3083839416503906     
  0.13890000000000002         -3.2286283969879150     
  0.13919999999999999         -2.3205814361572266     
  0.13950000000000001         -1.5846014022827148     
  0.13979999999999998         -1.0072785615921021     
  0.14010000000000000        -0.55946922302246094     
  0.14040000000000002        -0.20679542422294617     
  0.14069999999999999          9.1147109866142273E-002
  0.14100000000000001         0.38037380576133728     
  0.14130000000000004         0.70335268974304199     
  0.14160000000000000          1.0967954397201538     
  0.14189999999999997          1.5916755199432373     
  0.14219999999999999          2.2052886486053467     
  0.14250000000000002          2.9396522045135498     
  0.14279999999999998          3.7845408916473389     
  0.14310000000000000          4.7112088203430176     
  0.14339999999999997          5.6761693954467773     
  0.14369999999999999          6.6292982101440430     
  0.14400000000000002          7.5075821876525879     
  0.14429999999999998          8.2460184097290039     
  0.14460000000000001          8.7899351119995117     
  0.14490000000000003          9.0857648849487305     
  0.14520000000000000          9.0960197448730469     
  0.14550000000000002          8.8087797164916992     
  0.14579999999999999          8.2221994400024414     
  0.14610000000000001          7.3621559143066406     
  0.14640000000000003          6.2777428627014160     
  0.14670000000000000          5.0241713523864746     
  0.14699999999999996          3.6767451763153076     
  0.14729999999999999          2.3162944316864014     
  0.14760000000000001          1.0138642787933350     
  0.14789999999999998        -0.15667198598384857     
  0.14820000000000000         -1.1389504671096802     