  -1.4999999999999999E-002     0.0000000000000000     
  -1.4700000000000000E-002     0.0000000000000000     
  -1.4400000000000000E-002     0.0000000000000000     
  -1.4100000000000000E-002     0.0000000000000000     
  -1.3800000000000000E-002     0.0000000000000000     
  -1.3500000000000000E-002     0.0000000000000000     
  -1.3200000000000000E-002     0.0000000000000000     
  -1.2899999999999998E-002     0.0000000000000000     
  -1.2600000000000000E-002     0.0000000000000000     
  -1.2299999999999998E-002     0.0000000000000000     
  -1.2000000000000000E-002     0.0000000000000000     
  -1.1699999999999999E-002     0.0000000000000000     
  -1.1399999999999999E-002     0.0000000000000000     
  -1.1099999999999999E-002     0.0000000000000000     
  -1.0799999999999999E-002     0.0000000000000000     
  -1.0499999999999999E-002     0.0000000000000000     
  -1.0199999999999999E-002     0.0000000000000000     
  -9.8999999999999991E-003     0.0000000000000000     
  -9.5999999999999992E-003     0.0000000000000000     
  -9.2999999999999992E-003     0.0000000000000000     
  -8.9999999999999993E-003     0.0000000000000000     
  -8.6999999999999994E-003     0.0000000000000000     
  -8.3999999999999995E-003     0.0000000000000000     
  -8.0999999999999996E-003     0.0000000000000000     
  -7.7999999999999988E-003     0.0000000000000000     
  -7.4999999999999997E-003     0.0000000000000000     
  -7.1999999999999998E-003     0.0000000000000000     
  -6.8999999999999981E-003     0.0000000000000000     
  -6.5999999999999982E-003     0.0000000000000000     
  -6.3000000000000000E-003     0.0000000000000000     
  -6.0000000000000001E-003     0.0000000000000000     
  -5.6999999999999985E-003     0.0000000000000000     
  -5.3999999999999986E-003     0.0000000000000000     
  -5.1000000000000004E-003     0.0000000000000000     
  -4.7999999999999987E-003     0.0000000000000000     
  -4.5000000000000005E-003     0.0000000000000000     
  -4.1999999999999989E-003     0.0000000000000000     
  -3.8999999999999990E-003     0.0000000000000000     
  -3.5999999999999990E-003     0.0000000000000000     
  -3.2999999999999991E-003     0.0000000000000000     
  -2.9999999999999992E-003     0.0000000000000000     
  -2.6999999999999993E-003     0.0000000000000000     
  -2.3999999999999994E-003     0.0000000000000000     
  -2.0999999999999977E-003     0.0000000000000000     
  -1.7999999999999995E-003     0.0000000000000000     
  -1.4999999999999979E-003     0.0000000000000000     
  -1.1999999999999997E-003     0.0000000000000000     
  -8.9999999999999976E-004     0.0000000000000000     
  -5.9999999999999810E-004     0.0000000000000000     
  -2.9999999999999992E-004     0.0000000000000000     
   0.0000000000000000          0.0000000000000000     
   3.0000000000000165E-004     0.0000000000000000     
   5.9999999999999984E-004     0.0000000000000000     
   9.0000000000000149E-004     0.0000000000000000     
   1.2000000000000031E-003     0.0000000000000000     
   1.5000000000000013E-003     0.0000000000000000     
   1.8000000000000030E-003     0.0000000000000000     
   2.1000000000000012E-003     0.0000000000000000     
   2.3999999999999994E-003     0.0000000000000000     
   2.7000000000000010E-003     0.0000000000000000     
   2.9999999999999992E-003     0.0000000000000000     
   3.3000000000000008E-003     0.0000000000000000     
   3.6000000000000025E-003     0.0000000000000000     
   3.9000000000000007E-003     0.0000000000000000     
   4.2000000000000023E-003     0.0000000000000000     
   4.5000000000000005E-003     0.0000000000000000     
   4.7999999999999987E-003     0.0000000000000000     
   5.1000000000000004E-003     0.0000000000000000     
   5.4000000000000020E-003     0.0000000000000000     
   5.7000000000000037E-003     0.0000000000000000     
   5.9999999999999984E-003     0.0000000000000000     
   6.3000000000000000E-003     0.0000000000000000     
   6.6000000000000017E-003     0.0000000000000000     
   6.9000000000000034E-003     0.0000000000000000     
   7.2000000000000015E-003     0.0000000000000000     
   7.5000000000000032E-003     0.0000000000000000     
   7.8000000000000014E-003     0.0000000000000000     
   8.0999999999999996E-003     0.0000000000000000     
   8.4000000000000012E-003     0.0000000000000000     
   8.7000000000000029E-003     0.0000000000000000     
   9.0000000000000011E-003     0.0000000000000000     
   9.2999999999999992E-003     0.0000000000000000     
   9.6000000000000009E-003     0.0000000000000000     
   9.8999999999999991E-003     0.0000000000000000     
   1.0200000000000001E-002     0.0000000000000000     
   1.0500000000000002E-002     0.0000000000000000     
   1.0800000000000004E-002     0.0000000000000000     
   1.1099999999999999E-002     0.0000000000000000     
   1.1400000000000000E-002     0.0000000000000000     
   1.1700000000000002E-002     0.0000000000000000     
   1.2000000000000004E-002     0.0000000000000000     
   1.2300000000000002E-002     0.0000000000000000     
   1.2600000000000000E-002     0.0000000000000000     
   1.2900000000000002E-002     0.0000000000000000     
   1.3200000000000000E-002     0.0000000000000000     
   1.3500000000000002E-002     0.0000000000000000     
   1.3800000000000003E-002     0.0000000000000000     
   1.4100000000000001E-002     0.0000000000000000     
   1.4400000000000000E-002     0.0000000000000000     
   1.4700000000000001E-002     0.0000000000000000     
   1.4999999999999999E-002     0.0000000000000000     
   1.5300000000000001E-002     0.0000000000000000     
   1.5600000000000003E-002     0.0000000000000000     
   1.5899999999999997E-002     0.0000000000000000     
   1.6199999999999999E-002     0.0000000000000000     
   1.6500000000000001E-002     0.0000000000000000     
   1.6800000000000002E-002     0.0000000000000000     
   1.7100000000000004E-002     0.0000000000000000     
   1.7400000000000006E-002     0.0000000000000000     
   1.7700000000000000E-002     0.0000000000000000     
   1.8000000000000002E-002     0.0000000000000000     
   1.8300000000000004E-002     0.0000000000000000     
   1.8600000000000005E-002     0.0000000000000000     
   1.8900000000000000E-002     0.0000000000000000     
   1.9200000000000002E-002     0.0000000000000000     
   1.9500000000000003E-002     0.0000000000000000     
   1.9799999999999998E-002     0.0000000000000000     
   2.0100000000000000E-002     0.0000000000000000     
   2.0400000000000001E-002     0.0000000000000000     
   2.0700000000000003E-002     0.0000000000000000     
   2.0999999999999998E-002     0.0000000000000000     
   2.1299999999999999E-002     0.0000000000000000     
   2.1600000000000001E-002     0.0000000000000000     
   2.1900000000000003E-002     0.0000000000000000     
   2.2200000000000004E-002     0.0000000000000000     
   2.2500000000000006E-002     0.0000000000000000     
   2.2800000000000001E-002     0.0000000000000000     
   2.3100000000000002E-002     0.0000000000000000     
   2.3400000000000004E-002     0.0000000000000000     
   2.3699999999999999E-002     0.0000000000000000     
   2.4000000000000000E-002     0.0000000000000000     
   2.4300000000000002E-002     0.0000000000000000     
   2.4599999999999997E-002     0.0000000000000000     
   2.4900000000000005E-002     0.0000000000000000     
   2.5200000000000000E-002     0.0000000000000000     
   2.5499999999999995E-002     0.0000000000000000     
   2.5800000000000003E-002     0.0000000000000000     
   2.6099999999999998E-002     0.0000000000000000     
   2.6400000000000007E-002     0.0000000000000000     
   2.6700000000000002E-002     0.0000000000000000     
   2.6999999999999996E-002     0.0000000000000000     
   2.7300000000000005E-002     0.0000000000000000     
   2.7600000000000000E-002     0.0000000000000000     
   2.7900000000000008E-002     0.0000000000000000     
   2.8200000000000003E-002     0.0000000000000000     
   2.8499999999999998E-002     0.0000000000000000     
   2.8800000000000006E-002     0.0000000000000000     
   2.9100000000000001E-002     0.0000000000000000     
   2.9400000000000003E-002     0.0000000000000000     
   2.9700000000000004E-002     0.0000000000000000     
   3.0000000000000006E-002     0.0000000000000000     
   3.0300000000000001E-002     0.0000000000000000     
   3.0600000000000002E-002     0.0000000000000000     
   3.0900000000000004E-002     0.0000000000000000     
   3.1199999999999999E-002     0.0000000000000000     
   3.1500000000000007E-002     0.0000000000000000     
   3.1800000000000002E-002     0.0000000000000000     
   3.2099999999999997E-002     0.0000000000000000     
   3.2400000000000005E-002     0.0000000000000000     
   3.2700000000000000E-002     0.0000000000000000     
   3.3000000000000002E-002     0.0000000000000000     
   3.3300000000000003E-002     0.0000000000000000     
   3.3599999999999998E-002     0.0000000000000000     
   3.3900000000000000E-002     0.0000000000000000     
   3.4200000000000001E-002     0.0000000000000000     
   3.4500000000000003E-002     0.0000000000000000     
   3.4799999999999998E-002     0.0000000000000000     
   3.5099999999999999E-002     0.0000000000000000     
   3.5400000000000001E-002     0.0000000000000000     
   3.5699999999999996E-002     0.0000000000000000     
   3.6000000000000004E-002     0.0000000000000000     
   3.6299999999999999E-002     0.0000000000000000     
   3.6600000000000008E-002     0.0000000000000000     
   3.6900000000000002E-002     1.4003730468189770E-037
   3.7199999999999997E-002     1.1928725645160715E-036
   3.7500000000000006E-002    -3.8548373936496303E-035
   3.7800000000000000E-002     1.3018118541266868E-034
   3.8100000000000009E-002    -8.1453590331711185E-035
   3.8400000000000004E-002    -1.0334280511978405E-033
   3.8699999999999998E-002     5.0051194122166333E-033
   3.9000000000000007E-002    -1.9421876052937022E-032
   3.9300000000000002E-002     7.5209560071181441E-032
   3.9600000000000003E-002    -2.9915590084644112E-031
   3.9900000000000005E-002     1.2149919810301577E-030
   4.0200000000000000E-002    -4.9486630614195552E-030
   4.0500000000000001E-002     1.9924518782177944E-029
   4.0800000000000003E-002    -7.8487067160243196E-029
   4.1100000000000005E-002     3.0047529961054788E-028
   4.1399999999999999E-002    -1.1137071772589414E-027
   4.1700000000000008E-002     3.9885497785778880E-027
   4.2000000000000003E-002    -1.3785208710222703E-026
   4.2299999999999997E-002     4.5919835205049334E-026
   4.2600000000000006E-002    -1.4710147791263566E-025
   4.2900000000000001E-002     4.5137791267958062E-025
   4.3200000000000002E-002    -1.3176451261362613E-024
   4.3500000000000004E-002     3.6167604485731835E-024
   4.3799999999999999E-002    -9.1400773438285286E-024
   4.4100000000000000E-002     2.0349454551284214E-023
   4.4400000000000002E-002    -3.5243831158734779E-023
   4.4700000000000004E-002     2.0030421097521200E-023
   4.4999999999999998E-002     2.0261835091597634E-022
   4.5300000000000000E-002    -1.3557653332934372E-021
   4.5600000000000002E-002     6.0388777975835673E-021
   4.5899999999999996E-002    -2.2811722711582617E-020
   4.6200000000000005E-002     7.7623011959043515E-020
   4.6500000000000000E-002    -2.4140585642631943E-019
   4.6799999999999994E-002     6.7863522214267494E-019
   4.7100000000000003E-002    -1.6545288907296248E-018
   4.7399999999999998E-002     3.1037571345303248E-018
   4.7700000000000006E-002    -2.2123775347814998E-018
   4.8000000000000001E-002    -1.5350913189636774E-017
   4.8300000000000010E-002     9.8418176725828535E-017
   4.8600000000000004E-002    -3.6681134991900044E-016
   4.8899999999999999E-002     9.8832525250233394E-016
   4.9200000000000008E-002    -1.7636543487474279E-015
   4.9500000000000002E-002     4.4332803707005346E-016
   4.9800000000000011E-002     1.1273524258216422E-014
   5.0100000000000006E-002    -5.1338064504276551E-014
   5.0400000000000000E-002     1.3101151402863051E-013
   5.0700000000000009E-002    -1.6288528347847428E-013
   5.1000000000000004E-002    -2.6764075426380858E-013
   5.1299999999999998E-002     2.0663625743288499E-012
   5.1600000000000007E-002    -5.5611573532629325E-012
   5.1900000000000002E-002     5.7156877862297492E-012
   5.2200000000000010E-002     1.5954013303899685E-011
   5.2500000000000005E-002    -8.3650619811834698E-011
   5.2800000000000000E-002     1.5014261871636928E-010
   5.3099999999999994E-002     6.7510759026130881E-011
   5.3400000000000003E-002    -1.0191016303108126E-009
   5.3699999999999998E-002     2.1017611198999567E-009
   5.4000000000000006E-002     7.1442394141421692E-010
   5.4300000000000001E-002    -1.2401521689981012E-008
   5.4599999999999996E-002     1.9644671951935952E-008
   5.4900000000000004E-002     2.8148517285951458E-008
   5.5199999999999999E-002    -1.3514434370836498E-007
   5.5499999999999994E-002     3.2951139710419916E-008
   5.5800000000000002E-002     5.6498878430814430E-007
   5.6099999999999997E-002    -5.8396789565045264E-007
   5.6400000000000006E-002    -2.2266484264747477E-006
   5.6700000000000000E-002     3.4374443734597020E-006
   5.6999999999999995E-002     1.7691147911165430E-005
   5.7300000000000004E-002     2.8823049137532671E-005
   5.7599999999999998E-002     3.1830841002840121E-005
   5.7900000000000007E-002     3.7787788765103426E-005
   5.8200000000000002E-002     5.6953954532885671E-005
   5.8499999999999996E-002     9.1191714982853753E-005
   5.8800000000000005E-002     1.4182665013115405E-004
   5.9100000000000000E-002     2.1571660229884656E-004
   5.9400000000000008E-002     3.2503815990028544E-004
   5.9700000000000003E-002     4.7941390708980576E-004
   6.0000000000000012E-002     6.8806544164424360E-004
   6.0300000000000006E-002     9.7091499219385813E-004
   6.0600000000000001E-002     1.3512893105910861E-003
   6.0900000000000010E-002     1.8486906315908977E-003
   6.1200000000000004E-002     2.4835011747445096E-003
   6.1500000000000013E-002     3.2761877616140911E-003
   6.1800000000000008E-002     4.2480105101470322E-003
   6.2100000000000002E-002     5.4071977298375817E-003
   6.2399999999999997E-002     6.7289848934345697E-003
   6.2700000000000006E-002     8.1730752580419508E-003
   6.3000000000000000E-002     9.6837229394730051E-003
   6.3300000000000009E-002     1.1151489632129308E-002
   6.3600000000000004E-002     1.2408016885714079E-002
   6.3899999999999998E-002     1.3240005434695834E-002
   6.4199999999999993E-002     1.3394622233626474E-002
   6.4500000000000002E-002     1.2574171519192157E-002
   6.4800000000000010E-002     1.0420028703861578E-002
   6.5100000000000005E-002     6.5579954744414311E-003
   6.5400000000000000E-002     6.5163917753982559E-004
   6.5700000000000008E-002    -7.5917992337124207E-003
   6.5999999999999989E-002    -1.8375988006985255E-002
   6.6299999999999998E-002    -3.1756155311854495E-002
   6.6600000000000006E-002    -4.7624729803626753E-002
   6.6900000000000001E-002    -6.5657787393175404E-002
   6.7199999999999996E-002    -8.5277910799834267E-002
   6.7500000000000004E-002   -0.10568649228259464     
   6.7800000000000013E-002   -0.12588290646968758     
   6.8099999999999994E-002   -0.14471853273352142     
   6.8400000000000002E-002   -0.16098031935124624     
   6.8700000000000011E-002   -0.17346140200014482     
   6.8999999999999992E-002   -0.18107923273294357     
   6.9300000000000000E-002   -0.18300599257755046     
   6.9600000000000009E-002   -0.17873026556283556     
   6.9900000000000004E-002   -0.16813291280572606     
   7.0199999999999999E-002   -0.15151427323213884     
   7.0500000000000007E-002   -0.12956243001579404     
   7.0800000000000016E-002   -0.10332042676381592     
   7.1099999999999997E-002    -7.4100436000546610E-002
   7.1400000000000005E-002    -4.3279146917046818E-002
   7.1700000000000000E-002    -1.2246268853783215E-002
   7.1999999999999995E-002     1.7764012033620213E-002
   7.2300000000000003E-002     4.5797782092304784E-002
   7.2600000000000012E-002     7.1166066560937491E-002
   7.2900000000000006E-002     9.3557719121778682E-002
   7.3200000000000001E-002    0.11292437351972140     
   7.3499999999999996E-002    0.12948105416290812     
   7.3800000000000004E-002    0.14351480812296558     
   7.4099999999999999E-002    0.15535553963750193     
   7.4400000000000008E-002    0.16515876081362180     
   7.4700000000000003E-002    0.17296298464708126     
   7.5000000000000011E-002    0.17849217769198855     
   7.5299999999999992E-002    0.18134195828687005     
   7.5600000000000001E-002    0.18085028774617395     
   7.5900000000000009E-002    0.17632224867495339     
   7.6200000000000004E-002    0.16708374830663253     
   7.6499999999999999E-002    0.15260906981170574     
   7.6800000000000007E-002    0.13269580917632329     
   7.7099999999999988E-002    0.10749251089974887     
   7.7399999999999997E-002     7.7605802871316354E-002
   7.7700000000000005E-002     4.4115802429313788E-002
   7.8000000000000014E-002     8.5750027779359916E-003
   7.8299999999999995E-002    -2.7054717874331669E-002
   7.8600000000000003E-002    -6.0456592698747924E-002
   7.8900000000000012E-002    -8.9111268385715814E-002
   7.9199999999999993E-002   -0.11031626584120646     
   7.9500000000000001E-002   -0.12148598404139088     
   7.9800000000000010E-002   -0.12012284315203203     
   8.0100000000000018E-002   -0.10418246720134583     
   8.0399999999999999E-002    -7.2091134572048562E-002
   8.0700000000000008E-002    -2.2995247949205710E-002
   8.1000000000000003E-002     4.3015187226409846E-002
   8.1299999999999997E-002    0.12484503380456502     
   8.1600000000000006E-002    0.22018708999772318     
   8.1900000000000014E-002    0.32562879663487543     
   8.2199999999999995E-002    0.43649829360771442     
   8.2500000000000004E-002    0.54725699184313825     
   8.2799999999999999E-002    0.65147536923788607     
   8.3100000000000007E-002    0.74242722008494511     
   8.3400000000000002E-002    0.81343636945581110     
   8.3700000000000011E-002    0.85824202545783024     
   8.4000000000000005E-002    0.87170523714481618     
   8.4300000000000000E-002    0.85017242590759068     
   8.4599999999999995E-002    0.79184158124799708     
   8.4900000000000003E-002    0.69703401310762558     
   8.5199999999999998E-002    0.56836390593389297     
   8.5500000000000007E-002    0.41057512118266448     
   8.5800000000000001E-002    0.23039000899452389     
   8.6100000000000010E-002     3.6100494859915511E-002
   8.6399999999999991E-002   -0.16321698035061694     
   8.6699999999999999E-002   -0.35785619046397521     
   8.7000000000000008E-002   -0.53869347476930329     
   8.7300000000000003E-002   -0.69739780685303998     
   8.7599999999999997E-002   -0.82731603724493041     
   8.7900000000000006E-002   -0.92378686918772601     
   8.8200000000000014E-002   -0.98444603564183097     
   8.8499999999999995E-002    -1.0094690668740967     
   8.8800000000000004E-002    -1.0011726853056651     
   8.9100000000000013E-002   -0.96429872798375982     
   8.9399999999999993E-002   -0.90488483065486136     
   8.9700000000000002E-002   -0.83037900447940771     
   9.0000000000000011E-002   -0.74839021241884751     
   9.0299999999999991E-002   -0.66661724811514489     
   9.0600000000000000E-002   -0.59160769707084526     
   9.0900000000000009E-002   -0.52872590454869695     
   9.1200000000000017E-002   -0.48143031510993950     
   9.1499999999999998E-002   -0.45110853728738576     
   9.1800000000000007E-002   -0.43710230463325672     
   9.2100000000000001E-002   -0.43671561623754407     
   9.2399999999999996E-002   -0.44556687390548788     
   9.2700000000000005E-002   -0.45806558412830078     
   9.3000000000000013E-002   -0.46800145993858422     
   9.3300000000000008E-002   -0.46894491242778535     
   9.3600000000000003E-002   -0.45525469230841153     
   9.3899999999999997E-002   -0.42211380479881200     
   9.4200000000000006E-002   -0.36641779609539693     
   9.4500000000000001E-002   -0.28685358481945888     
   9.4800000000000009E-002   -0.18411062147948914     
   9.5100000000000004E-002    -6.0749566996992854E-002
   9.5399999999999999E-002     7.8716008491531930E-002
   9.5699999999999993E-002    0.22854917892069349     
   9.6000000000000002E-002    0.38199305704995012     
   9.6300000000000011E-002    0.53173385469338541     
   9.6600000000000005E-002    0.67080485348433427     
   9.6900000000000000E-002    0.79265696409926534     
   9.7200000000000009E-002    0.89207086056383034     
   9.7499999999999989E-002    0.96517552464706213     
   9.7799999999999998E-002     1.0098473382378685     
   9.8100000000000007E-002     1.0257267612544752     
   9.8400000000000015E-002     1.0140414265340389     
   9.8699999999999996E-002    0.97749161753843339     
   9.9000000000000005E-002    0.91968205880895937     
   9.9300000000000013E-002    0.84497712409864789     
   9.9599999999999994E-002    0.75760404168411100     
   9.9900000000000003E-002    0.66159541731498450     
  0.10020000000000001         0.56019608493034312     
  0.10049999999999999         0.45568419909098878     
  0.10080000000000000         0.34916696690501947     
  0.10110000000000001         0.24079938676366464     
  0.10140000000000000         0.12992324170961100     
  0.10170000000000000          1.5432318350424357E-002
  0.10200000000000001        -0.10385102885469610     
  0.10230000000000002        -0.22863414525440895     
  0.10260000000000000        -0.35883415926777218     
  0.10290000000000001        -0.49300824999162884     
  0.10320000000000000        -0.62850000767163650     
  0.10350000000000001        -0.76113564969717373     
  0.10380000000000000        -0.88543627344392206     
  0.10410000000000001        -0.99522121145165343     
  0.10440000000000001         -1.0835063466799184     
  0.10470000000000000         -1.1438991883504883     
  0.10500000000000000         -1.1704298679695810     
  0.10530000000000000         -1.1587564867371398     
  0.10560000000000000         -1.1063879139317301     
  0.10590000000000001         -1.0130846223191305     
  0.10620000000000000        -0.88121554346307107     
  0.10650000000000001        -0.71547359349375483     
  0.10679999999999999        -0.52301140758760578     
  0.10710000000000000        -0.31254182843565603     
  0.10740000000000001         -9.4448501673356056E-002
  0.10770000000000000         0.12085628911538482     
  0.10800000000000000         0.32283236115874026     
  0.10830000000000001         0.50195895644265853     
  0.10859999999999999         0.65056198067222226     
  0.10890000000000000         0.76283418390294955     
  0.10920000000000001         0.83593898649972687     
  0.10950000000000001         0.86952236101114266     
  0.10979999999999999         0.86599129618560156     
  0.11009999999999999         0.83016572337169237     
  0.11040000000000001         0.76879319737967933     
  0.11070000000000001         0.68998437696077630     
  0.11100000000000000         0.60239520248824796     
  0.11130000000000000         0.51463443953616483     
  0.11160000000000002         0.43438698292728084     
  0.11190000000000001         0.36803737027917904     
  0.11220000000000001         0.32002724517252013     
  0.11250000000000000         0.29264750255654270     
  0.11280000000000000         0.28622891239944792     
  0.11309999999999999         0.29900605263464719     
  0.11340000000000001         0.32756709879981827     
  0.11369999999999998         0.36743846081326481     
  0.11400000000000000         0.41340704195441624     
  0.11430000000000000         0.46046848205116575     
  0.11460000000000002         0.50373135702208316     
  0.11489999999999999         0.53958237478925142     
  0.11520000000000001         0.56508748596992930     
  0.11550000000000001         0.57891937518630243     
  0.11580000000000000         0.58056880899571794     
  0.11609999999999999         0.57054060146308672     
  0.11640000000000002         0.55002372699859237     
  0.11670000000000001         0.52020309391195241     
  0.11700000000000001         0.48244066252484608     
  0.11730000000000000         0.43730350003603746     
  0.11760000000000000         0.38532013308805269     
  0.11789999999999999         0.32573671268544402     
  0.11820000000000001         0.25787089540660002     
  0.11850000000000001         0.18035549928020012     
  0.11880000000000000          9.1915176555538824E-002
  0.11910000000000000         -8.2854877167102270E-003
  0.11940000000000002        -0.12054343227320885     
  0.11970000000000001        -0.24411871388640982     
  0.12000000000000001        -0.37707358423709003     
  0.12030000000000000        -0.51627263845642801     
  0.12060000000000000        -0.65749337734170155     
  0.12089999999999999        -0.79533570987316793     
  0.12119999999999999        -0.92405406537512746     
  0.12150000000000001         -1.0373843680799979     
  0.12180000000000001         -1.1293669589383981     
  0.12210000000000000         -1.1947186796553311     
  0.12239999999999999         -1.2290484091913996     
  0.12270000000000002         -1.2294191688038438     
  0.12300000000000001         -1.1944239217868926     
  0.12330000000000001         -1.1244847049924935     
  0.12360000000000000         -1.0215590318092431     
  0.12390000000000000        -0.88953865723848935     
  0.12419999999999999        -0.73358640993060398     
  0.12450000000000001        -0.56008972298210669     
  0.12480000000000001        -0.37640354086610806     
  0.12509999999999999        -0.19022725893668468     
  0.12540000000000001         -9.6337883786865586E-003
  0.12570000000000003         0.15773905541507638     
  0.12600000000000000         0.30466858495074511     
  0.12630000000000002         0.42495636910800272     
  0.12659999999999999         0.51342550608035964     
  0.12690000000000001         0.56636745308846415     
  0.12719999999999998         0.58154328880054962     
  0.12750000000000000         0.55833416075276432     
  0.12780000000000002         0.49810549234926782     
  0.12809999999999999         0.40365745777507023     
  0.12840000000000001         0.27977682657942760     
  0.12869999999999998         0.13275873174887209     
  0.12900000000000000         -2.9577380071584836E-002
  0.12930000000000003        -0.19819033648316786     
  0.12959999999999999        -0.36319181045789684     
  0.12990000000000002        -0.51429314040717422     
  0.13019999999999998        -0.64139643719724049     
  0.13050000000000000        -0.73504355017146139     
  0.13080000000000003        -0.78731872905714440     
  0.13109999999999999        -0.79229656509363977     
  0.13140000000000002        -0.74671097239377460     
  0.13169999999999998        -0.65055202392566791     
  0.13200000000000001        -0.50697474596355674     
  0.13229999999999997        -0.32279822413107606     
  0.13260000000000000        -0.10804459339707773     
  0.13290000000000002         0.12475375119156196     
  0.13319999999999999         0.36065890978603576     
  0.13350000000000001         0.58424508044531720     
  0.13380000000000003         0.77993437000982624     
  0.13410000000000000         0.93373462984855493     
  0.13440000000000002          1.0341772856108378     
  0.13469999999999999          1.0734321780193596     
  0.13500000000000001          1.0481081241367427     
  0.13529999999999998         0.95973468371974491     
  0.13560000000000000         0.81498409668902916     
  0.13590000000000002         0.62465119919325396     
  0.13619999999999999         0.40390372799478902     
  0.13650000000000001         0.17032926483418720     
  0.13680000000000003         -5.7089418893038757E-002
  0.13710000000000000        -0.25951463658348572     
  0.13740000000000002        -0.42025875393435719     
  0.13769999999999999        -0.52539909291522946     
  0.13800000000000001        -0.56600967235461574     
  0.13829999999999998        -0.53811731161772691     
  0.13860000000000000        -0.44356497996833277     
  0.13890000000000002        -0.28984066652363616     
  0.13919999999999999         -8.9168627201669182E-002
  0.13950000000000001         0.14193775548956378     
  0.13979999999999998         0.38474851973077229     
  0.14010000000000000         0.61903229506207325     
  0.14040000000000002         0.82577789671288215     
  0.14069999999999999         0.98752186212212933     
  0.14100000000000001          1.0907589461384788     
  0.14130000000000004          1.1261637000456339     
  0.14160000000000000          1.0896068919093587     
  0.14189999999999997         0.98238264476571757     
  0.14219999999999999         0.81045986330352537     
  0.14250000000000002         0.58448396657236534     
  0.14279999999999998         0.31828917073719865     
  0.14310000000000000          2.8208491463141083E-002
  0.14339999999999997        -0.26848432485336104     
  0.14369999999999999        -0.55480937556069421     
  0.14400000000000002        -0.81486133169787323     
  0.14429999999999998         -1.0351719489283866     
  0.14460000000000001         -1.2050666074101315     
  0.14490000000000003         -1.3175250253731221     
  0.14520000000000000         -1.3690048899160985     
  0.14550000000000002         -1.3597853170295124     
  0.14579999999999999         -1.2932899393803368     
  0.14610000000000001         -1.1762355471622712     
  0.14640000000000003         -1.0174579063280120     
  0.14670000000000000        -0.82762436944742035     
  0.14699999999999996        -0.61859053128320340     
  0.14729999999999999        -0.40233613682784108     
  0.14760000000000001        -0.19047206578165721     
  0.14789999999999998          6.3096804188866873E-003
  0.14820000000000000         0.17905224661794872     