  -1.4999999999999999E-002     0.0000000000000000     
  -1.4700000000000000E-002     0.0000000000000000     
  -1.4400000000000000E-002     0.0000000000000000     
  -1.4100000000000000E-002     0.0000000000000000     
  -1.3800000000000000E-002     0.0000000000000000     
  -1.3500000000000000E-002     0.0000000000000000     
  -1.3200000000000000E-002     0.0000000000000000     
  -1.2899999999999998E-002     0.0000000000000000     
  -1.2600000000000000E-002     0.0000000000000000     
  -1.2299999999999998E-002     0.0000000000000000     
  -1.2000000000000000E-002     0.0000000000000000     
  -1.1699999999999999E-002     0.0000000000000000     
  -1.1399999999999999E-002     0.0000000000000000     
  -1.1099999999999999E-002     0.0000000000000000     
  -1.0799999999999999E-002     0.0000000000000000     
  -1.0499999999999999E-002     0.0000000000000000     
  -1.0199999999999999E-002     0.0000000000000000     
  -9.8999999999999991E-003     0.0000000000000000     
  -9.5999999999999992E-003     0.0000000000000000     
  -9.2999999999999992E-003     0.0000000000000000     
  -8.9999999999999993E-003     0.0000000000000000     
  -8.6999999999999994E-003     0.0000000000000000     
  -8.3999999999999995E-003     0.0000000000000000     
  -8.0999999999999996E-003     0.0000000000000000     
  -7.7999999999999988E-003     0.0000000000000000     
  -7.4999999999999997E-003     0.0000000000000000     
  -7.1999999999999998E-003     0.0000000000000000     
  -6.8999999999999981E-003     0.0000000000000000     
  -6.5999999999999982E-003     0.0000000000000000     
  -6.3000000000000000E-003     0.0000000000000000     
  -6.0000000000000001E-003     0.0000000000000000     
  -5.6999999999999985E-003     0.0000000000000000     
  -5.3999999999999986E-003     0.0000000000000000     
  -5.1000000000000004E-003     0.0000000000000000     
  -4.7999999999999987E-003     0.0000000000000000     
  -4.5000000000000005E-003     0.0000000000000000     
  -4.1999999999999989E-003     0.0000000000000000     
  -3.8999999999999990E-003     0.0000000000000000     
  -3.5999999999999990E-003     0.0000000000000000     
  -3.2999999999999991E-003     0.0000000000000000     
  -2.9999999999999992E-003     0.0000000000000000     
  -2.6999999999999993E-003     0.0000000000000000     
  -2.3999999999999994E-003     0.0000000000000000     
  -2.0999999999999977E-003     0.0000000000000000     
  -1.7999999999999995E-003     0.0000000000000000     
  -1.4999999999999979E-003     0.0000000000000000     
  -1.1999999999999997E-003     0.0000000000000000     
  -8.9999999999999976E-004     0.0000000000000000     
  -5.9999999999999810E-004     0.0000000000000000     
  -2.9999999999999992E-004     0.0000000000000000     
   0.0000000000000000          0.0000000000000000     
   3.0000000000000165E-004     0.0000000000000000     
   5.9999999999999984E-004     0.0000000000000000     
   9.0000000000000149E-004     0.0000000000000000     
   1.2000000000000031E-003     0.0000000000000000     
   1.5000000000000013E-003     0.0000000000000000     
   1.8000000000000030E-003     0.0000000000000000     
   2.1000000000000012E-003     0.0000000000000000     
   2.3999999999999994E-003     0.0000000000000000     
   2.7000000000000010E-003     0.0000000000000000     
   2.9999999999999992E-003     0.0000000000000000     
   3.3000000000000008E-003     0.0000000000000000     
   3.6000000000000025E-003     0.0000000000000000     
   3.9000000000000007E-003    -1.9413372424143278E-037
   4.2000000000000023E-003     9.1120878782736413E-037
   4.5000000000000005E-003    -2.9325923603803645E-036
   4.7999999999999987E-003    -9.0249340642330208E-036
   5.1000000000000004E-003     4.2157401815574860E-035
   5.4000000000000020E-003    -2.7992188159432081E-034
   5.7000000000000037E-003     9.9322331397452106E-034
   5.9999999999999984E-003    -1.2343303910364956E-033
   6.3000000000000000E-003    -1.4146589081078705E-035
   6.6000000000000017E-003     4.5542403060533340E-033
   6.9000000000000034E-003    -1.6784069447067852E-032
   7.2000000000000015E-003     2.2710184365513469E-032
   7.5000000000000032E-003     2.0240798595132136E-032
   7.8000000000000014E-003    -1.4315008238296903E-031
   8.0999999999999996E-003     2.5625802872851544E-031
   8.4000000000000012E-003    -4.5655594221772952E-032
   8.7000000000000029E-003    -9.1120125129164929E-031
   9.0000000000000011E-003     2.4326907802103826E-030
   9.2999999999999992E-003    -2.4001553580854406E-030
   9.6000000000000009E-003    -3.6621236807510182E-030
   9.8999999999999991E-003     1.8631907353669275E-029
   1.0200000000000001E-002    -3.2688669189675643E-029
   1.0500000000000002E-002     1.0538810097400085E-029
   1.0800000000000004E-002     9.8669369262276423E-029
   1.1099999999999999E-002    -2.8921231994048387E-028
   1.1400000000000000E-002     3.6090649641869742E-028
   1.1700000000000002E-002     1.5244901301693493E-028
   1.2000000000000004E-002    -1.6715483386313533E-027
   1.2300000000000002E-002     3.5926953969263090E-027
   1.2600000000000000E-002    -3.0576938219632507E-027
   1.2900000000000002E-002    -4.6449719393743107E-027
   1.3200000000000000E-002     2.1217031902981251E-026
   1.3500000000000002E-002    -3.5659394790001129E-026
   1.3800000000000003E-002     1.7520711938089664E-026
   1.4100000000000001E-002     6.8778186169874482E-026
   1.4400000000000000E-002    -2.1218985429703662E-025
   1.4700000000000001E-002     2.8413723743927261E-025
   1.4999999999999999E-002    -3.3897247934812087E-026
   1.5300000000000001E-002    -7.2396478650903550E-025
   1.5600000000000003E-002     1.7059612022495171E-024
   1.5899999999999997E-002    -1.8237399478465062E-024
   1.6199999999999999E-002    -4.7284594465797849E-025
   1.6500000000000001E-002     5.7159651007092677E-024
   1.6800000000000002E-002    -1.1339484121773354E-023
   1.7100000000000004E-002     1.0811083210814308E-023
   1.7400000000000006E-002     4.0198964728301634E-024
   1.7700000000000000E-002    -3.6657437682456445E-023
   1.8000000000000002E-002     7.5985366598280515E-023
   1.8300000000000004E-002    -8.3107648672558982E-023
   1.8600000000000005E-002    -1.5140208910026631E-023
   1.8900000000000000E-002     2.8591205498656334E-022
   1.9200000000000002E-002    -6.4275519699504241E-022
   1.9500000000000003E-002     6.2975655521916395E-022
   1.9799999999999998E-002     5.2547850782634779E-022
   2.0100000000000000E-002    -3.0287159569905483E-021
   2.0400000000000001E-002     4.8633738050217914E-021
   2.0700000000000003E-002    -1.3217895928644644E-021
   2.0999999999999998E-002    -1.0846891213032767E-020
   2.1299999999999999E-002     2.4429110043888286E-020
   2.1600000000000001E-002    -1.7323396219968394E-020
   2.1900000000000003E-002    -3.0701895767825199E-020
   2.2200000000000004E-002     9.7987857193742020E-020
   2.2500000000000006E-002    -9.7197808157023892E-020
   2.2800000000000001E-002    -6.4630942970631348E-020
   2.3100000000000002E-002     3.3257203180317108E-019
   2.3400000000000004E-002    -4.0205599241290401E-019
   2.3699999999999999E-002    -8.1030297334234344E-020
   2.4000000000000000E-002     9.6197981528096879E-019
   2.4300000000000002E-002    -1.1962290491924643E-018
   2.4599999999999997E-002    -2.5934009612168014E-019
   2.4900000000000005E-002     2.0556615278870127E-018
   2.5200000000000000E-002    -1.4956711596742826E-019
   2.5499999999999995E-002    -4.1116746746256431E-018
   2.5800000000000003E-002    -4.9039420172905970E-018
   2.6099999999999998E-002     2.8832959044487016E-017
   2.6400000000000007E-002     8.9769036714046691E-018
   2.6700000000000002E-002    -1.6095544714347529E-016
   2.6999999999999996E-002     1.1699199008441205E-017
   2.7300000000000005E-002     1.1271492672309037E-015
   2.7600000000000000E-002    -1.5067432164006493E-015
   2.7900000000000008E-002    -4.7239659100793074E-015
   2.8200000000000003E-002     1.5468385037791603E-014
   2.8499999999999998E-002    -3.1309150913904834E-015
   2.8800000000000006E-002    -4.4767517037093433E-014
   2.9100000000000001E-002     5.0024279162415117E-014
   2.9400000000000003E-002    -6.5169748554227705E-014
   2.9700000000000004E-002     6.1030797590783486E-013
   3.0000000000000006E-002    -7.0648028470599654E-013
   3.0300000000000001E-002    -6.2810171150560044E-012
   3.0600000000000002E-002     2.1009702220735379E-011
   3.0900000000000004E-002     6.8022423867107946E-012
   3.1199999999999999E-002    -1.5847933391199036E-010
   3.1500000000000007E-002     2.4142163185209089E-010
   3.1800000000000002E-002     4.8991987161291238E-010
   3.2099999999999997E-002    -2.0487453379390699E-009
   3.2400000000000005E-002     7.8157427738273960E-010
   3.2700000000000000E-002     7.9121390430731470E-009
   3.3000000000000002E-002    -1.3725105009294839E-008
   3.3300000000000003E-002    -1.2555018691459181E-008
   3.3599999999999998E-002     5.9443822707247896E-008
   3.3900000000000000E-002    -2.2002444971308268E-008
   3.4200000000000001E-002    -1.4715531827171140E-007
   3.4500000000000003E-002     1.4373072472143221E-007
   3.4799999999999998E-002     3.5400668155550317E-007
   3.5099999999999999E-002     1.3120939955849008E-006
   3.5400000000000001E-002     8.1902714201849296E-006
   3.5699999999999996E-002     2.5575310961091198E-005
   3.6000000000000004E-002     4.9701866980339656E-005
   3.6299999999999999E-002     6.9842872731716403E-005
   3.6600000000000008E-002     8.3919246397811884E-005
   3.6900000000000002E-002     1.0813042580508359E-004
   3.7199999999999997E-002     1.6059322917296674E-004
   3.7500000000000006E-002     2.5116090556232332E-004
   3.7800000000000000E-002     3.8685789771944826E-004
   3.8100000000000009E-002     5.6365112250437305E-004
   3.8400000000000004E-002     7.8236445336324865E-004
   3.8699999999999998E-002     1.0871785912907536E-003
   3.9000000000000007E-002     1.5185758991157622E-003
   3.9300000000000002E-002     2.0569164759529426E-003
   3.9600000000000003E-002     2.7057610191872569E-003
   3.9900000000000005E-002     3.5025446793159887E-003
   4.0200000000000000E-002     4.4082982655879871E-003
   4.0500000000000001E-002     5.3555788238626723E-003
   4.0800000000000003E-002     6.2764905423936812E-003
   4.1100000000000005E-002     7.0010314625680858E-003
   4.1399999999999999E-002     7.2906256086432142E-003
   4.1700000000000008E-002     6.8524726307764572E-003
   4.2000000000000003E-002     5.2402483830668589E-003
   4.2299999999999997E-002     1.8862252272638103E-003
   4.2600000000000006E-002    -3.8457743771458941E-003
   4.2900000000000001E-002    -1.2700287014708565E-002
   4.3200000000000002E-002    -2.5485160732867856E-002
   4.3500000000000004E-002    -4.3003988204872612E-002
   4.3799999999999999E-002    -6.5969084376629850E-002
   4.4100000000000000E-002    -9.4824901833879371E-002
   4.4400000000000002E-002   -0.12965862759009594     
   4.4700000000000004E-002   -0.17006029363503439     
   4.4999999999999998E-002   -0.21490557835619839     
   4.5300000000000000E-002   -0.26225628587325200     
   4.5600000000000002E-002   -0.30924796647514174     
   4.5899999999999996E-002   -0.35201734157258358     
   4.6200000000000005E-002   -0.38582591768727603     
   4.6500000000000000E-002   -0.40520761673451844     
   4.6799999999999994E-002   -0.40424882102135662     
   4.7100000000000003E-002   -0.37706412027095304     
   4.7399999999999998E-002   -0.31829645186715361     
   4.7700000000000006E-002   -0.22374394377257723     
   4.8000000000000001E-002    -9.1046065741763549E-002
   4.8300000000000010E-002     7.9752048785250995E-002
   4.8600000000000004E-002    0.28561143378436382     
   4.8899999999999999E-002    0.52025393352118687     
   4.9200000000000008E-002    0.77408052458814858     
   4.9500000000000002E-002     1.0344759692921883     
   4.9800000000000011E-002     1.2862981490192773     
   5.0100000000000006E-002     1.5127557458851300     
   5.0400000000000000E-002     1.6966906896992455     
   5.0700000000000009E-002     1.8218821074093512     
   5.1000000000000004E-002     1.8743996030742665     
   5.1299999999999998E-002     1.8440676663249249     
   5.1600000000000007E-002     1.7255888396912056     
   5.1900000000000002E-002     1.5192517618768804     
   5.2200000000000010E-002     1.2313710807961726     
   5.2500000000000005E-002    0.87415908528016928     
   5.2800000000000000E-002    0.46501970768953527     
   5.3099999999999994E-002     2.5206362984782960E-002
   5.3400000000000003E-002   -0.42140598347993219     
   5.3699999999999998E-002   -0.85039145396504434     
   5.4000000000000006E-002    -1.2386713871024249     
   5.4300000000000001E-002    -1.5661156043892603     
   5.4599999999999996E-002    -1.8174695137569401     
   5.4900000000000004E-002    -1.9832096057337409     
   5.5199999999999999E-002    -2.0601342704991055     
   5.5499999999999994E-002    -2.0516322972478775     
   5.5800000000000002E-002    -1.9672240874785842     
   5.6099999999999997E-002    -1.8214291991516021     
   5.6400000000000006E-002    -1.6322711752924519     
   5.6700000000000000E-002    -1.4197636878998168     
   5.6999999999999995E-002    -1.2040376892993621     
   5.7300000000000004E-002    -1.0036987412670477     
   5.7599999999999998E-002   -0.83418932934603163     
   5.7900000000000007E-002   -0.70654040913980865     
   5.8200000000000002E-002   -0.62656349011423274     
   5.8499999999999996E-002   -0.59468026895445902     
   5.8800000000000005E-002   -0.60586994739448130     
   5.9100000000000000E-002   -0.65028720882532198     
   5.9400000000000008E-002   -0.71452245154643634     
   5.9700000000000003E-002   -0.78255571847843797     
   6.0000000000000012E-002   -0.83732826694717488     
   6.0300000000000006E-002   -0.86234547282988672     
   6.0600000000000001E-002   -0.84311663869214826     
   6.0900000000000010E-002   -0.76845815372498549     
   6.1200000000000004E-002   -0.63148895983029973     
   6.1500000000000013E-002   -0.43017030196136652     
   6.1800000000000008E-002   -0.16768796718417933     
   6.2100000000000002E-002    0.14769814133468806     
   6.2399999999999997E-002    0.50336620737965543     
   6.2700000000000006E-002    0.88323057715812947     
   6.3000000000000000E-002     1.2687418633117709     
   6.3300000000000009E-002     1.6402239215008940     
   6.3600000000000004E-002     1.9785168148342933     
   6.3899999999999998E-002     2.2660979769231133     
   6.4199999999999993E-002     2.4879287830902115     
   6.4500000000000002E-002     2.6327132817773418     
   6.4800000000000010E-002     2.6932477705278330     
   6.5100000000000005E-002     2.6668071655904697     
   6.5400000000000000E-002     2.5548471356094495     
   6.5700000000000008E-002     2.3626050700204075     
   6.5999999999999989E-002     2.0986913783612238     
   6.6299999999999998E-002     1.7743155661785579     
   6.6600000000000006E-002     1.4025833717520939     
   6.6900000000000001E-002    0.99750406700922767     
   6.7199999999999996E-002    0.57331483291095608     
   6.7500000000000004E-002    0.14413119466246638     
   6.7800000000000013E-002   -0.27640421965773854     
   6.8099999999999994E-002   -0.67588625963789806     
   6.8400000000000002E-002    -1.0432922766999688     
   6.8700000000000011E-002    -1.3685682127279293     
   6.8999999999999992E-002    -1.6433723895582091     
   6.9300000000000000E-002    -1.8608389370468785     
   6.9600000000000009E-002    -2.0156011103192455     
   6.9900000000000004E-002    -2.1039607355317003     
   7.0199999999999999E-002    -2.1240590760028653     
   7.0500000000000007E-002    -2.0760107357280901     
   7.0800000000000016E-002    -1.9617592945727083     
   7.1099999999999997E-002    -1.7853008747999510     
   7.1400000000000005E-002    -1.5527406575223353     
   7.1700000000000000E-002    -1.2723489496185323     
   7.1999999999999995E-002   -0.95441649771417048     
   7.2300000000000003E-002   -0.61083619224991992     
   7.2600000000000012E-002   -0.25479135609595360     
   7.2900000000000006E-002     9.9459074269094394E-002
   7.3200000000000001E-002    0.43710789837062869     
   7.3499999999999996E-002    0.74355466464780440     
   7.3800000000000004E-002     1.0054178725329521     
   7.4099999999999999E-002     1.2106815870955074     
   7.4400000000000008E-002     1.3495732658364830     
   7.4700000000000003E-002     1.4154398491643150     
   7.5000000000000011E-002     1.4050448083171645     
   7.5299999999999992E-002     1.3191508987271163     
   7.5600000000000001E-002     1.1624522886705577     
   7.5900000000000009E-002    0.94354960978554914     
   7.6200000000000004E-002    0.67485695746125529     
   7.6499999999999999E-002    0.37193234190651658     
   7.6800000000000007E-002     5.2528027966064261E-002
   7.7099999999999988E-002   -0.26407884527027115     
   7.7399999999999997E-002   -0.55810436982685374     
   7.7700000000000005E-002   -0.81063361101369935     
   7.8000000000000014E-002    -1.0046172760320875     
   7.8299999999999995E-002    -1.1259455039071398     
   7.8600000000000003E-002    -1.1642464713283225     
   7.8900000000000012E-002    -1.1136135640148908     
   7.9199999999999993E-002   -0.97342151026760249     
   7.9500000000000001E-002   -0.74817692950044190     
   7.9800000000000010E-002   -0.44772811898072895     
   8.0100000000000018E-002    -8.6908073370643990E-002
   8.0399999999999999E-002    0.31532441529800437     
   8.0700000000000008E-002    0.73641676868818351     
   8.1000000000000003E-002     1.1516857483977656     
   8.1299999999999997E-002     1.5355986390010230     
   8.1600000000000006E-002     1.8633664328363686     
   8.1900000000000014E-002     2.1124374407886890     
   8.2199999999999995E-002     2.2642749674646225     
   8.2500000000000004E-002     2.3056066675713751     
   8.2799999999999999E-002     2.2295724777562498     
   8.3100000000000007E-002     2.0366993695323359     
   8.3400000000000002E-002     1.7351600019539148     
   8.3700000000000011E-002     1.3403749019344389     
   8.4000000000000005E-002    0.87425039185297138     
   8.4300000000000000E-002    0.36400718274928412     
   8.4599999999999995E-002   -0.15957339054974895     
   8.4900000000000003E-002   -0.66452198250397032     
   8.5199999999999998E-002    -1.1201379591654204     
   8.5500000000000007E-002    -1.4985311504904413     
   8.5800000000000001E-002    -1.7776282257204805     
   8.6100000000000010E-002    -1.9421946040064881     
   8.6399999999999991E-002    -1.9851069613079488     
   8.6699999999999999E-002    -1.9080961859030481     
   8.7000000000000008E-002    -1.7211711084281660     
   8.7300000000000003E-002    -1.4420310239098484     
   8.7599999999999997E-002    -1.0944586754477612     
   8.7900000000000006E-002   -0.70657017389294907     
   8.8200000000000014E-002   -0.30865826474203839     
   8.8499999999999995E-002     6.8845916474579383E-002
   8.8800000000000004E-002    0.39751962247591699     
   8.9100000000000013E-002    0.65284836475551644     
   8.9399999999999993E-002    0.81570850161046238     
   8.9700000000000002E-002    0.87312240473313096     
   9.0000000000000011E-002    0.81914843511962587     
   9.0299999999999991E-002    0.65502562672222808     
   9.0600000000000000E-002    0.38906286948219204     
   9.0900000000000009E-002     3.5994105402055609E-002
   9.1200000000000017E-002   -0.38395137792524103     
   9.1499999999999998E-002   -0.84572069116246240     
   9.1800000000000007E-002    -1.3209676173942482     
   9.2100000000000001E-002    -1.7794443866566674     
   9.2399999999999996E-002    -2.1905625764889720     
   9.2700000000000005E-002    -2.5248926604921849     
   9.3000000000000013E-002    -2.7562719140173328     
   9.3300000000000008E-002    -2.8631290896461934     
   9.3600000000000003E-002    -2.8301228635670554     
   9.3899999999999997E-002    -2.6496273309891762     
   9.4200000000000006E-002    -2.3226060368787813     
   9.4500000000000001E-002    -1.8589126876670434     
   9.4800000000000009E-002    -1.2774490320545908     
   9.5100000000000004E-002   -0.60531840511969293     
   9.5399999999999999E-002    0.12353015818805702     
   9.5699999999999993E-002    0.86993462897439855     
   9.6000000000000002E-002     1.5920586787031681     
   9.6300000000000011E-002     2.2476766280098932     
   9.6600000000000005E-002     2.7973494776860335     
   9.6900000000000000E-002     3.2064141318520996     
   9.7200000000000009E-002     3.4475544996498257     
   9.7499999999999989E-002     3.5023395886784243     
   9.7799999999999998E-002     3.3628000129317428     
   9.8100000000000007E-002     3.0317627628314909     
   9.8400000000000015E-002     2.5226167615981439     
   9.8699999999999996E-002     1.8589666234578672     
   9.9000000000000005E-002     1.0731140292705064     
   9.9300000000000013E-002    0.20465842176162674     
   9.9599999999999994E-002   -0.70156769025676624     
   9.9900000000000003E-002    -1.5976684500643472     
  0.10020000000000001         -2.4348088689627652     
  0.10049999999999999         -3.1654222712583220     
  0.10080000000000000         -3.7455840357701646     
  0.10110000000000001         -4.1373802656650511     
  0.10140000000000000         -4.3107781889561778     
  0.10170000000000000         -4.2451674854413142     
  0.10200000000000001         -3.9314719850795257     
  0.10230000000000002         -3.3730714271723485     
  0.10260000000000000         -2.5866579279378215     
  0.10290000000000001         -1.6018274210145123     
  0.10320000000000000        -0.46092539739645666     
  0.10350000000000001         0.78287869409318489     
  0.10380000000000000          2.0685442655323953     
  0.10410000000000001          3.3298676244774867     
  0.10440000000000001          4.4992916234269522     
  0.10470000000000000          5.5126546068323705     
  0.10500000000000000          6.3139543300847691     
  0.10530000000000000          6.8594945118101123     
  0.10560000000000000          7.1208919932643084     
  0.10590000000000001          7.0875589633497782     
  0.10620000000000000          6.7683441588434903     
  0.10650000000000001          6.1910713876353896     
  0.10679999999999999          5.4005919443773109     
  0.10710000000000000          4.4545343825874681     
  0.10740000000000001          3.4191457420052416     
  0.10770000000000000          2.3643592020710358     
  0.10800000000000000          1.3572090688368768     
  0.10830000000000001         0.45652722332723461     
  0.10859999999999999        -0.29210109017023100     
  0.10890000000000000        -0.85933893079710089     
  0.10920000000000001         -1.2337616455408238     
  0.10950000000000001         -1.4225797247801317     
  0.10979999999999999         -1.4497435545428736     
  0.11009999999999999         -1.3525084874506135     
  0.11040000000000001         -1.1768979199179945     
  0.11070000000000001        -0.97244457563759923     
  0.11100000000000000        -0.78775701283587907     
  0.11130000000000000        -0.66488563577626536     
  0.11160000000000002        -0.63602689108396859     
  0.11190000000000001        -0.72068548544292810     
  0.11220000000000001        -0.92486868886052243     
  0.11250000000000000         -1.2418969219372418     
  0.11280000000000000         -1.6545384401933951     
  0.11309999999999999         -2.1371670392353650     
  0.11340000000000001         -2.6592519655168019     
  0.11369999999999998         -3.1897605796981310     
  0.11400000000000000         -3.7001518532109969     
  0.11430000000000000         -4.1662968857174434     
  0.11460000000000002         -4.5701473132502173     
  0.11489999999999999         -4.9000708706959273     
  0.11520000000000001         -5.1502401885740312     
  0.11550000000000001         -5.3194926809532035     
  0.11580000000000000         -5.4092421838250004     
  0.11609999999999999         -5.4213937810414450     
  0.11640000000000002         -5.3570525563841898     
  0.11670000000000001         -5.2156135713307776     
  0.11700000000000001         -4.9944453161371598     
  0.11730000000000000         -4.6891715561681906     
  0.11760000000000000         -4.2954668058108041     
  0.11789999999999999         -3.8107395073532899     
  0.11820000000000001         -3.2355530306031426     
  0.11850000000000001         -2.5758991079260625     
  0.11880000000000000         -1.8439669525991178     
  0.11910000000000000         -1.0590854867534105     
  0.11940000000000002        -0.24722294719736482     
  0.11970000000000001         0.56113271495120642     
  0.12000000000000001          1.3328208794641370     
  0.12030000000000000          2.0337071213985354     
  0.12060000000000000          2.6322127758888776     
  0.12089999999999999          3.1026232220825332     
  0.12119999999999999          3.4275388024231219     
  0.12150000000000001          3.5990553062714881     
  0.12180000000000001          3.6187469439475990     
  0.12210000000000000          3.4985367873574518     
  0.12239999999999999          3.2600211950315554     
  0.12270000000000002          2.9326789613928241     
  0.12300000000000001          2.5501969070247270     
  0.12330000000000001          2.1485422265085106     
  0.12360000000000000          1.7631470253785011     
  0.12390000000000000          1.4272562877320141     
  0.12419999999999999          1.1686566455401817     
  0.12450000000000001          1.0072048020234377     
  0.12480000000000001         0.95467478206246170     
  0.12509999999999999          1.0141695490039382     
  0.12540000000000001          1.1799512585472485     
  0.12570000000000003          1.4372368937400211     
  0.12600000000000000          1.7630996656743534     
  0.12630000000000002          2.1292830391468343     
  0.12659999999999999          2.5034944443417260     
  0.12690000000000001          2.8506310882770194     
  0.12719999999999998          3.1356943942417530     
  0.12750000000000000          3.3265525482679834     
  0.12780000000000002          3.3970816119265947     
  0.12809999999999999          3.3292269768935370     
  0.12840000000000001          3.1143093845442564     
  0.12869999999999998          2.7550585681458699     
  0.12900000000000000          2.2671970992082748     
  0.12930000000000003          1.6789408234655880     
  0.12959999999999999          1.0285413588620322     
  0.12990000000000002         0.36121922650219052     
  0.13019999999999998        -0.27359484100186471     
  0.13050000000000000        -0.82719090827916375     
  0.13080000000000003         -1.2576597559734743     
  0.13109999999999999         -1.5359444884215030     
  0.13140000000000002         -1.6501693381703717     
  0.13169999999999998         -1.6074005148608563     
  0.13200000000000001         -1.4357901589400655     
  0.13229999999999997         -1.1831839824159900     
  0.13260000000000000        -0.91298222947100172     
  0.13290000000000002        -0.69581205581934213     
  0.13319999999999999        -0.60100144799076105     
  0.13350000000000001        -0.68566308905572981     
  0.13380000000000003        -0.98610350904338873     
  0.13410000000000000         -1.5076015951422397     
  0.13440000000000002         -2.2185671351335756     
  0.13469999999999999         -3.0494884916426415     
  0.13500000000000001         -3.8959839000835217     
  0.13529999999999998         -4.6271164571607954     
  0.13560000000000000         -5.0984794554955641     
  0.13590000000000002         -5.1687460868518258     
  0.13619999999999999         -4.7182300308662306     
  0.13650000000000001         -3.6677668002564019     
  0.13680000000000003         -1.9932291298280944     
  0.13710000000000000         0.26305570312136695     
  0.13740000000000002          2.9878300379045868     
  0.13769999999999999          6.0003241027128240     
  0.13800000000000001          9.0637544910548229     
  0.13829999999999998          11.904760836151553     
  0.13860000000000000          14.237551025102448     
  0.13890000000000002          15.790876102324148     
  0.13919999999999999          16.336422367771483     
  0.13950000000000001          15.715665757820808     
  0.13979999999999998          13.859226008821764     
  0.14010000000000000          10.799585118308215     
  0.14040000000000002          6.6725764693301954     
  0.14069999999999999          1.7107535198943538     
  0.14100000000000001         -3.7720907682632401     
  0.14130000000000004         -9.4065611165921723     
  0.14160000000000000         -14.798315711397890     
  0.14189999999999997         -19.560308231231261     
  0.14219999999999999         -23.344444505144168     
  0.14250000000000002         -25.868897720953328     
  0.14279999999999998         -26.940823317188332     
  0.14310000000000000         -26.469924397923336     
  0.14339999999999997         -24.473108312263548     
  0.14369999999999999         -21.068877214308600     
  0.14400000000000002         -16.465458445751153     
  0.14429999999999998         -10.943143292884372     
  0.14460000000000001         -4.8310771923753961     
  0.14490000000000003          1.5170767182471820     
  0.14520000000000000          7.7484480435227283     
  0.14550000000000002          13.530844671192199     
  0.14579999999999999          18.572067384764409     
  0.14610000000000001          22.632582073271919     
  0.14640000000000003          25.535901126850035     
  0.14670000000000000          27.172524678928482     
  0.14699999999999996          27.500630860242644     
  0.14729999999999999          26.542317343932581     
  0.14760000000000001          24.377866550185672     
  0.14789999999999998          21.139291922931079     
  0.14820000000000000          17.001134839629515     