  -1.4999999999999999E-002     0.0000000000000000     
  -1.4700000000000000E-002     0.0000000000000000     
  -1.4400000000000000E-002     1.5721317690455498E-036
  -1.4100000000000000E-002    -2.3748867716057692E-031
  -1.3800000000000000E-002    -3.0443548214380726E-028
  -1.3500000000000000E-002    -1.2394654533122437E-028
  -1.3200000000000000E-002     7.1619896594058598E-025
  -1.2899999999999998E-002    -6.6139013340909058E-024
  -1.2600000000000000E-002    -4.3098347187363327E-023
  -1.2299999999999998E-002     5.0739137378701590E-022
  -1.2000000000000000E-002    -2.4955651788708161E-022
  -1.1699999999999999E-002    -6.5322380984423689E-021
  -1.1399999999999999E-002     1.1456305935373746E-021
  -1.1099999999999999E-002     6.9416750664923751E-020
  -1.0799999999999999E-002    -9.6404142740656721E-021
  -1.0499999999999999E-002    -3.4209957650624156E-019
  -1.0199999999999999E-002    -6.0350497561581549E-019
  -9.8999999999999991E-003     1.7482298803013605E-018
  -9.5999999999999992E-003     6.2356516336072789E-018
  -9.2999999999999992E-003    -8.5391788634412912E-018
  -8.9999999999999993E-003    -2.5994621832446388E-017
  -8.6999999999999994E-003     8.4563033961886544E-018
  -8.3999999999999995E-003     6.0925541276215968E-017
  -8.0999999999999996E-003     1.7648813233793255E-016
  -7.7999999999999988E-003    -1.3949693918380049E-016
  -7.4999999999999997E-003    -1.2242148947379571E-015
  -7.1999999999999998E-003     1.2330463846432436E-015
  -6.8999999999999981E-003     6.8626398765949180E-016
  -6.5999999999999982E-003     1.2201937733255468E-015
  -6.3000000000000000E-003     5.5041439701420616E-015
  -6.0000000000000001E-003    -2.6996842435682765E-014
  -5.6999999999999985E-003     6.1118256468734442E-015
  -5.3999999999999986E-003     5.3250738625130243E-014
  -5.1000000000000004E-003    -7.4244164078222314E-014
  -4.7999999999999987E-003     1.5537833992216471E-013
  -4.5000000000000005E-003    -1.1571016628527119E-013
  -4.1999999999999989E-003    -5.9553213183356199E-013
  -3.8999999999999990E-003     1.2913990745863663E-012
  -3.5999999999999990E-003    -9.7034183870008552E-013
  -3.2999999999999991E-003    -6.5153432032019441E-014
  -2.9999999999999992E-003     3.8215875427334735E-012
  -2.6999999999999993E-003    -9.8661374581330388E-012
  -2.3999999999999994E-003     7.8153643890375091E-012
  -2.0999999999999977E-003     5.2860431124611130E-012
  -1.7999999999999995E-003    -2.4077445617151210E-011
  -1.4999999999999979E-003     5.2081877370595068E-011
  -1.1999999999999997E-003    -5.8784448424800941E-011
  -8.9999999999999976E-004    -4.9970180886882435E-012
  -5.9999999999999810E-004     1.1891119471328897E-010
  -2.9999999999999992E-004    -2.7482133241178406E-010
   0.0000000000000000          4.1246752024381773E-010
   3.0000000000000165E-004    -1.5565537259455344E-010
   5.9999999999999984E-004    -7.8790469137679141E-010
   9.0000000000000149E-004     2.0230356443909610E-009
   1.2000000000000031E-003    -2.2485643368665077E-009
   1.5000000000000013E-003    -7.4152875447468526E-010
   1.8000000000000030E-003     6.9270569283708587E-009
   2.1000000000000012E-003    -9.6811791744746588E-009
   2.3999999999999994E-003     7.1655018597184858E-010
   2.7000000000000010E-003     1.7314979463252824E-008
   2.9999999999999992E-003    -2.5982151612816577E-008
   3.3000000000000008E-003     5.2282401972432909E-009
   3.6000000000000025E-003     3.5378483309421605E-008
   3.9000000000000007E-003    -4.9632320466341983E-008
   4.2000000000000023E-003     8.4883873993862162E-009
   4.5000000000000005E-003     5.2610035923938153E-008
   4.7999999999999987E-003    -6.8464376569598222E-008
   5.1000000000000004E-003     1.4765580701877520E-008
   5.4000000000000020E-003     5.9264489674989803E-008
   5.7000000000000037E-003    -7.5511505829926772E-008
   5.9999999999999984E-003     2.0386977308165758E-008
   6.3000000000000000E-003     4.6094060385360797E-008
   6.6000000000000017E-003    -7.0073257962335255E-008
   6.9000000000000034E-003     3.5105314419723880E-008
   7.2000000000000015E-003     3.3533501946027730E-008
   7.5000000000000032E-003    -6.8739907500870486E-008
   7.8000000000000014E-003     3.5916042357587779E-008
   8.0999999999999996E-003     2.6798857088106393E-008
   8.4000000000000012E-003    -6.4295198909719643E-008
   8.7000000000000029E-003     4.2156973641845231E-008
   9.0000000000000011E-003     1.8771370142925953E-008
   9.2999999999999992E-003    -7.2620511469910187E-008
   9.6000000000000009E-003     1.0894219331761119E-007
   9.8999999999999991E-003     2.0512234265466022E-008
   1.0200000000000001E-002    -2.9384324990936623E-007
   1.0500000000000002E-002    -2.2851093067230028E-008
   1.0800000000000004E-002     6.2997977808355220E-007
   1.1099999999999999E-002     1.8333428404499679E-006
   1.1400000000000000E-002     3.7667182796018243E-006
   1.1700000000000002E-002     5.1592382237793626E-006
   1.2000000000000004E-002     7.0885922219948299E-006
   1.2300000000000002E-002     1.2236694994662429E-005
   1.2600000000000000E-002     2.0084797740351282E-005
   1.2900000000000002E-002     3.0629127165260643E-005
   1.3200000000000000E-002     4.9025097157802866E-005
   1.3500000000000002E-002     7.8511301175397739E-005
   1.3800000000000003E-002     1.0995299386416216E-004
   1.4100000000000001E-002     1.3434800413366461E-004
   1.4400000000000000E-002     1.6355834334570588E-004
   1.4700000000000001E-002     2.1210231757117209E-004
   1.4999999999999999E-002     2.7115498886906737E-004
   1.5300000000000001E-002     3.1962439682096076E-004
   1.5600000000000003E-002     3.4303622735802619E-004
   1.5899999999999997E-002     3.2924341054908074E-004
   1.6199999999999999E-002     2.3608562114822880E-004
   1.6500000000000001E-002    -3.2530086840826429E-005
   1.6800000000000002E-002    -6.0805520165783944E-004
   1.7100000000000004E-002    -1.6373888382046446E-003
   1.7400000000000006E-002    -3.3292851022843550E-003
   1.7700000000000000E-002    -6.0286270222361035E-003
   1.8000000000000002E-002    -1.0211784313969768E-002
   1.8300000000000004E-002    -1.6473661694901248E-002
   1.8600000000000005E-002    -2.5594216867086989E-002
   1.8900000000000000E-002    -3.8559049742297902E-002
   1.9200000000000002E-002    -5.6525767252631143E-002
   1.9500000000000003E-002    -8.0861746144179292E-002
   1.9799999999999998E-002   -0.11320505957657079     
   2.0100000000000000E-002   -0.15538060590554315     
   2.0400000000000001E-002   -0.20923429551591433     
   2.0700000000000003E-002   -0.27659824640453667     
   2.0999999999999998E-002   -0.35921405827277564     
   2.1299999999999999E-002   -0.45843832877510771     
   2.1600000000000001E-002   -0.57502865113367285     
   2.1900000000000003E-002   -0.70897702717898348     
   2.2200000000000004E-002   -0.85919461097517313     
   2.2500000000000006E-002    -1.0231882269101789     
   2.2800000000000001E-002    -1.1968418390300393     
   2.3100000000000002E-002    -1.3744040496088950     
   2.3400000000000004E-002    -1.5483255796149393     
   2.3699999999999999E-002    -1.7094122856240332     
   2.4000000000000000E-002    -1.8470600569732980     
   2.4300000000000002E-002    -1.9497011950094958     
   2.4599999999999997E-002    -2.0054708541555755     
   2.4900000000000005E-002    -2.0029418001901433     
   2.5200000000000000E-002    -1.9320624370023509     
   2.5499999999999995E-002    -1.7852061269109001     
   2.5800000000000003E-002    -1.5580692172710613     
   2.6099999999999998E-002    -1.2505261490174888     
   2.6400000000000007E-002   -0.86719637051144716     
   2.6700000000000002E-002   -0.41751309878257814     
   2.6999999999999996E-002     8.3865329100520469E-002
   2.7300000000000005E-002    0.61828725078224167     
   2.7600000000000000E-002     1.1635766376767283     
   2.7900000000000008E-002     1.6957474416598051     
   2.8200000000000003E-002     2.1908704932375827     
   2.8499999999999998E-002     2.6267304842367878     
   2.8800000000000006E-002     2.9848589396673759     
   2.9100000000000001E-002     3.2528103315706147     
   2.9400000000000003E-002     3.4243986027604194     
   2.9700000000000004E-002     3.5020197312515364     
   3.0000000000000006E-002     3.4949170171039299     
   3.0300000000000001E-002     3.4204849897335947     
   3.0600000000000002E-002     3.3009709374446174     
   3.0900000000000004E-002     3.1627718575926451     
   3.1199999999999999E-002     3.0327169793170299     
   3.1500000000000007E-002     2.9357127053059742     
   3.1800000000000002E-002     2.8917845747694884     
   3.2099999999999997E-002     2.9131999475547588     
   3.2400000000000005E-002     3.0029863764464579     
   3.2700000000000000E-002     3.1533315750642430     
   3.3000000000000002E-002     3.3465051513820328     
   3.3300000000000003E-002     3.5549076857722355     
   3.3599999999999998E-002     3.7447180537103719     
   3.3900000000000000E-002     3.8773489153468716     
   3.4200000000000001E-002     3.9148190075410270     
   3.4500000000000003E-002     3.8219733254582593     
   3.4799999999999998E-002     3.5720705580893082     
   3.5099999999999999E-002     3.1475011717807035     
   3.5400000000000001E-002     2.5448600051379771     
   3.5699999999999996E-002     1.7726589317559913     
   3.6000000000000004E-002    0.85531364793485665     
   3.6299999999999999E-002   -0.17322518798117770     
   3.6600000000000008E-002    -1.2673026772061178     
   3.6900000000000002E-002    -2.3774831274514909     
   3.7199999999999997E-002    -3.4492609683136433     
   3.7500000000000006E-002    -4.4329128298291067     
   3.7800000000000000E-002    -5.2816702062637333     
   3.8100000000000009E-002    -5.9594207369025867     
   3.8400000000000004E-002    -6.4392133023786187     
   3.8699999999999998E-002    -6.7085879908125605     
   3.9000000000000007E-002    -6.7661478405987623     
   3.9300000000000002E-002    -6.6244820768368129     
   3.9600000000000003E-002    -6.3060656260489907     
   3.9900000000000005E-002    -5.8441868361646527     
   4.0200000000000000E-002    -5.2783279140720367     
   4.0500000000000001E-002    -4.6526812183066113     
   4.0800000000000003E-002    -4.0133461872773353     
   4.1100000000000005E-002    -3.4051195347282572     
   4.1399999999999999E-002    -2.8686501866470024     
   4.1700000000000008E-002    -2.4372537199865718     
   4.2000000000000003E-002    -2.1348006118841170     
   4.2299999999999997E-002    -1.9711149433063753     
   4.2600000000000006E-002    -1.9419440150778371     
   4.2900000000000001E-002    -2.0252150456664069     
   4.3200000000000002E-002    -2.1821968644326972     
   4.3500000000000004E-002    -2.3559191500428902     
   4.3799999999999999E-002    -2.4767962858538901     
   4.4100000000000000E-002    -2.4638272464570656     
   4.4400000000000002E-002    -2.2341763975301436     
   4.4700000000000004E-002    -1.7080459523475788     
   4.4999999999999998E-002   -0.82353529327275155     
   4.5300000000000000E-002    0.45990193285786063     
   4.5600000000000002E-002     2.1446132631790817     
   4.5899999999999996E-002     4.1938074051820848     
   4.6200000000000005E-002     6.5207019603248710     
   4.6500000000000000E-002     8.9941396986073059     
   4.6799999999999994E-002     11.437531644040927     
   4.7100000000000003E-002     13.643912875044528     
   4.7399999999999998E-002     15.386871436359549     
   4.7700000000000006E-002     16.443540453982749     
   4.8000000000000001E-002     16.613068116613846     
   4.8300000000000010E-002     15.740993600909377     
   4.8600000000000004E-002     13.738052015687401     
   4.8899999999999999E-002     10.595894807888897     
   4.9200000000000008E-002     6.3963134140666114     
   4.9500000000000002E-002     1.3121349380761274     
   4.9800000000000011E-002    -4.3997358485713107     
   5.0100000000000006E-002    -10.415549508183744     
   5.0400000000000000E-002    -16.366484393316796     
   5.0700000000000009E-002    -21.867389791424898     
   5.1000000000000004E-002    -26.546835009162407     
   5.1299999999999998E-002    -30.077985360653770     
   5.1600000000000007E-002    -32.203560298415823     
   5.1900000000000002E-002    -32.757763364969406     
   5.2200000000000010E-002    -31.676426439906265     
   5.2500000000000005E-002    -29.003392298861627     
   5.2800000000000000E-002    -24.881392254402272     
   5.3099999999999994E-002    -19.544216546611040     
   5.3400000000000003E-002    -13.289402091176044     
   5.3699999999999998E-002    -6.4618771232081080     
   5.4000000000000006E-002    0.57691458219676406     
   5.4300000000000001E-002     7.4717764805677689     
   5.4599999999999996E-002     13.896565738464460     
   5.4900000000000004E-002     19.573172212482859     
   5.5199999999999999E-002     24.282541942400940     
   5.5499999999999994E-002     27.874005705791546     
   5.5800000000000002E-002     30.267030575942727     
   5.6099999999999997E-002     31.445723209153741     
   5.6400000000000006E-002     31.457941718813515     
   5.6700000000000000E-002     30.399409938870747     
   5.6999999999999995E-002     28.407590160333825     
   5.7300000000000004E-002     25.649281380571210     
   5.7599999999999998E-002     22.306830714907960     
   5.7900000000000007E-002     18.571832193120713     
   5.8200000000000002E-002     14.628765968935284     
   5.8499999999999996E-002     10.653997377229786     
   5.8800000000000005E-002     6.8019756701094565     
   5.9100000000000000E-002     3.2043107586990960     
   5.9400000000000008E-002    -3.8285327201748487E-002
   5.9700000000000003E-002    -2.8537340963398776     
   6.0000000000000012E-002    -5.2055119413706734     
   6.0300000000000006E-002    -7.0835885684903133     
   6.0600000000000001E-002    -8.5103791208116490     
   6.0900000000000010E-002    -9.5268291463440846     
   6.1200000000000004E-002    -10.195931273082309     
   6.1500000000000013E-002    -10.586329229371223     
   6.1800000000000008E-002    -10.774918484997514     
   6.2100000000000002E-002    -10.831570538525355     
   6.2399999999999997E-002    -10.818469630042017     
   6.2700000000000006E-002    -10.782163295941643     
   6.3000000000000000E-002    -10.752437073698161     
   6.3300000000000009E-002    -10.740564444922427     
   6.3600000000000004E-002    -10.739476236848191     
   6.3899999999999998E-002    -10.726371098122399     
   6.4199999999999993E-002    -10.667553429171164     
   6.4500000000000002E-002    -10.521923088312633     
   6.4800000000000010E-002    -10.247558939564897     
   6.5100000000000005E-002    -9.8058580226025924     
   6.5400000000000000E-002    -9.1671436290036468     
   6.5700000000000008E-002    -8.3126410749728166     
   6.5999999999999989E-002    -7.2417184697808921     
   6.6299999999999998E-002    -5.9661370487356180     
   6.6600000000000006E-002    -4.5173405352418996     
   6.6900000000000001E-002    -2.9374163029231255     
   6.7199999999999996E-002    -1.2863446388788358     
   6.7500000000000004E-002    0.37448089546631280     
   6.7800000000000013E-002     1.9734588547114669     
   6.8099999999999994E-002     3.4451183152002898     
   6.8400000000000002E-002     4.7251611410782033     
   6.8700000000000011E-002     5.7633469948005498     
   6.8999999999999992E-002     6.5212211420540243     
   6.9300000000000000E-002     6.9792089305349734     
   6.9600000000000009E-002     7.1346092867239150     
   6.9900000000000004E-002     7.0049472928290584     
   7.0199999999999999E-002     6.6243891691196382     
   7.0500000000000007E-002     6.0421214325137953     
   7.0800000000000016E-002     5.3183484473761951     
   7.1099999999999997E-002     4.5174389730307496     
   7.1400000000000005E-002     3.7072416642746759     
   7.1700000000000000E-002     2.9489089258780012     
   7.1999999999999995E-002     2.2955558155609523     
   7.2300000000000003E-002     1.7863517034317127     
   7.2600000000000012E-002     1.4455450915465136     
   7.2900000000000006E-002     1.2809396635773567     
   7.3200000000000001E-002     1.2827461628401693     
   7.3499999999999996E-002     1.4281893886766568     
   7.3800000000000004E-002     1.6797097014927402     
   7.4099999999999999E-002     1.9932805295595770     
   7.4400000000000008E-002     2.3200550697236935     
   7.4700000000000003E-002     2.6103299023988171     
   7.5000000000000011E-002     2.8196048911061808     
   7.5299999999999992E-002     2.9089658617436100     
   7.5600000000000001E-002     2.8527133282399575     
   7.5900000000000009E-002     2.6350382089060389     
   7.6200000000000004E-002     2.2554507828520087     
   7.6499999999999999E-002     1.7248584042832675     
   7.6800000000000007E-002     1.0688812660664233     
   7.7099999999999988E-002    0.32012775224233359     
   7.7399999999999997E-002   -0.47758450304725386     
   7.7700000000000005E-002    -1.2810074125610740     
   7.8000000000000014E-002    -2.0402906941571359     
   7.8299999999999995E-002    -2.7148769554636552     
   7.8600000000000003E-002    -3.2641904922984182     
   7.8900000000000012E-002    -3.6611753051566467     
   7.9199999999999993E-002    -3.8867798214661349     
   7.9500000000000001E-002    -3.9343947223465392     
   7.9800000000000010E-002    -3.8099330958503970     
   8.0100000000000018E-002    -3.5295044768041635     
   8.0399999999999999E-002    -3.1197662965918056     
   8.0700000000000008E-002    -2.6136469073877606     
   8.1000000000000003E-002    -2.0492490568999386     
   8.1299999999999997E-002    -1.4662891077996036     
   8.1600000000000006E-002   -0.90258243837618224     
   8.1900000000000014E-002   -0.39237285893550489     
   8.2199999999999995E-002     3.5501560994468662E-002
   8.2500000000000004E-002    0.36116491908932247     
   8.2799999999999999E-002    0.57076425544950737     
   8.3100000000000007E-002    0.66219073757576297     
   8.3400000000000002E-002    0.63844517162239689     
   8.3700000000000011E-002    0.51257493065225290     
   8.4000000000000005E-002    0.30236280081846356     
   8.4300000000000000E-002     3.0870590840081924E-002
   8.4599999999999995E-002   -0.27466416770658242     
   8.4900000000000003E-002   -0.58719997982516281     
   8.5199999999999998E-002   -0.87760578926019051     
   8.5500000000000007E-002    -1.1197380336179990     
   8.5800000000000001E-002    -1.2905121892907196     
   8.6100000000000010E-002    -1.3699963910636939     
   8.6399999999999991E-002    -1.3458842108287001     
   8.6699999999999999E-002    -1.2113048893294831     
   8.7000000000000008E-002   -0.96760684121756313     
   8.7300000000000003E-002   -0.62434409908129496     
   8.7599999999999997E-002   -0.19731433957231737     
   8.7900000000000006E-002    0.28762413708810186     
   8.8200000000000014E-002    0.80177687941814568     
   8.8499999999999995E-002     1.3104216605276164     
   8.8800000000000004E-002     1.7774422558845919     
   8.9100000000000013E-002     2.1690191656768345     
   8.9399999999999993E-002     2.4526758200337504     
   8.9700000000000002E-002     2.6063477988859134     
   9.0000000000000011E-002     2.6123341505662125     
   9.0299999999999991E-002     2.4689354231874745     
   9.0600000000000000E-002     2.1812881480606094     
   9.0900000000000009E-002     1.7689030965385655     
   9.1200000000000017E-002     1.2603736373963237     
   9.1499999999999998E-002    0.69240272032041084     
   9.1800000000000007E-002    0.10616738049306562     
   9.2100000000000001E-002   -0.45507407114273235     
   9.2399999999999996E-002   -0.95235458162844111     
   9.2700000000000005E-002    -1.3494322426783540     
   9.3000000000000013E-002    -1.6230728148820752     
   9.3300000000000008E-002    -1.7562525986901409     
   9.3600000000000003E-002    -1.7483236293892572     
   9.3899999999999997E-002    -1.6068424722458765     
   9.4200000000000006E-002    -1.3510099374001356     
   9.4500000000000001E-002    -1.0087574136423605     
   9.4800000000000009E-002   -0.61138479618132280     
   9.5100000000000004E-002   -0.19461458187440073     
   9.5399999999999999E-002    0.20903211458223225     
   9.5699999999999993E-002    0.56874475648321976     
   9.6000000000000002E-002    0.86124202586889353     
   9.6300000000000011E-002     1.0692225169388259     
   9.6600000000000005E-002     1.1848694233439199     
   9.6900000000000000E-002     1.2061879437286942     
   9.7200000000000009E-002     1.1412427360049548     
   9.7499999999999989E-002    0.99966096511703384     
   9.7799999999999998E-002    0.80094111216694586     
   9.8100000000000007E-002    0.56107345206053516     
   9.8400000000000015E-002    0.30341764541854221     
   9.8699999999999996E-002     4.4497727196660009E-002
   9.9000000000000005E-002   -0.19603421021729517     
   9.9300000000000013E-002   -0.40433538495541477     
   9.9599999999999994E-002   -0.56917899116886606     
   9.9900000000000003E-002   -0.68383122282834297     
  0.10020000000000001        -0.74487762054192963     
  0.10049999999999999        -0.75493660849290478     
  0.10080000000000000        -0.71747454958586765     
  0.10110000000000001        -0.64331758650280335     
  0.10140000000000000        -0.54037837098872998     
  0.10170000000000000        -0.42283180960720124     
  0.10200000000000001        -0.30165560410073589     
  0.10230000000000002        -0.18890530430819386     
  0.10260000000000000         -9.5482313800705931E-002
  0.10290000000000001         -2.7255208724699442E-002
  0.10320000000000000          9.3502259966226631E-003
  0.10350000000000001          1.5250483188895492E-002
  0.10380000000000000         -1.0428142470448432E-002
  0.10410000000000001         -6.0442097806681971E-002
  0.10440000000000001        -0.12924401402888464     
  0.10470000000000000        -0.20681964024313304     
  0.10500000000000000        -0.28552041235394471     
  0.10530000000000000        -0.35319875603046746     
  0.10560000000000000        -0.40459987632248318     
  0.10590000000000001        -0.42934238376056477     
  0.10620000000000000        -0.42593261844953290     
  0.10650000000000001        -0.38929724963688095     
  0.10679999999999999        -0.32189785891248590     
  0.10710000000000000        -0.22502667652524799     
  0.10740000000000001        -0.10438176880982541     
  0.10770000000000000          3.2603145877456718E-002
  0.10800000000000000         0.17831117169250810     
  0.10830000000000001         0.32305942291105438     
  0.10859999999999999         0.45796675602569792     
  0.10890000000000000         0.57458942909389998     
  0.10920000000000001         0.66478169765095307     
  0.10950000000000001         0.72418486502027157     
  0.10979999999999999         0.74801535242233186     
  0.11009999999999999         0.73591374423699918     
  0.11040000000000001         0.68923060810422498     
  0.11070000000000001         0.61134272828607905     
  0.11100000000000000         0.50861487897706148     
  0.11130000000000000         0.38745454552206837     
  0.11160000000000002         0.25704494395519006     
  0.11190000000000001         0.12555335558836367     
  0.11220000000000001          1.0589127956590616E-003
  0.11250000000000000        -0.10842583849718856     
  0.11280000000000000        -0.19796253818838316     
  0.11309999999999999        -0.26300486987702865     
  0.11340000000000001        -0.30145330171849150     
  0.11369999999999998        -0.31400463341062923     
  0.11400000000000000        -0.30177122810151058     
  0.11430000000000000        -0.26932012247834347     
  0.11460000000000002        -0.22020266249983678     
  0.11489999999999999        -0.16164350311044284     
  0.11520000000000001         -9.8588509461588369E-002
  0.11550000000000001         -3.7025925190485198E-002
  0.11580000000000000          1.7181485182227840E-002
  0.11609999999999999          6.0164443710802651E-002
  0.11640000000000002          8.7757780371130467E-002
  0.11670000000000001          9.8354432962816318E-002
  0.11700000000000001          9.1305284432805944E-002
  0.11730000000000000          6.6622669346291463E-002
  0.11760000000000000          2.6824931865452206E-002
  0.11789999999999999         -2.5300647859328063E-002
  0.11820000000000001         -8.5550825141253561E-002
  0.11850000000000001        -0.14882410253452472     
  0.11880000000000000        -0.21115508755704021     
  0.11910000000000000        -0.26600161028122016     
  0.11940000000000002        -0.31028916267627604     
  0.11970000000000001        -0.33837481439296724     
  0.12000000000000001        -0.34909484543373637     
  0.12030000000000000        -0.34006220948234755     
  0.12060000000000000        -0.31187794007658276     
  0.12089999999999999        -0.26583901125022358     
  0.12119999999999999        -0.20511016648199654     
  0.12150000000000001        -0.13330271039324293     
  0.12180000000000001         -5.6033930472641713E-002
  0.12210000000000000          2.2859868405988193E-002
  0.12239999999999999          9.6691324990094252E-002
  0.12270000000000002         0.16284147571662899     
  0.12300000000000001         0.21597015076619730     
  0.12330000000000001         0.25522298136877042     
  0.12360000000000000         0.27790094817509958     
  0.12390000000000000         0.28465171309443438     
  0.12419999999999999         0.27571770563050180     
  0.12450000000000001         0.25357334505700901     
  0.12480000000000001         0.21984345715483933     
  0.12509999999999999         0.17848284783510238     
  0.12540000000000001         0.13140681593830772     
  0.12570000000000003          8.3346665004310427E-002
  0.12600000000000000          3.5668970799033972E-002
  0.12630000000000002         -6.9642756539961548E-003
  0.12659999999999999         -4.3030593889790358E-002
  0.12690000000000001         -7.0059499064984987E-002
  0.12719999999999998         -8.6207085719153476E-002
  0.12750000000000000         -9.1491046022955436E-002
  0.12780000000000002         -8.4970990567392046E-002
  0.12809999999999999         -6.8346258474276667E-002
  0.12840000000000001         -4.2865060158424173E-002
  0.12869999999999998         -1.0810836960362280E-002
  0.12900000000000000          2.3729260729157486E-002
  0.12930000000000003          5.9073303235497754E-002
  0.12959999999999999          8.9874169523656622E-002
  0.12990000000000002         0.11517237321683987     
  0.13019999999999998         0.13081297664644520     
  0.13050000000000000         0.13697609619962847     
  0.13080000000000003         0.13118985757469748     
  0.13109999999999999         0.11556902693406235     
  0.13140000000000002          8.9708951566200845E-002
  0.13169999999999998          5.7185523680509220E-002
  0.13200000000000001          1.8472261285423175E-002
  0.13229999999999997         -2.1377340101115250E-002
  0.13260000000000000         -6.2359063551013172E-002
  0.13290000000000002         -9.9424230045421114E-002
  0.13319999999999999        -0.13244345008627179     
  0.13350000000000001        -0.15815703352258415     
  0.13380000000000003        -0.17595326900558828     
  0.13410000000000000        -0.18426072171412633     
  0.13440000000000002        -0.18307951853549120     
  0.13469999999999999        -0.17231087278686630     
  0.13500000000000001        -0.15270897926953708     
  0.13529999999999998        -0.12461373236059003     
  0.13560000000000000         -9.0693127377129201E-002
  0.13590000000000002         -5.1648790301562553E-002
  0.13619999999999999         -1.1740997564972017E-002
  0.13650000000000001          2.8128172156307807E-002
  0.13680000000000003          6.3712933204568944E-002
  0.13710000000000000          9.4096327517061429E-002
  0.13740000000000002         0.11536540164208596     
  0.13769999999999999         0.12759986324186712     
  0.13800000000000001         0.12940967199592679     
  0.13829999999999998         0.12141716758232990     
  0.13860000000000000         0.10411822801922099     
  0.13890000000000002          7.9926784833855624E-002
  0.13919999999999999          5.0476472289380681E-002
  0.13950000000000001          1.9048395643309179E-002
  0.13979999999999998         -1.2923026934215487E-002
  0.14010000000000000         -4.2018196693811349E-002
  0.14040000000000002         -6.6673575234945742E-002
  0.14069999999999999         -8.5096725281387231E-002
  0.14100000000000001         -9.6332152627722767E-002
  0.14130000000000004         -9.9873098029562568E-002
  0.14160000000000000         -9.5602518788981516E-002
  0.14189999999999997         -8.3992986724149343E-002
  0.14219999999999999         -6.5994513058253546E-002
  0.14250000000000002         -4.2661430057204797E-002
  0.14279999999999998         -1.5904252877511293E-002
  0.14310000000000000          1.3041195694420304E-002
  0.14339999999999997          4.1887551524317904E-002
  0.14369999999999999          6.8771745594471190E-002
  0.14400000000000002          9.1631149378776700E-002
  0.14429999999999998         0.10874803531516797     
  0.14460000000000001         0.11942050335305154     
  0.14490000000000003         0.12171680313892219     
  0.14520000000000000         0.11662988160565657     
  0.14550000000000002         0.10360492353532402     
  0.14579999999999999          8.4043803551590024E-002
  0.14610000000000001          5.9415778168044220E-002
  0.14640000000000003          3.1927126458556443E-002
  0.14670000000000000          3.4745417019938912E-003
  0.14699999999999996         -2.4192945996879045E-002
  0.14729999999999999         -4.8214965915378272E-002
  0.14760000000000001         -6.8250035702719480E-002
  0.14789999999999998         -8.2418825812023644E-002
  0.14820000000000000         -9.0105450770434192E-002