  -1.4999999999999999E-002     0.0000000000000000     
  -1.4700000000000000E-002     0.0000000000000000     
  -1.4400000000000000E-002     0.0000000000000000     
  -1.4100000000000000E-002     0.0000000000000000     
  -1.3800000000000000E-002    -5.2671435647917012E-038
  -1.3500000000000000E-002    -1.3874190438933893E-034
  -1.3200000000000000E-002    -2.5319178142416744E-032
  -1.2899999999999998E-002     4.5492128440536713E-031
  -1.2600000000000000E-002     2.1981480993972001E-029
  -1.2299999999999998E-002    -2.8478401520868491E-028
  -1.2000000000000000E-002    -1.5575792441488823E-027
  -1.1699999999999999E-002     2.8247532541791920E-026
  -1.1399999999999999E-002    -3.4593125219981420E-026
  -1.1099999999999999E-002    -6.4601136927177111E-025
  -1.0799999999999999E-002     1.7693636044929022E-024
  -1.0499999999999999E-002     5.8160982052101796E-024
  -1.0199999999999999E-002    -1.8035716832805373E-023
  -9.8999999999999991E-003    -5.4397123889944836E-023
  -9.5999999999999992E-003     1.4256021066942938E-022
  -9.2999999999999992E-003     3.7150585020973775E-022
  -8.9999999999999993E-003    -7.1100610730746686E-022
  -8.6999999999999994E-003    -1.8636064187933950E-021
  -8.3999999999999995E-003     8.6232766433233700E-022
  -8.0999999999999996E-003     8.8917664453173117E-021
  -7.7999999999999988E-003     1.1606573772251927E-020
  -7.4999999999999997E-003    -3.1807776492256719E-020
  -7.1999999999999998E-003    -1.2293328277671395E-019
  -6.8999999999999981E-003     1.4255761879021984E-019
  -6.5999999999999982E-003     4.6736771420232052E-019
  -6.3000000000000000E-003    -3.0411556053690846E-019
  -6.0000000000000001E-003    -8.5551242775959177E-019
  -5.6999999999999985E-003    -5.3582236356500004E-019
  -5.3999999999999986E-003    -1.6927965618696599E-018
  -5.1000000000000004E-003     9.6127034579033857E-018
  -4.7999999999999987E-003     1.3888929849217969E-017
  -4.5000000000000005E-003    -4.7744052470257600E-017
  -4.1999999999999989E-003    -2.6164933467191580E-017
  -3.8999999999999990E-003     1.4279564950661273E-016
  -3.5999999999999990E-003    -1.8484190338938497E-016
  -3.2999999999999991E-003     1.7235365504077372E-016
  -2.9999999999999992E-003     7.3942938006407402E-016
  -2.6999999999999993E-003    -2.7568802084061419E-015
  -2.3999999999999994E-003     2.1142806689208769E-015
  -2.0999999999999977E-003     3.3771207148722351E-015
  -1.7999999999999995E-003    -1.0197502426184204E-014
  -1.4999999999999979E-003     1.6049234377540212E-014
  -1.1999999999999997E-003    -7.2312233433529635E-015
  -8.9999999999999976E-004    -3.7427944897755254E-014
  -5.9999999999999810E-004     8.5561213010318521E-014
  -2.9999999999999992E-004    -7.5516536156614848E-014
   0.0000000000000000         -3.3676765225216264E-014
   3.0000000000000165E-004     3.3327532604421707E-013
   5.9999999999999984E-004    -6.5833277975902419E-013
   9.0000000000000149E-004     2.1617752217886637E-013
   1.2000000000000031E-003     1.4458171948158034E-012
   1.5000000000000013E-003    -3.0550923926099533E-012
   1.8000000000000030E-003     1.5417148030547229E-012
   2.1000000000000012E-003     5.5096550200505900E-012
   2.3999999999999994E-003    -1.2382076759990563E-011
   2.7000000000000010E-003     3.8662924212486615E-012
   2.9999999999999992E-003     2.2237201010516773E-011
   3.3000000000000008E-003    -3.5081570068364524E-011
   3.6000000000000025E-003    -1.0700786294353152E-012
   3.9000000000000007E-003     6.7848071948198333E-011
   4.2000000000000023E-003    -7.4737650336376789E-011
   4.5000000000000005E-003    -4.1765128781984582E-011
   4.7999999999999987E-003     1.6560979352231466E-010
   5.1000000000000004E-003    -8.6834157954954776E-011
   5.4000000000000020E-003    -1.6412119025992060E-010
   5.7000000000000037E-003     2.6356664598148371E-010
   5.9999999999999984E-003    -2.3150088201684590E-012
   6.3000000000000000E-003    -3.5436748908711363E-010
   6.6000000000000017E-003     2.6401538668665777E-010
   6.9000000000000034E-003     2.8712376366857159E-010
   7.2000000000000015E-003    -4.7546193695038059E-010
   7.5000000000000032E-003    -1.2638901649389426E-010
   7.8000000000000014E-003     6.2449837231058846E-010
   8.0999999999999996E-003    -9.7675545659221097E-011
   8.4000000000000012E-003    -8.5006760600845572E-010
   8.7000000000000029E-003     5.8625817348037351E-010
   9.0000000000000011E-003     1.1106176955023458E-009
   9.2999999999999992E-003    -1.5929306933549529E-009
   9.6000000000000009E-003    -8.8670503302255572E-010
   9.8999999999999991E-003     2.9386124220094096E-009
   1.0200000000000001E-002    -6.1528800292498017E-010
   1.0500000000000002E-002    -3.7160791895197180E-009
   1.0800000000000004E-002     3.7054277767744954E-009
   1.1099999999999999E-002     2.6629091664608963E-009
   1.1400000000000000E-002    -7.4938606723298831E-009
   1.1700000000000002E-002     7.6595699196128467E-010
   1.2000000000000004E-002     9.9808516959661868E-009
   1.2300000000000002E-002    -4.7487624648864581E-009
   1.2600000000000000E-002    -9.0323667983881911E-009
   1.2900000000000002E-002     2.2740345493423199E-009
   1.3200000000000000E-002     1.3702416183114653E-009
   1.3500000000000002E-002     1.7890448371380213E-008
   1.3800000000000003E-002     2.9037615887607259E-008
   1.4100000000000001E-002    -5.4070973532308422E-008
   1.4400000000000000E-002    -1.5344839587903194E-007
   1.4700000000000001E-002     7.0555277932345878E-008
   1.4999999999999999E-002     1.0646558595511290E-006
   1.5300000000000001E-002     2.6734003039556696E-006
   1.5600000000000003E-002     3.8928472332123748E-006
   1.5899999999999997E-002     5.3616701606090116E-006
   1.6199999999999999E-002     1.1405130666272632E-005
   1.6500000000000001E-002     2.5777235218472976E-005
   1.6800000000000002E-002     4.4847274147046521E-005
   1.7100000000000004E-002     5.8747090523114448E-005
   1.7400000000000006E-002     6.4135785564786935E-005
   1.7700000000000000E-002     7.5140592937154903E-005
   1.8000000000000002E-002     1.1091188481749704E-004
   1.8300000000000004E-002     1.6965537799451796E-004
   1.8600000000000005E-002     2.3028474615020269E-004
   1.8900000000000000E-002     2.8409787830792343E-004
   1.9200000000000002E-002     3.4636304734453859E-004
   1.9500000000000003E-002     4.2545007412015008E-004
   1.9799999999999998E-002     4.9107702020453892E-004
   2.0100000000000000E-002     4.8238105379756584E-004
   2.0400000000000001E-002     3.3334463439721636E-004
   2.0700000000000003E-002    -3.2890533114178500E-005
   2.0999999999999998E-002    -7.3989509981136140E-004
   2.1299999999999999E-002    -1.9808334526921333E-003
   2.1600000000000001E-002    -4.0197264510972771E-003
   2.1900000000000003E-002    -7.2117378651376310E-003
   2.2200000000000004E-002    -1.2038069297941406E-002
   2.2500000000000006E-002    -1.9096363029763724E-002
   2.2800000000000001E-002    -2.9079748757250501E-002
   2.3100000000000002E-002    -4.2811862902232933E-002
   2.3400000000000004E-002    -6.1266924428944103E-002
   2.3699999999999999E-002    -8.5514804700738578E-002
   2.4000000000000000E-002   -0.11666161848568191     
   2.4300000000000002E-002   -0.15578076640343186     
   2.4599999999999997E-002   -0.20381832915415732     
   2.4900000000000005E-002   -0.26149436250930602     
   2.5200000000000000E-002   -0.32918768154343514     
   2.5499999999999995E-002   -0.40677633908669186     
   2.5800000000000003E-002   -0.49351788313522782     
   2.6099999999999998E-002   -0.58793650250999363     
   2.6400000000000007E-002   -0.68777722650788142     
   2.6700000000000002E-002   -0.78995012324487490     
   2.6999999999999996E-002   -0.89058395082327380     
   2.7300000000000005E-002   -0.98513596452166752     
   2.7600000000000000E-002    -1.0685683234881331     
   2.7900000000000008E-002    -1.1355910687945077     
   2.8200000000000003E-002    -1.1810015551438333     
   2.8499999999999998E-002    -1.2000214807303706     
   2.8800000000000006E-002    -1.1886530514430831     
   2.9100000000000001E-002    -1.1438910563568356     
   2.9400000000000003E-002    -1.0640083902319546     
   2.9700000000000004E-002   -0.94870332388381584     
   3.0000000000000006E-002   -0.79904486208073067     
   3.0300000000000001E-002   -0.61753251913572882     
   3.0600000000000002E-002   -0.40782404671561423     
   3.0900000000000004E-002   -0.17455163667956697     
   3.1199999999999999E-002     7.6929359093819372E-002
   3.1500000000000007E-002    0.34099169413882180     
   3.1800000000000002E-002    0.61168268220949962     
   3.2099999999999997E-002    0.88309317766794937     
   3.2400000000000005E-002     1.1494100156461080     
   3.2700000000000000E-002     1.4047840700225933     
   3.3000000000000002E-002     1.6438601138273334     
   3.3300000000000003E-002     1.8607972808271072     
   3.3599999999999998E-002     2.0504448002058879     
   3.3900000000000000E-002     2.2073744932848527     
   3.4200000000000001E-002     2.3270691144986486     
   3.4500000000000003E-002     2.4054329395901135     
   3.4799999999999998E-002     2.4397921854148734     
   3.5099999999999999E-002     2.4290810267179523     
   3.5400000000000001E-002     2.3744337278015593     
   3.5699999999999996E-002     2.2794729997379619     
   3.6000000000000004E-002     2.1501508718727536     
   3.6299999999999999E-002     1.9952902490230571     
   3.6600000000000008E-002     1.8253796084648926     
   3.6900000000000002E-002     1.6527648646694502     
   3.7199999999999997E-002     1.4896239737080919     
   3.7500000000000006E-002     1.3477578671766395     
   3.7800000000000000E-002     1.2367480011011764     
   3.8100000000000009E-002     1.1633047605175832     
   3.8400000000000004E-002     1.1299390791996657     
   3.8699999999999998E-002     1.1348631356317611     
   3.9000000000000007E-002     1.1714285547670720     
   3.9300000000000002E-002     1.2289681484325747     
   3.9600000000000003E-002     1.2931440287991904     
   3.9900000000000005E-002     1.3474457776946345     
   4.0200000000000000E-002     1.3741573555266342     
   4.0500000000000001E-002     1.3564953615239688     
   4.0800000000000003E-002     1.2789926913777840     
   4.1100000000000005E-002     1.1295123478452211     
   4.1399999999999999E-002    0.89972457755756352     
   4.1700000000000008E-002    0.58544956053592045     
   4.2000000000000003E-002    0.18698464586503105     
   4.2299999999999997E-002   -0.29146454289071144     
   4.2600000000000006E-002   -0.84150942525963401     
   4.2900000000000001E-002    -1.4520416023141678     
   4.3200000000000002E-002    -2.1084419938831216     
   4.3500000000000004E-002    -2.7939892482021396     
   4.3799999999999999E-002    -3.4889025884125253     
   4.4100000000000000E-002    -4.1711409125569503     
   4.4400000000000002E-002    -4.8161529153847766     
   4.4700000000000004E-002    -5.3968631056382037     
   4.4999999999999998E-002    -5.8848727694352192     
   4.5300000000000000E-002    -6.2500893737213659     
   4.5600000000000002E-002    -6.4639410432041018     
   4.5899999999999996E-002    -6.4992862529205411     
   4.6200000000000005E-002    -6.3350567537989093     
   4.6500000000000000E-002    -5.9563920680245133     
   4.6799999999999994E-002    -5.3588738935771971     
   4.7100000000000003E-002    -4.5494839050232372     
   4.7399999999999998E-002    -3.5473987740787152     
   4.7700000000000006E-002    -2.3856134662532114     
   4.8000000000000001E-002    -1.1073557998573467     
   4.8300000000000010E-002    0.23323987591636808     
   4.8600000000000004E-002     1.5770740843887694     
   4.8899999999999999E-002     2.8620500051647610     
   4.9200000000000008E-002     4.0284632270317147     
   4.9500000000000002E-002     5.0230138157754070     
   4.9800000000000011E-002     5.8021844228802593     
   5.0100000000000006E-002     6.3353730260248540     
   5.0400000000000000E-002     6.6062188854181727     
   5.0700000000000009E-002     6.6130746019232731     
   5.1000000000000004E-002     6.3680470226888417     
   5.1299999999999998E-002     5.8946418373691358     
   5.1600000000000007E-002     5.2249136432664045     
   5.1900000000000002E-002     4.3968405775381854     
   5.2200000000000010E-002     3.4502989481784851     
   5.2500000000000005E-002     2.4248753818363937     
   5.2800000000000000E-002     1.3569880505735910     
   5.3099999999999994E-002    0.28107180622111194     
   5.3400000000000003E-002   -0.77380019214069051     
   5.3699999999999998E-002    -1.7787150302683585     
   5.4000000000000006E-002    -2.7072617531487992     
   5.4300000000000001E-002    -3.5296690043924954     
   5.4599999999999996E-002    -4.2139670664900173     
   5.4900000000000004E-002    -4.7233045012286574     
   5.5199999999999999E-002    -5.0166969667943277     
   5.5499999999999994E-002    -5.0515562861693155     
   5.5800000000000002E-002    -4.7860422816686992     
   5.6099999999999997E-002    -4.1867539333419614     
   5.6400000000000006E-002    -3.2330752288155509     
   5.6700000000000000E-002    -1.9270176771600624     
   5.6999999999999995E-002   -0.29796862746636776     
   5.7300000000000004E-002     1.5902928813622452     
   5.7599999999999998E-002     3.6381813603403828     
   5.7900000000000007E-002     5.7116484274220625     
   5.8200000000000002E-002     7.6459605009306983     
   5.8499999999999996E-002     9.2587272122620305     
   5.8800000000000005E-002     10.360797739640716     
   5.9100000000000000E-002     10.776714658947519     
   5.9400000000000008E-002     10.360584511410906     
   5.9700000000000003E-002     9.0161451755543283     
   6.0000000000000012E-002     6.7115164895073605     
   6.0300000000000006E-002     3.4902707704272204     
   6.0600000000000001E-002   -0.52370347442939646     
   6.0900000000000010E-002    -5.1296140079586507     
   6.1200000000000004E-002    -10.059788141611250     
   6.1500000000000013E-002    -14.997814751710678     
   6.1800000000000008E-002    -19.600673094768013     
   6.2100000000000002E-002    -23.528088926778821     
   6.2399999999999997E-002    -26.467985172823504     
   6.2700000000000006E-002    -28.163958237848355     
   6.3000000000000000E-002    -28.437544983354087     
   6.3300000000000009E-002    -27.202646379648456     
   6.3600000000000004E-002    -24.474386933279504     
   6.3899999999999998E-002    -20.367186338126203     
   6.4199999999999993E-002    -15.085462584390825     
   6.4500000000000002E-002    -8.9092054738135573     
   6.4800000000000010E-002    -2.1684138012133474     
   6.5100000000000005E-002     4.7772163812713870     
   6.5400000000000000E-002     11.568866500348008     
   6.5700000000000008E-002     17.868294996220243     
   6.5999999999999989E-002     23.383209245931994     
   6.6299999999999998E-002     27.879944086541002     
   6.6600000000000006E-002     31.193939477025054     
   6.6900000000000001E-002     33.237228333066824     
   6.7199999999999996E-002     33.991460513865746     
   6.7500000000000004E-002     33.507854220067031     
   6.7800000000000013E-002     31.890812617479810     
   6.8099999999999994E-002     29.293889528217960     
   6.8400000000000002E-002     25.894749654747102     
   6.8700000000000011E-002     21.896236105644903     
   6.8999999999999992E-002     17.500216931663260     
   6.9300000000000000E-002     12.906213189216032     
   6.9600000000000009E-002     8.2988756104358004     
   6.9900000000000004E-002     3.8402980151739250     
   7.0199999999999999E-002   -0.33116348583173760     
   7.0500000000000007E-002    -4.1090671185813505     
   7.0800000000000016E-002    -7.4124047555608854     
   7.1099999999999997E-002    -10.194567591527800     
   7.1400000000000005E-002    -12.431218648839945     
   7.1700000000000000E-002    -14.129212600433561     
   7.1999999999999995E-002    -15.310597318154038     
   7.2300000000000003E-002    -16.020644831656000     
   7.2600000000000012E-002    -16.314508146185744     
   7.2900000000000006E-002    -16.255174664354996     
   7.3200000000000001E-002    -15.912866681783441     
   7.3499999999999996E-002    -15.351202562890592     
   7.3800000000000004E-002    -14.636188678095550     
   7.4099999999999999E-002    -13.818548960963085     
   7.4400000000000008E-002    -12.945165281763707     
   7.4700000000000003E-002    -12.046298392020674     
   7.5000000000000011E-002    -11.142602702141517     
   7.5299999999999992E-002    -10.242689763441604     
   7.5600000000000001E-002    -9.3433397239444389     
   7.5900000000000009E-002    -8.4355430622846654     
   7.6200000000000004E-002    -7.5006978256722618     
   7.6499999999999999E-002    -6.5220597875967599     
   7.6800000000000007E-002    -5.4782873665685941     
   7.7099999999999988E-002    -4.3557835447421525     
   7.7399999999999997E-002    -3.1438284262882306     
   7.7700000000000005E-002    -1.8419777027457869     
   7.8000000000000014E-002   -0.45962968431009799     
   7.8299999999999995E-002    0.98433600119589926     
   7.8600000000000003E-002     2.4581768408049811     
   7.8900000000000012E-002     3.9237539138239583     
   7.9199999999999993E-002     5.3328874524111143     
   7.9500000000000001E-002     6.6351999297522042     
   7.9800000000000010E-002     7.7797928677964521     
   8.0100000000000018E-002     8.7177868274390988     
   8.0399999999999999E-002     9.4092068102564070     
   8.0700000000000008E-002     9.8236595952693904     
   8.1000000000000003E-002     9.9440199904904034     
   8.1299999999999997E-002     9.7697422732753125     
   8.1600000000000006E-002     9.3138962630540618     
   8.1900000000000014E-002     8.6076023292835089     
   8.2199999999999995E-002     7.6918110499572379     
   8.2500000000000004E-002     6.6225691518649796     
   8.2799999999999999E-002     5.4586710881841611     
   8.3100000000000007E-002     4.2657370959406080     
   8.3400000000000002E-002     3.1059257718445394     
   8.3700000000000011E-002     2.0363442762654742     
   8.4000000000000005E-002     1.1061769618000810     
   8.4300000000000000E-002    0.35032416684384682     
   8.4599999999999995E-002   -0.20835457466301932     
   8.4900000000000003E-002   -0.56470578532530880     
   8.5199999999999998E-002   -0.72797123386834528     
   8.5500000000000007E-002   -0.72230427468984004     
   8.5800000000000001E-002   -0.58367218374081986     
   8.6100000000000010E-002   -0.35781250054451164     
   8.6399999999999991E-002    -9.5734112325264853E-002
   8.6699999999999999E-002    0.15162533736514039     
   8.7000000000000008E-002    0.33508557384117932     
   8.7300000000000003E-002    0.41369574471595172     
   8.7599999999999997E-002    0.35782574878581386     
   8.7900000000000006E-002    0.15023206351569907     
   8.8200000000000014E-002   -0.20992043465449584     
   8.8499999999999995E-002   -0.71049362269221206     
   8.8800000000000004E-002    -1.3233376521023565     
   8.9100000000000013E-002    -2.0107590981496273     
   8.9399999999999993E-002    -2.7252038887498955     
   8.9700000000000002E-002    -3.4163990606766710     
   9.0000000000000011E-002    -4.0332180314486905     
   9.0299999999999991E-002    -4.5295280791053045     
   9.0600000000000000E-002    -4.8667400128568943     
   9.0900000000000009E-002    -5.0171460838127189     
   9.1200000000000017E-002    -4.9661374737167421     
   9.1499999999999998E-002    -4.7128256426677524     
   9.1800000000000007E-002    -4.2693241533321640     
   9.2100000000000001E-002    -3.6608919138108860     
   9.2399999999999996E-002    -2.9224239018398492     
   9.2700000000000005E-002    -2.0965975511719392     
   9.3000000000000013E-002    -1.2306724568264933     
   9.3300000000000008E-002   -0.37332402128047582     
   9.3600000000000003E-002    0.42780458890912598     
   9.3899999999999997E-002     1.1307480074047902     
   9.4200000000000006E-002     1.6992755172085339     
   9.4500000000000001E-002     2.1075881071365039     
   9.4800000000000009E-002     2.3388859769042405     
   9.5100000000000004E-002     2.3891751616600381     
   9.5399999999999999E-002     2.2654058368821453     
   9.5699999999999993E-002     1.9859377586953713     
   9.6000000000000002E-002     1.5801505178532693     
   9.6300000000000011E-002     1.0854110589285142     
   9.6600000000000005E-002    0.54531995453253224     
   9.6900000000000000E-002     7.8351395362474818E-003
   9.7200000000000009E-002   -0.48052276449844200     
   9.7499999999999989E-002   -0.87465505276178312     
   9.7799999999999998E-002    -1.1384266853912386     
   9.8100000000000007E-002    -1.2437380338836252     
   9.8400000000000015E-002    -1.1765469955841183     
   9.8699999999999996E-002   -0.93658558582253804     
   9.9000000000000005E-002   -0.53830701553159344     
   9.9300000000000013E-002    -1.0536581281170854E-002
   9.9599999999999994E-002    0.60531117191151296     
   9.9900000000000003E-002     1.2595898861088415     
  0.10020000000000001          1.8972167880576585     
  0.10049999999999999          2.4627718722880321     
  0.10080000000000000          2.9051897842808394     
  0.10110000000000001          3.1840955151997221     
  0.10140000000000000          3.2692598220038462     
  0.10170000000000000          3.1494822866849717     
  0.10200000000000001          2.8275305207019699     
  0.10230000000000002          2.3245241704842954     
  0.10260000000000000          1.6756727625390511     
  0.10290000000000001         0.92746804392313642     
  0.10320000000000000         0.13498645807960585     
  0.10350000000000001        -0.64621253150808400     
  0.10380000000000000         -1.3599074555641408     
  0.10410000000000001         -1.9597342174699008     
  0.10440000000000001         -2.4060267771086608     
  0.10470000000000000         -2.6767038622681891     
  0.10500000000000000         -2.7589092578211520     
  0.10530000000000000         -2.6585357779026566     
  0.10560000000000000         -2.3915192072654534     
  0.10590000000000001         -1.9869877971792391     
  0.10620000000000000         -1.4810097580569561     
  0.10650000000000001        -0.91507889657030006     
  0.10679999999999999        -0.33211229078544258     
  0.10710000000000000         0.22668888547621435     
  0.10740000000000001         0.72480557634570175     
  0.10770000000000000          1.1318421837302353     
  0.10800000000000000          1.4253766135173649     
  0.10830000000000001          1.5932079340039755     
  0.10859999999999999          1.6308453341465086     
  0.10890000000000000          1.5444312951945953     
  0.10920000000000001          1.3462791441805138     
  0.10950000000000001          1.0568375510854757     
  0.10979999999999999         0.70101892048076309     
  0.11009999999999999         0.30668943669290494     
  0.11040000000000001         -9.6104210721124517E-002
  0.11070000000000001        -0.47990722186987966     
  0.11100000000000000        -0.81791023672159291     
  0.11130000000000000         -1.0899515421232668     
  0.11160000000000002         -1.2794230193215448     
  0.11190000000000001         -1.3784218300039477     
  0.11220000000000001         -1.3847119681593298     
  0.11250000000000000         -1.3028184554281026     
  0.11280000000000000         -1.1449622414846772     
  0.11309999999999999        -0.92630749717884697     
  0.11340000000000001        -0.66748001261563061     
  0.11369999999999998        -0.38877221883024582     
  0.11400000000000000        -0.11302793091601504     
  0.11430000000000000         0.14090387398679827     
  0.11460000000000002         0.35564543704852802     
  0.11489999999999999         0.51898209262692041     
  0.11520000000000001         0.62271144933366074     
  0.11550000000000001         0.66492382903590652     
  0.11580000000000000         0.64696380549711918     
  0.11609999999999999         0.57713712493428204     
  0.11640000000000002         0.46441780636413199     
  0.11670000000000001         0.32312651307869977     
  0.11700000000000001         0.16701164917826805     
  0.11730000000000000          1.1920878467579610E-002
  0.11760000000000000        -0.12889064970934960     
  0.11789999999999999        -0.24196896966689296     
  0.11820000000000001        -0.31827772653018194     
  0.11850000000000001        -0.35079333873736473     
  0.11880000000000000        -0.33683208523620500     
  0.11910000000000000        -0.27685794012984299     
  0.11940000000000002        -0.17555040665170063     
  0.11970000000000001         -4.0407184484707814E-002
  0.12000000000000001         0.11805376577031623     
  0.12030000000000000         0.28731851055349722     
  0.12060000000000000         0.45399454696359420     
  0.12089999999999999         0.60496636998874109     
  0.12119999999999999         0.72810093948631227     
  0.12150000000000001         0.81267474727974509     
  0.12180000000000001         0.85204811285441906     
  0.12210000000000000         0.84142229361935250     
  0.12239999999999999         0.78155564771055808     
  0.12270000000000002         0.67524270817682819     
  0.12300000000000001         0.53054122417194449     
  0.12330000000000001         0.35603624636198639     
  0.12360000000000000         0.16481795172185487     
  0.12390000000000000         -3.1551745254247088E-002
  0.12419999999999999        -0.21902161516957186     
  0.12450000000000001        -0.38738806980952312     
  0.12480000000000001        -0.52545451388240938     
  0.12509999999999999        -0.62753156245122965     
  0.12540000000000001        -0.68763418380908536     
  0.12570000000000003        -0.70676205119552726     
  0.12600000000000000        -0.68462143498629047     
  0.12630000000000002        -0.62722029097949061     
  0.12659999999999999        -0.53988231861824509     
  0.12690000000000001        -0.43173055535270954     
  0.12719999999999998        -0.31036198330009501     
  0.12750000000000000        -0.18630557077864651     
  0.12780000000000002         -6.7634292593917844E-002
  0.12809999999999999          3.7999305949374396E-002
  0.12840000000000001         0.12309104004651772     
  0.12869999999999998         0.18417998818659909     
  0.12900000000000000         0.21689873629558820     
  0.12930000000000003         0.22141812044484910     
  0.12959999999999999         0.19878283979705014     
  0.12990000000000002         0.15253610532772122     
  0.13019999999999998          8.7425241788235297E-002
  0.13050000000000000          1.1022998787924121E-002
  0.13080000000000003         -7.0712508438838029E-002
  0.13109999999999999        -0.14846897405861492     
  0.13140000000000002        -0.21635496333043491     
  0.13169999999999998        -0.26717546682934001     
  0.13200000000000001        -0.29669008190869572     
  0.13229999999999997        -0.30117432767743857     
  0.13260000000000000        -0.28123148740680826     
  0.13290000000000002        -0.23706457717954876     
  0.13319999999999999        -0.17245907629074786     
  0.13350000000000001         -9.2187070247130576E-002
  0.13380000000000003         -1.9449631441168513E-003
  0.13410000000000000          9.1866765847739451E-002
  0.13440000000000002         0.18234536620885677     
  0.13469999999999999         0.26466481169055367     
  0.13500000000000001         0.33206703711675190     
  0.13529999999999998         0.38261311242918961     
  0.13560000000000000         0.41146573925314733     
  0.13590000000000002         0.41967762417747423     
  0.13619999999999999         0.40516817242824210     
  0.13650000000000001         0.37112726175366895     
  0.13680000000000003         0.31902394416029800     
  0.13710000000000000         0.25337694768793195     
  0.13740000000000002         0.17802218537647274     
  0.13769999999999999          9.7839664450989794E-002
  0.13800000000000001          1.9091779641795203E-002
  0.13829999999999998         -5.4928308416872795E-002
  0.13860000000000000        -0.11784155983505062     
  0.13890000000000002        -0.16755554592886268     
  0.13919999999999999        -0.20047977000305550     
  0.13950000000000001        -0.21529494883703770     
  0.13979999999999998        -0.21297649342251512     
  0.14010000000000000        -0.19409565497598358     
  0.14040000000000002        -0.16222840308660391     
  0.14069999999999999        -0.12054500510025923     
  0.14100000000000001         -7.3224020701194936E-002
  0.14130000000000004         -2.5002003065298734E-002
  0.14160000000000000          2.0804067183910036E-002
  0.14189999999999997          5.9001486614097320E-002
  0.14219999999999999          8.8837343926515988E-002
  0.14250000000000002         0.10577165863447568     
  0.14279999999999998         0.11211017485363395     
  0.14310000000000000         0.10435856270077082     
  0.14339999999999997          8.6398115941821452E-002
  0.14369999999999999          5.7659467227597627E-002
  0.14400000000000002          2.1568007041622539E-002
  0.14429999999999998         -1.9385570071988933E-002
  0.14460000000000001         -6.2454298564214028E-002
  0.14490000000000003        -0.10412777953732633     
  0.14520000000000000        -0.14140928997943381     
  0.14550000000000002        -0.17150757000063399     
  0.14579999999999999        -0.19165031401255250     
  0.14610000000000001        -0.20102708805224712     
  0.14640000000000003        -0.19700685524782635     
  0.14670000000000000        -0.18126612340837234     
  0.14699999999999996        -0.15333367006495013     
  0.14729999999999999        -0.11605334115819677     
  0.14760000000000001         -7.1590419904802971E-002
  0.14789999999999998         -2.3439604926976221E-002
  0.14820000000000000          2.4995614716988745E-002