  -1.4999999999999999E-002     0.0000000000000000     
  -1.4700000000000000E-002     0.0000000000000000     
  -1.4400000000000000E-002     0.0000000000000000     
  -1.4100000000000000E-002     0.0000000000000000     
  -1.3800000000000000E-002     0.0000000000000000     
  -1.3500000000000000E-002     0.0000000000000000     
  -1.3200000000000000E-002     0.0000000000000000     
  -1.2899999999999998E-002     0.0000000000000000     
  -1.2600000000000000E-002    -2.4556595312163958E-038
  -1.2299999999999998E-002    -8.1636986378372481E-035
  -1.2000000000000000E-002     5.6398455710927121E-034
  -1.1699999999999999E-002     9.1314296656515995E-033
  -1.1399999999999999E-002    -9.6377324210924333E-032
  -1.1099999999999999E-002    -6.4086553168553636E-032
  -1.0799999999999999E-002     2.8177793891470667E-030
  -1.0499999999999999E-002    -2.4062128620089177E-030
  -1.0199999999999999E-002    -4.3402883615863348E-029
  -9.8999999999999991E-003     5.1014128663426323E-029
  -9.5999999999999992E-003     4.4347811050421564E-028
  -9.2999999999999992E-003    -3.8253518705024119E-028
  -8.9999999999999993E-003    -3.2313753348714584E-027
  -8.6999999999999994E-003    -1.3746570534131805E-027
  -8.3999999999999995E-003     2.0950977758751797E-026
  -8.0999999999999996E-003     5.4426681620770133E-026
  -7.7999999999999988E-003    -1.7050752684618709E-025
  -7.4999999999999997E-003    -3.8758459441548152E-025
  -7.1999999999999998E-003     8.9944293387682748E-025
  -6.8999999999999981E-003     1.1643780231983913E-024
  -6.5999999999999982E-003     1.7105335696284181E-025
  -6.3000000000000000E-003    -4.2387306873302447E-024
  -6.0000000000000001E-003    -3.2776993907090271E-023
  -5.6999999999999985E-003     6.7527736731705239E-023
  -5.3999999999999986E-003     1.0491492843221573E-022
  -5.1000000000000004E-003    -3.1834730479151257E-022
  -4.7999999999999987E-003     3.1241746892140243E-022
  -4.5000000000000005E-003    -6.5173713943830770E-022
  -4.1999999999999989E-003    -1.4817943048832312E-021
  -3.8999999999999990E-003     1.1842881347034511E-020
  -3.5999999999999990E-003    -1.8694511257071438E-020
  -3.2999999999999991E-003    -3.5192766707141523E-021
  -2.9999999999999992E-003     6.8323134655879666E-020
  -2.6999999999999993E-003    -2.2718404371374093E-019
  -2.3999999999999994E-003     4.5471850181447464E-019
  -2.0999999999999977E-003    -2.7363062284950557E-019
  -1.7999999999999995E-003    -8.9432834294551510E-019
  -1.4999999999999979E-003     3.1009663199972203E-018
  -1.1999999999999997E-003    -6.4233999092478568E-018
  -8.9999999999999976E-004     8.7524146050358369E-018
  -5.9999999999999810E-004    -1.4019495427273366E-018
  -2.9999999999999992E-004    -2.7104420691788395E-017
   0.0000000000000000          8.7731007377945630E-017
   3.0000000000000165E-004    -1.7391644432494818E-016
   5.9999999999999984E-004     1.6103038651458070E-016
   9.0000000000000149E-004     2.6958443496879732E-016
   1.2000000000000031E-003    -1.3540066242623511E-015
   1.5000000000000013E-003     2.4836714902467171E-015
   1.8000000000000030E-003    -1.2798269727527269E-015
   2.1000000000000012E-003    -5.6247307565716539E-015
   2.3999999999999994E-003     1.6683879213059971E-014
   2.7000000000000010E-003    -1.7356040514287727E-014
   2.9999999999999992E-003    -1.4380911825956355E-014
   3.3000000000000008E-003     7.5893454118836773E-014
   3.6000000000000025E-003    -1.0121599196798170E-013
   3.9000000000000007E-003    -1.5151100250169851E-014
   4.2000000000000023E-003     2.7174860669013090E-013
   4.5000000000000005E-003    -4.0592125472548035E-013
   4.7999999999999987E-003     4.1516499981776589E-014
   5.1000000000000004E-003     7.8187776348867533E-013
   5.4000000000000020E-003    -1.2474563482883783E-012
   5.7000000000000037E-003     3.3304771700909397E-013
   5.9999999999999984E-003     1.7884969763862224E-012
   6.3000000000000000E-003    -3.1036104675835618E-012
   6.6000000000000017E-003     1.4259060512195054E-012
   6.9000000000000034E-003     2.8882035651989213E-012
   7.2000000000000015E-003    -6.4313814690519777E-012
   7.5000000000000032E-003     5.2312581350077991E-012
   7.8000000000000014E-003     1.9282388186159238E-012
   8.0999999999999996E-003    -1.1445212833027796E-011
   8.4000000000000012E-003     1.5600774144752805E-011
   8.7000000000000029E-003    -6.6141571386513220E-012
   9.0000000000000011E-003    -1.6033629285372442E-011
   9.2999999999999992E-003     3.7699014049374924E-011
   9.6000000000000009E-003    -3.2629419999263831E-011
   9.8999999999999991E-003    -1.1784569847739235E-011
   1.0200000000000001E-002     7.1548433844270676E-011
   1.0500000000000002E-002    -9.1286769809961754E-011
   1.0800000000000004E-002     2.4138645943194703E-011
   1.1099999999999999E-002     1.0835521369045864E-010
   1.1400000000000000E-002    -1.9643099646859952E-010
   1.1700000000000002E-002     1.2288221828971047E-010
   1.2000000000000004E-002     1.1287527856840285E-010
   1.2300000000000002E-002    -3.4474989529797995E-010
   1.2600000000000000E-002     3.2976338326662358E-010
   1.2900000000000002E-002     2.5564429045887849E-011
   1.3200000000000000E-002    -4.9553577907701651E-010
   1.3500000000000002E-002     6.6518157648687293E-010
   1.3800000000000003E-002    -2.6413338183317592E-010
   1.4100000000000001E-002    -5.4329574172840012E-010
   1.4400000000000000E-002     1.1227667684465814E-009
   1.4700000000000001E-002    -8.5210910549804453E-010
   1.4999999999999999E-002    -2.1739653133234782E-010
   1.5300000000000001E-002     1.3991525715795206E-009
   1.5600000000000003E-002    -2.0220283225569347E-009
   1.5899999999999997E-002     1.5149378418399806E-009
   1.6199999999999999E-002     1.1590459703114675E-009
   1.6500000000000001E-002    -5.5308349011795599E-009
   1.6800000000000002E-002     5.4894071510602771E-009
   1.7100000000000004E-002     2.8533402307573397E-009
   1.7400000000000006E-002    -6.0961871106712806E-009
   1.7700000000000000E-002     4.2712020587032384E-009
   1.8000000000000002E-002    -4.0855084648683260E-008
   1.8300000000000004E-002     3.5317945901169878E-008
   1.8600000000000005E-002     2.2717381398251746E-007
   1.8900000000000000E-002    -3.2954787343442149E-007
   1.9200000000000002E-002    -8.6631536078130011E-007
   1.9500000000000003E-002     2.3395950847771019E-006
   1.9799999999999998E-002     1.0901330824708566E-005
   2.0100000000000000E-002     2.2116446416475810E-005
   2.0400000000000001E-002     3.3594038541195914E-005
   2.0700000000000003E-002     4.5152053644414991E-005
   2.0999999999999998E-002     5.8593821449903771E-005
   2.1299999999999999E-002     7.7901328040752560E-005
   2.1600000000000001E-002     1.0842665506061167E-004
   2.1900000000000003E-002     1.5812327910680324E-004
   2.2200000000000004E-002     2.3454846814274788E-004
   2.2500000000000006E-002     3.4011929528787732E-004
   2.2800000000000001E-002     4.7246133908629417E-004
   2.3100000000000002E-002     6.2225188594311476E-004
   2.3400000000000004E-002     7.8638514969497919E-004
   2.3699999999999999E-002     9.8328327294439077E-004
   2.4000000000000000E-002     1.2151449918746948E-003
   2.4300000000000002E-002     1.4286548830568790E-003
   2.4599999999999997E-002     1.5425900928676128E-003
   2.4900000000000005E-002     1.4587253099307418E-003
   2.5200000000000000E-002     1.0131852468475699E-003
   2.5499999999999995E-002    -1.8739090592134744E-005
   2.5800000000000003E-002    -1.8946577329188585E-003
   2.6099999999999998E-002    -4.9788532778620720E-003
   2.6400000000000007E-002    -9.7798733040690422E-003
   2.6700000000000002E-002    -1.6887703910470009E-002
   2.6999999999999996E-002    -2.6974156498908997E-002
   2.7300000000000005E-002    -4.0785878896713257E-002
   2.7600000000000000E-002    -5.9053890407085419E-002
   2.7900000000000008E-002    -8.2429073750972748E-002
   2.8200000000000003E-002   -0.11141714453697205     
   2.8499999999999998E-002   -0.14624740183353424     
   2.8800000000000006E-002   -0.18670406937599182     
   2.9100000000000001E-002   -0.23193053901195526     
   2.9400000000000003E-002   -0.28029122948646545     
   2.9700000000000004E-002   -0.32927551865577698     
   3.0000000000000006E-002   -0.37534600496292114     
   3.0300000000000001E-002   -0.41389906406402588     
   3.0600000000000002E-002   -0.43940439820289612     
   3.0900000000000004E-002   -0.44557696580886841     
   3.1199999999999999E-002   -0.42564004659652710     
   3.1500000000000007E-002   -0.37284660339355469     
   3.1800000000000002E-002   -0.28108483552932739     
   3.2099999999999997E-002   -0.14562611281871796     
   3.2400000000000005E-002     3.6204095929861069E-002
   3.2700000000000000E-002    0.26425087451934814     
   3.3000000000000002E-002    0.53488457202911377     
   3.3300000000000003E-002    0.84045064449310303     
   3.3599999999999998E-002     1.1690729856491089     
   3.3900000000000000E-002     1.5048736333847046     
   3.4200000000000001E-002     1.8284666538238525     
   3.4500000000000003E-002     2.1177144050598145     
   3.4799999999999998E-002     2.3492119312286377     
   3.5099999999999999E-002     2.4997489452362061     
   3.5400000000000001E-002     2.5482056140899658     
   3.5699999999999996E-002     2.4775669574737549     
   3.6000000000000004E-002     2.2766695022583008     
   3.6299999999999999E-002     1.9418065547943115     
   3.6600000000000008E-002     1.4776338338851929     
   3.6900000000000002E-002    0.89798128604888916     
   3.7199999999999997E-002    0.22572174668312073     
   3.7500000000000006E-002   -0.50845247507095337     
   3.7800000000000000E-002    -1.2671639919281006     
   3.8100000000000009E-002    -2.0087163448333740     
   3.8400000000000004E-002    -2.6900393962860107     
   3.8699999999999998E-002    -3.2693197727203369     
   3.9000000000000007E-002    -3.7092096805572510     
   3.9300000000000002E-002    -3.9795100688934326     
   3.9600000000000003E-002    -4.0596380233764648     
   3.9900000000000005E-002    -3.9403753280639648     
   4.0200000000000000E-002    -3.6247460842132568     
   4.0500000000000001E-002    -3.1281647682189941     
   4.0800000000000003E-002    -2.4775962829589844     
   4.1100000000000005E-002    -1.7095861434936523     
   4.1399999999999999E-002   -0.86852127313613892     
   4.1700000000000008E-002    -3.4137070178985596E-003
   4.2000000000000003E-002    0.83528190851211548     
   4.2299999999999997E-002     1.5987200736999512     
   4.2600000000000006E-002     2.2429935932159424     
   4.2900000000000001E-002     2.7316274642944336     
   4.3200000000000002E-002     3.0377612113952637     
   4.3500000000000004E-002     3.1456320285797119     
   4.3799999999999999E-002     3.0513985157012939     
   4.4100000000000000E-002     2.7636234760284424     
   4.4400000000000002E-002     2.3022830486297607     
   4.4700000000000004E-002     1.6971498727798462     
   4.4999999999999998E-002    0.98649996519088745     
   4.5300000000000000E-002    0.21433338522911072     
   4.5600000000000002E-002   -0.57187241315841675     
   4.5899999999999996E-002    -1.3244676589965820     
   4.6200000000000005E-002    -1.9988493919372559     
   4.6500000000000000E-002    -2.5564184188842773     
   4.6799999999999994E-002    -2.9665517807006836     
   4.7100000000000003E-002    -3.2089991569519043     
   4.7399999999999998E-002    -3.2762393951416016     
   4.7700000000000006E-002    -3.1735150814056396     
   4.8000000000000001E-002    -2.9185609817504883     
   4.8300000000000010E-002    -2.5404648780822754     
   4.8600000000000004E-002    -2.0773642063140869     
   4.8899999999999999E-002    -1.5737489461898804     
   4.9200000000000008E-002    -1.0766658782958984     
   4.9500000000000002E-002   -0.63133865594863892     
   4.9800000000000011E-002   -0.27700704336166382     
   5.0100000000000006E-002    -4.3565645813941956E-002
   5.0400000000000000E-002     5.1786337047815323E-002
   5.0700000000000009E-002     5.8284369297325611E-003
   5.1000000000000004E-002   -0.16943331062793732     
   5.1299999999999998E-002   -0.44759178161621094     
   5.1600000000000007E-002   -0.79055815935134888     
   5.1900000000000002E-002    -1.1514936685562134     
   5.2200000000000010E-002    -1.4789669513702393     
   5.2500000000000005E-002    -1.7221078872680664     
   5.2800000000000000E-002    -1.8350634574890137     
   5.3099999999999994E-002    -1.7811655998229980     
   5.3400000000000003E-002    -1.5365645885467529     
   5.3699999999999998E-002    -1.0924385786056519     
   5.4000000000000006E-002   -0.45595979690551758     
   5.4300000000000001E-002    0.35011714696884155     
   5.4599999999999996E-002     1.2900891304016113     
   5.4900000000000004E-002     2.3178791999816895     
   5.5199999999999999E-002     3.3805425167083740     
   5.5499999999999994E-002     4.4228296279907227     
   5.5800000000000002E-002     5.3908505439758301     
   5.6099999999999997E-002     6.2368345260620117     
   5.6400000000000006E-002     6.9212408065795898     
   5.6700000000000000E-002     7.4146494865417480     
   5.6999999999999995E-002     7.6995148658752441     
   5.7300000000000004E-002     7.7692885398864746     
   5.7599999999999998E-002     7.6284995079040527     
   5.7900000000000007E-002     7.2898955345153809     
   5.8200000000000002E-002     6.7734155654907227     
   5.8499999999999996E-002     6.1037597656250000     
   5.8800000000000005E-002     5.3085851669311523     
   5.9100000000000000E-002     4.4161152839660645     
   5.9400000000000008E-002     3.4545009136199951     
   5.9700000000000003E-002     2.4518010616302490     
   6.0000000000000012E-002     1.4342758655548096     
   6.0300000000000006E-002    0.42723676562309265     
   6.0600000000000001E-002   -0.54535651206970215     
   6.0900000000000010E-002    -1.4597010612487793     
   6.1200000000000004E-002    -2.2927653789520264     
   6.1500000000000013E-002    -3.0230848789215088     
   6.1800000000000008E-002    -3.6313037872314453     
   6.2100000000000002E-002    -4.1009778976440430     
   6.2399999999999997E-002    -4.4191212654113770     
   6.2700000000000006E-002    -4.5788836479187012     
   6.3000000000000000E-002    -4.5806517601013184     
   6.3300000000000009E-002    -4.4316415786743164     
   6.3600000000000004E-002    -4.1471414566040039     
   6.3899999999999998E-002    -3.7492620944976807     
   6.4199999999999993E-002    -3.2663781642913818     
   6.4500000000000002E-002    -2.7313845157623291     
   6.4800000000000010E-002    -2.1791825294494629     
   6.5100000000000005E-002    -1.6441727876663208     
   6.5400000000000000E-002    -1.1577538251876831     
   6.5700000000000008E-002   -0.74686801433563232     
   6.5999999999999989E-002   -0.43349227309226990     
   6.6299999999999998E-002   -0.23311145603656769     
   6.6600000000000006E-002   -0.15615844726562500     
   6.6900000000000001E-002   -0.20874157547950745     
   6.7199999999999996E-002   -0.39380392432212830     
   6.7500000000000004E-002   -0.71366500854492188     
   6.7800000000000013E-002    -1.1704291105270386     
   6.8099999999999994E-002    -1.7650796175003052     
   6.8400000000000002E-002    -2.4960026741027832     
   6.8700000000000011E-002    -3.3571162223815918     
   6.8999999999999992E-002    -4.3329916000366211     
   6.9300000000000000E-002    -5.3944230079650879     
   6.9600000000000009E-002    -6.4947290420532227     
   6.9900000000000004E-002    -7.5660419464111328     
   7.0199999999999999E-002    -8.5182037353515625     
   7.0500000000000007E-002    -9.2422657012939453     
   7.0800000000000016E-002    -9.6160602569580078     
   7.1099999999999997E-002    -9.5149803161621094     
   7.1400000000000005E-002    -8.8233089447021484     
   7.1700000000000000E-002    -7.4506406784057617     
   7.1999999999999995E-002    -5.3473024368286133     
   7.2300000000000003E-002    -2.5200917720794678     
   7.2600000000000012E-002    0.95880037546157837     
   7.2900000000000006E-002     4.9475107192993164     
   7.3200000000000001E-002     9.2350625991821289     
   7.3499999999999996E-002     13.550961494445801     
   7.3800000000000004E-002     17.583580017089844     
   7.4099999999999999E-002     21.003282546997070     
   7.4400000000000008E-002     23.491903305053711     
   7.4700000000000003E-002     24.771368026733398     
   7.5000000000000011E-002     24.630247116088867     
   7.5299999999999992E-002     22.950429916381836     
   7.5600000000000001E-002     19.720890045166016     
   7.5900000000000009E-002     15.045462608337402     
   7.6200000000000004E-002     9.1401166915893555     
   7.6499999999999999E-002     2.3182783126831055     
   7.6800000000000007E-002    -5.0313267707824707     
   7.7099999999999988E-002    -12.473160743713379     
   7.7399999999999997E-002    -19.557569503784180     
   7.7700000000000005E-002    -25.855415344238281     
   7.8000000000000014E-002    -30.986419677734375     
   7.8299999999999995E-002    -34.648845672607422     
   7.8600000000000003E-002    -36.634929656982422     
   7.8900000000000012E-002    -36.844028472900391     
   7.9199999999999993E-002    -35.281833648681641     
   7.9500000000000001E-002    -32.054466247558594     
   7.9800000000000010E-002    -27.357120513916016     
   8.0100000000000018E-002    -21.455659866333008     
   8.0399999999999999E-002    -14.665538787841797     
   8.0700000000000008E-002    -7.3282957077026367     
   8.1000000000000003E-002    0.20756185054779053     
   8.1299999999999997E-002     7.6071910858154297     
   8.1600000000000006E-002     14.563220977783203     
   8.1900000000000014E-002     20.808712005615234     
   8.2199999999999995E-002     26.129997253417969     
   8.2500000000000004E-002     30.367498397827148     
   8.2799999999999999E-002     33.422065734863281     
   8.3100000000000007E-002     35.249645233154297     
   8.3400000000000002E-002     35.858638763427734     
   8.3700000000000011E-002     35.311283111572266     
   8.4000000000000005E-002     33.712203979492188     
   8.4300000000000000E-002     31.201250076293945     
   8.4599999999999995E-002     27.942211151123047     
   8.4900000000000003E-002     24.112367630004883     
   8.5199999999999998E-002     19.898263931274414     
   8.5500000000000007E-002     15.483646392822266     
   8.5800000000000001E-002     11.036746025085449     
   8.6100000000000010E-002     6.7022104263305664     
   8.6399999999999991E-002     2.5977149009704590     
   8.6699999999999999E-002    -1.1849749088287354     
   8.7000000000000008E-002    -4.5847239494323730     
   8.7300000000000003E-002    -7.5740852355957031     
   8.7599999999999997E-002    -10.152117729187012     
   8.7900000000000006E-002    -12.338430404663086     
   8.8200000000000014E-002    -14.163588523864746     
   8.8499999999999995E-002    -15.665771484375000     
   8.8800000000000004E-002    -16.889862060546875     
   8.9100000000000013E-002    -17.873020172119141     
   8.9399999999999993E-002    -18.645353317260742     
   8.9700000000000002E-002    -19.222732543945312     
   9.0000000000000011E-002    -19.609067916870117     
   9.0299999999999991E-002    -19.796720504760742     
   9.0600000000000000E-002    -19.768678665161133     
   9.0900000000000009E-002    -19.502305984497070     
   9.1200000000000017E-002    -18.969745635986328     
   9.1499999999999998E-002    -18.142402648925781     
   9.1800000000000007E-002    -17.001367568969727     
   9.2100000000000001E-002    -15.538836479187012     
   9.2399999999999996E-002    -13.759663581848145     
   9.2700000000000005E-002    -11.684091567993164     
   9.3000000000000013E-002    -9.3475685119628906     
   9.3300000000000008E-002    -6.8057413101196289     
   9.3600000000000003E-002    -4.1283030509948730     
   9.3899999999999997E-002    -1.3961811065673828     
   9.4200000000000006E-002     1.3012939691543579     
   9.4500000000000001E-002     3.8752014636993408     
   9.4800000000000009E-002     6.2392725944519043     
   9.5100000000000004E-002     8.3168258666992188     
   9.5399999999999999E-002     10.042949676513672     
   9.5699999999999993E-002     11.373251914978027     
   9.6000000000000002E-002     12.285555839538574     
   9.6300000000000011E-002     12.779541015625000     
   9.6600000000000005E-002     12.875650405883789     
   9.6900000000000000E-002     12.611753463745117     
   9.7200000000000009E-002     12.043196678161621     
   9.7499999999999989E-002     11.238886833190918     
   9.7799999999999998E-002     10.274160385131836     
   9.8100000000000007E-002     9.2232103347778320     
   9.8400000000000015E-002     8.1542911529541016     
   9.8699999999999996E-002     7.1299118995666504     
   9.9000000000000005E-002     6.2033166885375977     
   9.9300000000000013E-002     5.4116411209106445     
   9.9599999999999994E-002     4.7729158401489258     
   9.9900000000000003E-002     4.2889227867126465     
  0.10020000000000001          3.9482080936431885     
  0.10049999999999999          3.7273674011230469     
  0.10080000000000000          3.5898380279541016     
  0.10110000000000001          3.4908020496368408     
  0.10140000000000000          3.3808746337890625     
  0.10170000000000000          3.2121820449829102     
  0.10200000000000001          2.9455921649932861     
  0.10230000000000002          2.5477371215820312     
  0.10260000000000000          1.9945837259292603     
  0.10290000000000001          1.2765705585479736     
  0.10320000000000000         0.40116488933563232     
  0.10350000000000001        -0.60805326700210571     
  0.10380000000000000         -1.7151498794555664     
  0.10410000000000001         -2.8744468688964844     
  0.10440000000000001         -4.0322747230529785     
  0.10470000000000000         -5.1294083595275879     
  0.10500000000000000         -6.1071839332580566     
  0.10530000000000000         -6.9115934371948242     
  0.10560000000000000         -7.5002579689025879     
  0.10590000000000001         -7.8425498008728027     
  0.10620000000000000         -7.9194545745849609     
  0.10650000000000001         -7.7276363372802734     
  0.10679999999999999         -7.2806634902954102     
  0.10710000000000000         -6.6076188087463379     
  0.10740000000000001         -5.7472052574157715     
  0.10770000000000000         -4.7476940155029297     
  0.10800000000000000         -3.6635150909423828     
  0.10830000000000001         -2.5543785095214844     
  0.10859999999999999         -1.4773571491241455     
  0.10890000000000000        -0.48522785305976868     
  0.10920000000000001         0.37441024184226990     
  0.10950000000000001          1.0634658336639404     
  0.10979999999999999          1.5536763668060303     
  0.11009999999999999          1.8318063020706177     
  0.11040000000000001          1.8967033624649048     
  0.11070000000000001          1.7601860761642456     
  0.11100000000000000          1.4467246532440186     
  0.11130000000000000         0.99479615688323975     
  0.11160000000000002         0.45291855931282043     
  0.11190000000000001        -0.12349327653646469     
  0.11220000000000001        -0.67690056562423706     
  0.11250000000000000         -1.1492303609848022     
  0.11280000000000000         -1.4864604473114014     
  0.11309999999999999         -1.6423585414886475     
  0.11340000000000001         -1.5856497287750244     
  0.11369999999999998         -1.3048228025436401     
  0.11400000000000000        -0.80370813608169556     
  0.11430000000000000        -0.10558347404003143     
  0.11460000000000002         0.74768602848052979     
  0.11489999999999999          1.6978974342346191     
  0.11520000000000001          2.6738932132720947     
  0.11550000000000001          3.6003620624542236     
  0.11580000000000000          4.4038362503051758     
  0.11609999999999999          5.0190615653991699     
  0.11640000000000002          5.3907976150512695     
  0.11670000000000001          5.4810404777526855     
  0.11700000000000001          5.2767658233642578     
  0.11730000000000000          4.7881898880004883     
  0.11760000000000000          4.0464258193969727     
  0.11789999999999999          3.1001005172729492     
  0.11820000000000001          2.0133652687072754     
  0.11850000000000001         0.86228340864181519     
  0.11880000000000000        -0.27397611737251282     
  0.11910000000000000         -1.3219377994537354     
  0.11940000000000002         -2.2174186706542969     
  0.11970000000000001         -2.9106471538543701     
  0.12000000000000001         -3.3646850585937500     
  0.12030000000000000         -3.5647790431976318     
  0.12060000000000000         -3.5166814327239990     
  0.12089999999999999         -3.2418298721313477     
  0.12119999999999999         -2.7774722576141357     
  0.12150000000000001         -2.1694111824035645     
  0.12180000000000001         -1.4727534055709839     
  0.12210000000000000        -0.74583441019058228     
  0.12239999999999999         -4.4138744473457336E-002
  0.12270000000000002         0.58286291360855103     
  0.12300000000000001          1.0939234495162964     
  0.12330000000000001          1.4594945907592773     
  0.12360000000000000          1.6591107845306396     
  0.12390000000000000          1.6891434192657471     
  0.12419999999999999          1.5569404363632202     
  0.12450000000000001          1.2820202112197876     
  0.12480000000000001         0.89226293563842773     
  0.12509999999999999         0.42217913269996643     
  0.12540000000000001         -8.6686104536056519E-002
  0.12570000000000003        -0.59424042701721191     
  0.12600000000000000         -1.0602399110794067     
  0.12630000000000002         -1.4497096538543701     
  0.12659999999999999         -1.7365118265151978     
  0.12690000000000001         -1.9009014368057251     
  0.12719999999999998         -1.9328093528747559     
  0.12750000000000000         -1.8347684144973755     
  0.12780000000000002         -1.6183838844299316     
  0.12809999999999999         -1.3050242662429810     
  0.12840000000000001        -0.92058336734771729     
  0.12869999999999998        -0.49692177772521973     
  0.12900000000000000         -6.7664511501789093E-002
  0.12930000000000003         0.33316743373870850     
  0.12959999999999999         0.67630636692047119     
  0.12990000000000002         0.93813574314117432     
  0.13019999999999998          1.1025915145874023     
  0.13050000000000000          1.1609935760498047     
  0.13080000000000003          1.1128238439559937     
  0.13109999999999999         0.96559298038482666     
  0.13140000000000002         0.73689800500869751     
  0.13169999999999998         0.44966155290603638     
  0.13200000000000001         0.12818892300128937     
  0.13229999999999997        -0.20039761066436768     
  0.13260000000000000        -0.50890338420867920     
  0.13290000000000002        -0.76919943094253540     
  0.13319999999999999        -0.95953905582427979     
  0.13350000000000001         -1.0650981664657593     
  0.13380000000000003         -1.0777665376663208     
  0.13410000000000000        -0.99395036697387695     
  0.13440000000000002        -0.81682342290878296     
  0.13469999999999999        -0.55785828828811646     
  0.13500000000000001        -0.23650033771991730     
  0.13529999999999998         0.12386545538902283     
  0.13560000000000000         0.49960079789161682     
  0.13590000000000002         0.86524266004562378     
  0.13619999999999999          1.1945372819900513     
  0.13650000000000001          1.4618448019027710     
  0.13680000000000003          1.6491332054138184     
  0.13710000000000000          1.7443295717239380     
  0.13740000000000002          1.7421921491622925     
  0.13769999999999999          1.6417632102966309     
  0.13800000000000001          1.4500323534011841     
  0.13829999999999998          1.1819702386856079     
  0.13860000000000000         0.85743767023086548     
  0.13890000000000002         0.49810877442359924     
  0.13919999999999999         0.12812420725822449     
  0.13950000000000001        -0.22912067174911499     
  0.13979999999999998        -0.55162334442138672     
  0.14010000000000000        -0.81971645355224609     
  0.14040000000000002         -1.0201702117919922     
  0.14069999999999999         -1.1438351869583130     
  0.14100000000000001         -1.1885011196136475     
  0.14130000000000004         -1.1558206081390381     
  0.14160000000000000         -1.0530822277069092     
  0.14189999999999997        -0.89253842830657959     
  0.14219999999999999        -0.68898606300354004     
  0.14250000000000002        -0.45963338017463684     
  0.14279999999999998        -0.22278296947479248     
  0.14310000000000000          2.0925207063555717E-003
  0.14339999999999997         0.19946660101413727     
  0.14369999999999999         0.35566899180412292     
  0.14400000000000002         0.45983195304870605     
  0.14429999999999998         0.50487822294235229     
  0.14460000000000001         0.48909318447113037     
  0.14490000000000003         0.41528028249740601     
  0.14520000000000000         0.29279962182044983     
  0.14550000000000002         0.13359281420707703     
  0.14579999999999999         -5.0348676741123199E-002
  0.14610000000000001        -0.24361480772495270     
  0.14640000000000003        -0.42772376537322998     
  0.14670000000000000        -0.58572173118591309     
  0.14699999999999996        -0.70611757040023804     
  0.14729999999999999        -0.78079068660736084     
  0.14760000000000001        -0.80358445644378662     
  0.14789999999999998        -0.77095288038253784     
  0.14820000000000000        -0.68444091081619263     