  -1.4999999999999999E-002     0.0000000000000000     
  -1.4700000000000000E-002     0.0000000000000000     
  -1.4400000000000000E-002     0.0000000000000000     
  -1.4100000000000000E-002     0.0000000000000000     
  -1.3800000000000000E-002     0.0000000000000000     
  -1.3500000000000000E-002     0.0000000000000000     
  -1.3200000000000000E-002     0.0000000000000000     
  -1.2899999999999998E-002     0.0000000000000000     
  -1.2600000000000000E-002     0.0000000000000000     
  -1.2299999999999998E-002     0.0000000000000000     
  -1.2000000000000000E-002     0.0000000000000000     
  -1.1699999999999999E-002     0.0000000000000000     
  -1.1399999999999999E-002     0.0000000000000000     
  -1.1099999999999999E-002     0.0000000000000000     
  -1.0799999999999999E-002     0.0000000000000000     
  -1.0499999999999999E-002     0.0000000000000000     
  -1.0199999999999999E-002     0.0000000000000000     
  -9.8999999999999991E-003     0.0000000000000000     
  -9.5999999999999992E-003     0.0000000000000000     
  -9.2999999999999992E-003     0.0000000000000000     
  -8.9999999999999993E-003     0.0000000000000000     
  -8.6999999999999994E-003     0.0000000000000000     
  -8.3999999999999995E-003     0.0000000000000000     
  -8.0999999999999996E-003     0.0000000000000000     
  -7.7999999999999988E-003     0.0000000000000000     
  -7.4999999999999997E-003     0.0000000000000000     
  -7.1999999999999998E-003     0.0000000000000000     
  -6.8999999999999981E-003     0.0000000000000000     
  -6.5999999999999982E-003     0.0000000000000000     
  -6.3000000000000000E-003     0.0000000000000000     
  -6.0000000000000001E-003     0.0000000000000000     
  -5.6999999999999985E-003     0.0000000000000000     
  -5.3999999999999986E-003     0.0000000000000000     
  -5.1000000000000004E-003     0.0000000000000000     
  -4.7999999999999987E-003     0.0000000000000000     
  -4.5000000000000005E-003     0.0000000000000000     
  -4.1999999999999989E-003     0.0000000000000000     
  -3.8999999999999990E-003     0.0000000000000000     
  -3.5999999999999990E-003     0.0000000000000000     
  -3.2999999999999991E-003     0.0000000000000000     
  -2.9999999999999992E-003     0.0000000000000000     
  -2.6999999999999993E-003     0.0000000000000000     
  -2.3999999999999994E-003     0.0000000000000000     
  -2.0999999999999977E-003     0.0000000000000000     
  -1.7999999999999995E-003     0.0000000000000000     
  -1.4999999999999979E-003     0.0000000000000000     
  -1.1999999999999997E-003     0.0000000000000000     
  -8.9999999999999976E-004     0.0000000000000000     
  -5.9999999999999810E-004     0.0000000000000000     
  -2.9999999999999992E-004     0.0000000000000000     
   0.0000000000000000          0.0000000000000000     
   3.0000000000000165E-004     0.0000000000000000     
   5.9999999999999984E-004     0.0000000000000000     
   9.0000000000000149E-004     0.0000000000000000     
   1.2000000000000031E-003     0.0000000000000000     
   1.5000000000000013E-003     0.0000000000000000     
   1.8000000000000030E-003     0.0000000000000000     
   2.1000000000000012E-003     0.0000000000000000     
   2.3999999999999994E-003     0.0000000000000000     
   2.7000000000000010E-003     0.0000000000000000     
   2.9999999999999992E-003     0.0000000000000000     
   3.3000000000000008E-003     0.0000000000000000     
   3.6000000000000025E-003     0.0000000000000000     
   3.9000000000000007E-003     0.0000000000000000     
   4.2000000000000023E-003     0.0000000000000000     
   4.5000000000000005E-003     0.0000000000000000     
   4.7999999999999987E-003    -9.4307845574307255E-038
   5.1000000000000004E-003    -1.3770215850017139E-036
   5.4000000000000020E-003    -1.0852524785402528E-035
   5.7000000000000037E-003     4.4061397556559805E-035
   5.9999999999999984E-003    -9.2750815919814518E-035
   6.3000000000000000E-003     5.6022149103240079E-034
   6.6000000000000017E-003    -9.4143880637204695E-034
   6.9000000000000034E-003     1.6084835178142507E-033
   7.2000000000000015E-003    -1.2432754729170601E-033
   7.5000000000000032E-003    -2.0450003527300759E-033
   7.8000000000000014E-003     7.0867631651317715E-033
   8.0999999999999996E-003    -7.5273765562943185E-033
   8.4000000000000012E-003    -2.7312946778572720E-033
   8.7000000000000029E-003     1.9072636578823122E-032
   9.0000000000000011E-003    -2.5179301499779671E-032
   9.2999999999999992E-003     9.8792368018419645E-033
   9.6000000000000009E-003     2.9970965560328710E-032
   9.8999999999999991E-003    -1.8241224572265661E-031
   1.0200000000000001E-002     5.9322364903976801E-031
   1.0500000000000002E-002    -6.5435534181978932E-031
   1.0800000000000004E-002    -1.9583618234981985E-030
   1.1099999999999999E-002     8.7375422363309968E-030
   1.1400000000000000E-002    -1.1381140435167103E-029
   1.1700000000000002E-002    -1.4626724439160621E-029
   1.2000000000000004E-002     8.4025875693808908E-029
   1.2300000000000002E-002    -1.2213083903976196E-028
   1.2600000000000000E-002    -7.9678644073556518E-029
   1.2900000000000002E-002     6.3469097398717278E-028
   1.3200000000000000E-002    -9.8924725241135175E-028
   1.3500000000000002E-002    -2.8820684104330704E-028
   1.3800000000000003E-002     3.9443466932413729E-027
   1.4100000000000001E-002    -6.5761725190365959E-027
   1.4400000000000000E-002    -3.0679312723757459E-028
   1.4700000000000001E-002     2.0894797995794025E-026
   1.4999999999999999E-002    -3.6728916448672191E-026
   1.5300000000000001E-002     4.6200744701773954E-027
   1.5600000000000003E-002     9.4882933578087711E-026
   1.5899999999999997E-002    -1.7568293656496279E-025
   1.6199999999999999E-002     4.8018278739595233E-026
   1.6500000000000001E-002     3.6773564568724551E-025
   1.6800000000000002E-002    -7.2769526805532567E-025
   1.7100000000000004E-002     3.1752884094864169E-025
   1.7400000000000006E-002     1.1659254893460138E-024
   1.7700000000000000E-002    -2.6334622308980488E-024
   1.8000000000000002E-002     1.8070448653034283E-024
   1.8300000000000004E-002     2.6571106117161024E-024
   1.8600000000000005E-002    -8.5390578654208757E-024
   1.8900000000000000E-002     9.5484410011212671E-024
   1.9200000000000002E-002     1.6829606942281069E-024
   1.9500000000000003E-002    -2.6418903007675526E-023
   1.9799999999999998E-002     4.7373043589326277E-023
   2.0100000000000000E-002    -2.1112951149414117E-023
   2.0400000000000001E-002    -8.8670626615391999E-023
   2.0700000000000003E-002     2.1425620715281986E-022
   2.0999999999999998E-002    -1.2370099991935140E-022
   2.1299999999999999E-002    -3.6808269775788167E-022
   2.1600000000000001E-002     8.8534941739205635E-022
   2.1900000000000003E-002    -3.3636894033853213E-022
   2.2200000000000004E-002    -1.8274473076036648E-021
   2.2500000000000006E-002     3.3343040557121668E-021
   2.2800000000000001E-002     1.9950505967997560E-022
   2.3100000000000002E-002    -6.2372980860240080E-021
   2.3400000000000004E-002    -3.5689610326922387E-021
   2.3699999999999999E-002     2.6615800325678265E-020
   2.4000000000000000E-002     7.6733069445218012E-020
   2.4300000000000002E-002    -5.3098646962872703E-019
   2.4599999999999997E-002     6.9956187689773399E-019
   2.4900000000000005E-002     2.5017557638628080E-018
   2.5200000000000000E-002    -1.1612466662662654E-017
   2.5499999999999995E-002     1.2597629162768812E-017
   2.5800000000000003E-002     4.0063623823723284E-017
   2.6099999999999998E-002    -1.6651665028950979E-016
   2.6400000000000007E-002     1.7987510761731581E-016
   2.6700000000000002E-002     3.9078761545413166E-016
   2.6999999999999996E-002    -1.7005346527672893E-015
   2.7300000000000005E-002     2.2933194922384583E-015
   2.7600000000000000E-002     1.2310235545229610E-015
   2.7900000000000008E-002    -1.1762216586078565E-014
   2.8200000000000003E-002     2.6958999926875128E-014
   2.8499999999999998E-002    -2.9288433090716043E-014
   2.8800000000000006E-002    -3.7758289245219022E-014
   2.9100000000000001E-002     2.6694165961356640E-013
   2.9400000000000003E-002    -5.9900258130814967E-013
   2.9700000000000004E-002     3.6732848557532737E-013
   3.0000000000000006E-002     1.8899971219504147E-012
   3.0300000000000001E-002    -6.9475564004682980E-012
   3.0600000000000002E-002     9.7597235133714513E-012
   3.0900000000000004E-002     8.9502241752090858E-012
   3.1199999999999999E-002    -7.3872154892528826E-011
   3.1500000000000007E-002     1.2957186704960791E-010
   3.1800000000000002E-002     9.2145526502391766E-011
   3.2099999999999997E-002    -7.8921234401987991E-010
   3.2400000000000005E-002     9.0521823251083238E-010
   3.2700000000000000E-002     1.9580012599585346E-009
   3.3000000000000002E-002    -5.9330980766051989E-009
   3.3300000000000003E-002    -6.7719831499972469E-010
   3.3599999999999998E-002     1.9290235710151432E-008
   3.3900000000000000E-002    -1.3836321964374346E-008
   3.4200000000000001E-002    -4.6350427667481076E-008
   3.4500000000000003E-002     4.8176256312135317E-008
   3.4799999999999998E-002     1.6471541935937566E-007
   3.5099999999999999E-002     9.2234668556347966E-007
   3.5400000000000001E-002     4.9860488843010593E-006
   3.5699999999999996E-002     1.4728809088850671E-005
   3.6000000000000004E-002     2.7647327622489903E-005
   3.6299999999999999E-002     3.8076514436973766E-005
   3.6600000000000008E-002     4.6021442680968094E-005
   3.6900000000000002E-002     5.9968102675844693E-005
   3.7199999999999997E-002     8.9160447362783557E-005
   3.7500000000000006E-002     1.3951494951620815E-004
   3.7800000000000000E-002     2.1610933903121838E-004
   3.8100000000000009E-002     3.2256816787505291E-004
   3.8400000000000004E-002     4.6429952692288168E-004
   3.8699999999999998E-002     6.5515493600947633E-004
   3.9000000000000007E-002     9.1163100802877858E-004
   3.9300000000000002E-002     1.2474207611925109E-003
   3.9600000000000003E-002     1.6762404985138923E-003
   3.9900000000000005E-002     2.2021534878387261E-003
   4.0200000000000000E-002     2.8179589955418111E-003
   4.0500000000000001E-002     3.5222709223396431E-003
   4.0800000000000003E-002     4.3025331745506490E-003
   4.1100000000000005E-002     5.1001738215645381E-003
   4.1399999999999999E-002     5.8188963493170098E-003
   4.1700000000000008E-002     6.3336408145072132E-003
   4.2000000000000003E-002     6.4692455534351156E-003
   4.2299999999999997E-002     5.9927129720981631E-003
   4.2600000000000006E-002     4.6110012294768576E-003
   4.2900000000000001E-002     1.9684320065079808E-003
   4.3200000000000002E-002    -2.3375051779046391E-003
   4.3500000000000004E-002    -8.7295358193629265E-003
   4.3799999999999999E-002    -1.7625126987599937E-002
   4.4100000000000000E-002    -2.9419042749229629E-002
   4.4400000000000002E-002    -4.4456535722536161E-002
   4.4700000000000004E-002    -6.2945665755407720E-002
   4.4999999999999998E-002    -8.4897559100913345E-002
   4.5300000000000000E-002   -0.11013134778493638     
   4.5600000000000002E-002   -0.13823900166359415     
   4.5899999999999996E-002   -0.16856244148941801     
   4.6200000000000005E-002   -0.20022569692088066     
   4.6500000000000000E-002   -0.23215398999090819     
   4.6799999999999994E-002   -0.26314939651721669     
   4.7100000000000003E-002   -0.29200728384306007     
   4.7399999999999998E-002   -0.31755501484463089     
   4.7700000000000006E-002   -0.33876970100803128     
   4.8000000000000001E-002   -0.35488686079673748     
   4.8300000000000010E-002   -0.36543123185134618     
   4.8600000000000004E-002   -0.37017159674994993     
   4.8899999999999999E-002   -0.36916928619607603     
   4.9200000000000008E-002   -0.36259024063496170     
   4.9500000000000002E-002   -0.35057897403907923     
   4.9800000000000011E-002   -0.33322749459713563     
   5.0100000000000006E-002   -0.31025355474525007     
   5.0400000000000000E-002   -0.28102965768087351     
   5.0700000000000009E-002   -0.24442703066240146     
   5.1000000000000004E-002   -0.19895318123679928     
   5.1299999999999998E-002   -0.14278767979643980     
   5.1600000000000007E-002    -7.4116043072828930E-002
   5.1900000000000002E-002     8.6314517924570566E-003
   5.2200000000000010E-002    0.10638134954976297     
   5.2500000000000005E-002    0.21911141881017326     
   5.2800000000000000E-002    0.34548483386728268     
   5.3099999999999994E-002    0.48274294978886267     
   5.3400000000000003E-002    0.62653160002090225     
   5.3699999999999998E-002    0.77111325303902234     
   5.4000000000000006E-002    0.90954268038891328     
   5.4300000000000001E-002     1.0342829889587932     
   5.4599999999999996E-002     1.1374967655293773     
   5.4900000000000004E-002     1.2119573688984602     
   5.5199999999999999E-002     1.2513695499103648     
   5.5499999999999994E-002     1.2512903463574929     
   5.5800000000000002E-002     1.2091805133826057     
   5.6099999999999997E-002     1.1251128731238609     
   5.6400000000000006E-002     1.0015034835937229     
   5.6700000000000000E-002    0.84336898714169095     
   5.6999999999999995E-002    0.65791201521950526     
   5.7300000000000004E-002    0.45410634001704864     
   5.7599999999999998E-002    0.24229880506428358     
   5.7900000000000007E-002     3.3502735761426261E-002
   5.8200000000000002E-002   -0.16111245921881867     
   5.8499999999999996E-002   -0.33089746783194540     
   5.8800000000000005E-002   -0.46638303196879605     
   5.9100000000000000E-002   -0.55987330799151458     
   5.9400000000000008E-002   -0.60584153909375260     
   5.9700000000000003E-002   -0.60144577313672087     
   6.0000000000000012E-002   -0.54670820237525319     
   6.0300000000000006E-002   -0.44480599763797812     
   6.0600000000000001E-002   -0.30194058622982922     
   6.0900000000000010E-002   -0.12727561883080707     
   6.1200000000000004E-002     6.7868529958303281E-002
   6.1500000000000013E-002    0.26985309244843947     
   6.1800000000000008E-002    0.46433561111056898     
   6.2100000000000002E-002    0.63663561061106400     
   6.2399999999999997E-002    0.77292987146147851     
   6.2700000000000006E-002    0.86128087372999218     
   6.3000000000000000E-002    0.89241721517597838     
   6.3300000000000009E-002    0.86046021539622330     
   6.3600000000000004E-002    0.76372746927572166     
   6.3899999999999998E-002    0.60444005690694524     
   6.4199999999999993E-002    0.38923009706230616     
   6.4500000000000002E-002    0.12783785820546645     
   6.4800000000000010E-002   -0.16652349208901551     
   6.5100000000000005E-002   -0.47918280739901276     
   6.5400000000000000E-002   -0.79425438040842788     
   6.5700000000000008E-002    -1.0961898660178342     
   6.5999999999999989E-002    -1.3705442687874339     
   6.6299999999999998E-002    -1.6048549749639704     
   6.6600000000000006E-002    -1.7894364917342571     
   6.6900000000000001E-002    -1.9174373530433968     
   6.7199999999999996E-002    -1.9852234516155818     
   6.7500000000000004E-002    -1.9919151061265765     
   6.7800000000000013E-002    -1.9395140227379599     
   6.8099999999999994E-002    -1.8320832809991998     
   6.8400000000000002E-002    -1.6757194639034267     
   6.8700000000000011E-002    -1.4778454533161280     
   6.8999999999999992E-002    -1.2470197406280192     
   6.9300000000000000E-002   -0.99270311245778231     
   6.9600000000000009E-002   -0.72504449324728881     
   6.9900000000000004E-002   -0.45475175562900461     
   7.0199999999999999E-002   -0.19283822700831532     
   7.0500000000000007E-002     4.9745359913978326E-002
   7.0800000000000016E-002    0.26209764354114817     
   7.1099999999999997E-002    0.43460583277112264     
   7.1400000000000005E-002    0.55881370842510236     
   7.1700000000000000E-002    0.62885715351530180     
   7.1999999999999995E-002    0.64155068993968811     
   7.2300000000000003E-002    0.59743103999294433     
   7.2600000000000012E-002    0.50063540026522624     
   7.2900000000000006E-002    0.35949122965324420     
   7.3200000000000001E-002    0.18548256265693031     
   7.3499999999999996E-002    -6.7574873288163140E-003
   7.3800000000000004E-002   -0.20106600168149225     
   7.4099999999999999E-002   -0.38068083691501076     
   7.4400000000000008E-002   -0.52995590836476936     
   7.4700000000000003E-002   -0.63554167494012859     
   7.5000000000000011E-002   -0.68785181098158432     
   7.5299999999999992E-002   -0.68156891851471002     
   7.5600000000000001E-002   -0.61629998704506406     
   7.5900000000000009E-002   -0.49651657454725928     
   7.6200000000000004E-002   -0.33103733610071728     
   7.6499999999999999E-002   -0.13185678130286638     
   7.6800000000000007E-002     8.7114331572313297E-002
   7.7099999999999988E-002    0.31126719357772004     
   7.7399999999999997E-002    0.52691997823135228     
   7.7700000000000005E-002    0.72258587087027415     
   7.8000000000000014E-002    0.88981876873315358     
   7.8299999999999995E-002     1.0237514511193915     
   7.8600000000000003E-002     1.1234276702622310     
   7.8900000000000012E-002     1.1910870875338233     
   7.9199999999999993E-002     1.2320734681863073     
   7.9500000000000001E-002     1.2532385263289711     
   7.9800000000000010E-002     1.2625604561808643     
   8.0100000000000018E-002     1.2677351075954562     
   8.0399999999999999E-002     1.2754302300991682     
   8.0700000000000008E-002     1.2904808372050454     
   8.1000000000000003E-002     1.3153816902561601     
   8.1299999999999997E-002     1.3505588614637318     
   8.1600000000000006E-002     1.3937376089962896     
   8.1900000000000014E-002     1.4409530972452274     
   8.2199999999999995E-002     1.4863423759072489     
   8.2500000000000004E-002     1.5230166206060858     
   8.2799999999999999E-002     1.5438073464450355     
   8.3100000000000007E-002     1.5412085640830995     
   8.3400000000000002E-002     1.5084385395713653     
   8.3700000000000011E-002     1.4394649136647359     
   8.4000000000000005E-002     1.3298667380308444     
   8.4300000000000000E-002     1.1766564805618103     
   8.4599999999999995E-002    0.97920547744048392     
   8.4900000000000003E-002    0.73909397135967581     
   8.5199999999999998E-002    0.46043425679784811     
   8.5500000000000007E-002    0.15037894232435023     
   8.5800000000000001E-002   -0.18143913699159064     
   8.6100000000000010E-002   -0.52272347221980553     
   8.6399999999999991E-002   -0.85897308359376812     
   8.6699999999999999E-002    -1.1745679162970522     
   8.7000000000000008E-002    -1.4531812293831781     
   8.7300000000000003E-002    -1.6793807666507412     
   8.7599999999999997E-002    -1.8396731233824184     
   8.7900000000000006E-002    -1.9240841853440074     
   8.8200000000000014E-002    -1.9269016751538288     
   8.8499999999999995E-002    -1.8481842001983537     
   8.8800000000000004E-002    -1.6938545761605184     
   8.9100000000000013E-002    -1.4756131965275756     
   8.9399999999999993E-002    -1.2107770655301451     
   8.9700000000000002E-002   -0.92058993637277098     
   9.0000000000000011E-002   -0.62912763122476356     
   9.0299999999999991E-002   -0.36071697070139219     
   9.0600000000000000E-002   -0.13811660757544497     
   9.0900000000000009E-002     1.9456621988956257E-002
   9.1200000000000017E-002     9.8918659244114249E-002
   9.1499999999999998E-002     9.3907148449243305E-002
   9.1800000000000007E-002     6.1588137329637860E-003
   9.2100000000000001E-002   -0.15518596194905943     
   9.2399999999999996E-002   -0.37320232525160613     
   9.2700000000000005E-002   -0.62595510811660660     
   9.3000000000000013E-002   -0.88698761560852546     
   9.3300000000000008E-002    -1.1289999625320286     
   9.3600000000000003E-002    -1.3251743142544949     
   9.3899999999999997E-002    -1.4520423673646832     
   9.4200000000000006E-002    -1.4913250021359694     
   9.4500000000000001E-002    -1.4308656894764766     
   9.4800000000000009E-002    -1.2664576643858503     
   9.5100000000000004E-002    -1.0005367207413158     
   9.5399999999999999E-002   -0.64310021252619443     
   9.5699999999999993E-002   -0.20945189595451463     
   9.6000000000000002E-002    0.27998769726536565     
   9.6300000000000011E-002    0.80242069171896446     
   9.6600000000000005E-002     1.3331429412613822     
   9.6900000000000000E-002     1.8477384529100682     
   9.7200000000000009E-002     2.3227378446971332     
   9.7499999999999989E-002     2.7366849982599835     
   9.7799999999999998E-002     3.0709265301687481     
   9.8100000000000007E-002     3.3096089107653412     
   9.8400000000000015E-002     3.4401775072862861     
   9.8699999999999996E-002     3.4537438556147890     
   9.9000000000000005E-002     3.3446597016573065     
   9.9300000000000013E-002     3.1114066397761633     
   9.9599999999999994E-002     2.7562470782768855     
   9.9900000000000003E-002     2.2859851329137726     
  0.10020000000000001          1.7116180770770910     
  0.10049999999999999          1.0489203220836103     
  0.10080000000000000         0.31775038293622870     
  0.10110000000000001        -0.45818658297321235     
  0.10140000000000000         -1.2524544274809344     
  0.10170000000000000         -2.0365839893365845     
  0.10200000000000001         -2.7816370208323562     
  0.10230000000000002         -3.4597128552466225     
  0.10260000000000000         -4.0453987986773363     
  0.10290000000000001         -4.5168854761866868     
  0.10320000000000000         -4.8572516236313561     
  0.10350000000000001         -5.0551796776875761     
  0.10380000000000000         -5.1053409148228752     
  0.10410000000000001         -5.0086217119741434     
  0.10440000000000001         -4.7711443867608807     
  0.10470000000000000         -4.4049460163222420     
  0.10500000000000000         -3.9253318586808632     
  0.10530000000000000         -3.3517255707152458     
  0.10560000000000000         -2.7052349426759150     
  0.10590000000000001         -2.0082684213138862     
  0.10620000000000000         -1.2833427700594697     
  0.10650000000000001        -0.55229703084455650     
  0.10679999999999999         0.16478470582030624     
  0.10710000000000000         0.84983676055759361     
  0.10740000000000001          1.4874363953398273     
  0.10770000000000000          2.0646623487971603     
  0.10800000000000000          2.5720514712236948     
  0.10830000000000001          3.0020924267311031     
  0.10859999999999999          3.3503366252687385     
  0.10890000000000000          3.6138499130733095     
  0.10920000000000001          3.7921667613035481     
  0.10950000000000001          3.8859375130231797     
  0.10979999999999999          3.8970585795302100     
  0.11009999999999999          3.8287180108427776     
  0.11040000000000001          3.6853393958064657     
  0.11070000000000001          3.4722426108958473     
  0.11100000000000000          3.1968945673327767     
  0.11130000000000000          2.8677843474512912     
  0.11160000000000002          2.4956844432572183     
  0.11190000000000001          2.0922806488255361     
  0.11220000000000001          1.6715056583651275     
  0.11250000000000000          1.2470273096349729     
  0.11280000000000000         0.83336680770031180     
  0.11309999999999999         0.44339889267675758     
  0.11340000000000001          8.8296495268737507E-002
  0.11369999999999998        -0.22346820766565934     
  0.11400000000000000        -0.48769035305488018     
  0.11430000000000000        -0.70348824189387571     
  0.11460000000000002        -0.87516879792584579     
  0.11489999999999999         -1.0094700232287508     
  0.11520000000000001         -1.1176810000165602     
  0.11550000000000001         -1.2116878507614679     
  0.11580000000000000         -1.3047374073697995     
  0.11609999999999999         -1.4083462639790305     
  0.11640000000000002         -1.5325823212834706     
  0.11670000000000001         -1.6829781464035989     
  0.11700000000000001         -1.8614855753964932     
  0.11730000000000000         -2.0649898628391696     
  0.11760000000000000         -2.2859900074910087     
  0.11789999999999999         -2.5129652614326474     
  0.11820000000000001         -2.7311736789546899     
  0.11850000000000001         -2.9243131083613036     
  0.11880000000000000         -3.0758378824380088     
  0.11910000000000000         -3.1703127863349465     
  0.11940000000000002         -3.1948522469799059     
  0.11970000000000001         -3.1403331452633125     
  0.12000000000000001         -3.0019229983353739     
  0.12030000000000000         -2.7797110850793985     
  0.12060000000000000         -2.4783308708764764     
  0.12089999999999999         -2.1073859265294175     
  0.12119999999999999         -1.6793857247013335     
  0.12150000000000001         -1.2102158506087619     
  0.12180000000000001        -0.71638846721178950     
  0.12210000000000000        -0.21575378321379812     
  0.12239999999999999         0.27596650394482580     
  0.12270000000000002         0.74383700221087423     
  0.12300000000000001          1.1764771411024864     
  0.12330000000000001          1.5654226155947368     
  0.12360000000000000          1.9048985410269985     
  0.12390000000000000          2.1937816795166398     
  0.12419999999999999          2.4324152859752530     
  0.12450000000000001          2.6251739002816450     
  0.12480000000000001          2.7762450043957756     
  0.12509999999999999          2.8925581720627633     
  0.12540000000000001          2.9798809756803024     
  0.12570000000000003          3.0443904199644010     
  0.12600000000000000          3.0910573678303166     
  0.12630000000000002          3.1240551484926442     
  0.12659999999999999          3.1458738710176988     
  0.12690000000000001          3.1581482712350493     
  0.12719999999999998          3.1619260272458547     
  0.12750000000000000          3.1572829876227075     
  0.12780000000000002          3.1441018959210254     
  0.12809999999999999          3.1221740910136333     
  0.12840000000000001          3.0910473102074008     
  0.12869999999999998          3.0498124984639361     
  0.12900000000000000          2.9976783491713093     
  0.12930000000000003          2.9311929518410551     
  0.12959999999999999          2.8473631306304270     
  0.12990000000000002          2.7383229523845358     
  0.13019999999999998          2.5961658298920867     
  0.13050000000000000          2.4089099624509345     
  0.13080000000000003          2.1637424076224505     
  0.13109999999999999          1.8477783901748168     
  0.13140000000000002          1.4482727388929746     
  0.13169999999999998         0.95837753807705717     
  0.13200000000000001         0.37544905759141756     
  0.13229999999999997        -0.29104352083873053     
  0.13260000000000000         -1.0227069753749021     
  0.13290000000000002         -1.7858742753092045     
  0.13319999999999999         -2.5356162341012123     
  0.13350000000000001         -3.2153294333544551     
  0.13380000000000003         -3.7605476680867174     
  0.13410000000000000         -4.1071582620415121     
  0.13440000000000002         -4.1937604075871491     
  0.13469999999999999         -3.9758954153211192     
  0.13500000000000001         -3.4286401792794834     
  0.13529999999999998         -2.5584402762122878     
  0.13560000000000000         -1.4050991700649686     
  0.13590000000000002         -4.5353057817159481E-002
  0.13619999999999999          1.4093744391124829     
  0.13650000000000001          2.8203133883536111     
  0.13680000000000003          4.0301145104102432     
  0.13710000000000000          4.8787648794977088     
  0.13740000000000002          5.2194001969054256     
  0.13769999999999999          4.9339634206695990     
  0.13800000000000001          3.9517585380422560     
  0.13829999999999998          2.2591552936482904     
  0.13860000000000000         -9.1074329510121288E-002
  0.13890000000000002         -2.9784800013661368     
  0.13919999999999999         -6.2215971917604804     
  0.13950000000000001         -9.5879570446328444     
  0.13979999999999998         -12.815173397834940     
  0.14010000000000000         -15.629298530201623     
  0.14040000000000002         -17.773504175033310     
  0.14069999999999999         -19.027265752467180     
  0.14100000000000001         -19.231665853075484     
  0.14130000000000004         -18.301913880463616     
  0.14160000000000000         -16.238494866699170     
  0.14189999999999997         -13.127625350626147     
  0.14219999999999999         -9.1353010083379331     
  0.14250000000000002         -4.4939780559353597     
  0.14279999999999998         0.51683881767354478     
  0.14310000000000000          5.5916336963686035     
  0.14339999999999997          10.424152764255155     
  0.14369999999999999          14.729080377724586     
  0.14400000000000002          18.261461626231949     
  0.14429999999999998          20.833495854789589     
  0.14460000000000001          22.321704767448523     
  0.14490000000000003          22.673423640695844     
  0.14520000000000000          21.903495419846934     
  0.14550000000000002          20.088780048253000     
  0.14579999999999999          17.359448495369236     
  0.14610000000000001          13.885166145750873     
  0.14640000000000003          9.8641249770720378     
  0.14670000000000000          5.5096857258448608     
  0.14699999999999996          1.0375138119294149     
  0.14729999999999999         -3.3421196473822476     
  0.14760000000000001         -7.4372903142183873     
  0.14789999999999998         -11.075692409650799     
  0.14820000000000000         -14.116624403999765     