  -1.4999999999999999E-002     0.0000000000000000     
  -1.4700000000000000E-002     0.0000000000000000     
  -1.4400000000000000E-002     0.0000000000000000     
  -1.4100000000000000E-002     0.0000000000000000     
  -1.3800000000000000E-002     0.0000000000000000     
  -1.3500000000000000E-002     0.0000000000000000     
  -1.3200000000000000E-002     0.0000000000000000     
  -1.2899999999999998E-002     0.0000000000000000     
  -1.2600000000000000E-002     0.0000000000000000     
  -1.2299999999999998E-002     0.0000000000000000     
  -1.2000000000000000E-002     0.0000000000000000     
  -1.1699999999999999E-002     0.0000000000000000     
  -1.1399999999999999E-002     0.0000000000000000     
  -1.1099999999999999E-002     0.0000000000000000     
  -1.0799999999999999E-002     0.0000000000000000     
  -1.0499999999999999E-002     0.0000000000000000     
  -1.0199999999999999E-002     0.0000000000000000     
  -9.8999999999999991E-003     0.0000000000000000     
  -9.5999999999999992E-003     0.0000000000000000     
  -9.2999999999999992E-003     0.0000000000000000     
  -8.9999999999999993E-003     0.0000000000000000     
  -8.6999999999999994E-003     0.0000000000000000     
  -8.3999999999999995E-003     0.0000000000000000     
  -8.0999999999999996E-003     0.0000000000000000     
  -7.7999999999999988E-003     0.0000000000000000     
  -7.4999999999999997E-003     0.0000000000000000     
  -7.1999999999999998E-003     0.0000000000000000     
  -6.8999999999999981E-003     0.0000000000000000     
  -6.5999999999999982E-003     0.0000000000000000     
  -6.3000000000000000E-003     0.0000000000000000     
  -6.0000000000000001E-003     0.0000000000000000     
  -5.6999999999999985E-003     0.0000000000000000     
  -5.3999999999999986E-003     0.0000000000000000     
  -5.1000000000000004E-003     0.0000000000000000     
  -4.7999999999999987E-003     0.0000000000000000     
  -4.5000000000000005E-003     0.0000000000000000     
  -4.1999999999999989E-003     0.0000000000000000     
  -3.8999999999999990E-003     0.0000000000000000     
  -3.5999999999999990E-003     0.0000000000000000     
  -3.2999999999999991E-003     0.0000000000000000     
  -2.9999999999999992E-003     0.0000000000000000     
  -2.6999999999999993E-003     0.0000000000000000     
  -2.3999999999999994E-003     0.0000000000000000     
  -2.0999999999999977E-003     0.0000000000000000     
  -1.7999999999999995E-003     0.0000000000000000     
  -1.4999999999999979E-003     0.0000000000000000     
  -1.1999999999999997E-003     0.0000000000000000     
  -8.9999999999999976E-004     0.0000000000000000     
  -5.9999999999999810E-004     0.0000000000000000     
  -2.9999999999999992E-004     0.0000000000000000     
   0.0000000000000000          0.0000000000000000     
   3.0000000000000165E-004     0.0000000000000000     
   5.9999999999999984E-004     0.0000000000000000     
   9.0000000000000149E-004     0.0000000000000000     
   1.2000000000000031E-003     0.0000000000000000     
   1.5000000000000013E-003     0.0000000000000000     
   1.8000000000000030E-003     0.0000000000000000     
   2.1000000000000012E-003     0.0000000000000000     
   2.3999999999999994E-003     0.0000000000000000     
   2.7000000000000010E-003     0.0000000000000000     
   2.9999999999999992E-003     0.0000000000000000     
   3.3000000000000008E-003     0.0000000000000000     
   3.6000000000000025E-003     0.0000000000000000     
   3.9000000000000007E-003     0.0000000000000000     
   4.2000000000000023E-003     0.0000000000000000     
   4.5000000000000005E-003     0.0000000000000000     
   4.7999999999999987E-003     0.0000000000000000     
   5.1000000000000004E-003     0.0000000000000000     
   5.4000000000000020E-003     0.0000000000000000     
   5.7000000000000037E-003     0.0000000000000000     
   5.9999999999999984E-003     0.0000000000000000     
   6.3000000000000000E-003     0.0000000000000000     
   6.6000000000000017E-003     0.0000000000000000     
   6.9000000000000034E-003     0.0000000000000000     
   7.2000000000000015E-003     0.0000000000000000     
   7.5000000000000032E-003     0.0000000000000000     
   7.8000000000000014E-003     0.0000000000000000     
   8.0999999999999996E-003     0.0000000000000000     
   8.4000000000000012E-003     0.0000000000000000     
   8.7000000000000029E-003     0.0000000000000000     
   9.0000000000000011E-003     0.0000000000000000     
   9.2999999999999992E-003     0.0000000000000000     
   9.6000000000000009E-003     0.0000000000000000     
   9.8999999999999991E-003     0.0000000000000000     
   1.0200000000000001E-002     0.0000000000000000     
   1.0500000000000002E-002     0.0000000000000000     
   1.0800000000000004E-002     0.0000000000000000     
   1.1099999999999999E-002     0.0000000000000000     
   1.1400000000000000E-002     0.0000000000000000     
   1.1700000000000002E-002     0.0000000000000000     
   1.2000000000000004E-002     0.0000000000000000     
   1.2300000000000002E-002     0.0000000000000000     
   1.2600000000000000E-002     0.0000000000000000     
   1.2900000000000002E-002     0.0000000000000000     
   1.3200000000000000E-002     0.0000000000000000     
   1.3500000000000002E-002     0.0000000000000000     
   1.3800000000000003E-002     0.0000000000000000     
   1.4100000000000001E-002     0.0000000000000000     
   1.4400000000000000E-002     0.0000000000000000     
   1.4700000000000001E-002     0.0000000000000000     
   1.4999999999999999E-002     0.0000000000000000     
   1.5300000000000001E-002     0.0000000000000000     
   1.5600000000000003E-002     0.0000000000000000     
   1.5899999999999997E-002     0.0000000000000000     
   1.6199999999999999E-002     0.0000000000000000     
   1.6500000000000001E-002     0.0000000000000000     
   1.6800000000000002E-002     0.0000000000000000     
   1.7100000000000004E-002     0.0000000000000000     
   1.7400000000000006E-002     0.0000000000000000     
   1.7700000000000000E-002     0.0000000000000000     
   1.8000000000000002E-002     0.0000000000000000     
   1.8300000000000004E-002     0.0000000000000000     
   1.8600000000000005E-002     0.0000000000000000     
   1.8900000000000000E-002     0.0000000000000000     
   1.9200000000000002E-002     0.0000000000000000     
   1.9500000000000003E-002     0.0000000000000000     
   1.9799999999999998E-002     0.0000000000000000     
   2.0100000000000000E-002     0.0000000000000000     
   2.0400000000000001E-002     0.0000000000000000     
   2.0700000000000003E-002     0.0000000000000000     
   2.0999999999999998E-002     0.0000000000000000     
   2.1299999999999999E-002     0.0000000000000000     
   2.1600000000000001E-002     0.0000000000000000     
   2.1900000000000003E-002     0.0000000000000000     
   2.2200000000000004E-002     0.0000000000000000     
   2.2500000000000006E-002     0.0000000000000000     
   2.2800000000000001E-002     0.0000000000000000     
   2.3100000000000002E-002     0.0000000000000000     
   2.3400000000000004E-002     0.0000000000000000     
   2.3699999999999999E-002     0.0000000000000000     
   2.4000000000000000E-002     0.0000000000000000     
   2.4300000000000002E-002     0.0000000000000000     
   2.4599999999999997E-002     0.0000000000000000     
   2.4900000000000005E-002     0.0000000000000000     
   2.5200000000000000E-002     0.0000000000000000     
   2.5499999999999995E-002     0.0000000000000000     
   2.5800000000000003E-002     0.0000000000000000     
   2.6099999999999998E-002     0.0000000000000000     
   2.6400000000000007E-002     0.0000000000000000     
   2.6700000000000002E-002     0.0000000000000000     
   2.6999999999999996E-002     0.0000000000000000     
   2.7300000000000005E-002     0.0000000000000000     
   2.7600000000000000E-002     0.0000000000000000     
   2.7900000000000008E-002     0.0000000000000000     
   2.8200000000000003E-002     0.0000000000000000     
   2.8499999999999998E-002     0.0000000000000000     
   2.8800000000000006E-002     0.0000000000000000     
   2.9100000000000001E-002     0.0000000000000000     
   2.9400000000000003E-002     0.0000000000000000     
   2.9700000000000004E-002     0.0000000000000000     
   3.0000000000000006E-002     0.0000000000000000     
   3.0300000000000001E-002     0.0000000000000000     
   3.0600000000000002E-002    -3.5566018610098280E-037
   3.0900000000000004E-002     1.1176879399767795E-035
   3.1199999999999999E-002    -1.0269579471619288E-034
   3.1500000000000007E-002     3.7056629470185878E-034
   3.1800000000000002E-002    -1.5284037536105796E-034
   3.2099999999999997E-002    -2.6228684080934965E-033
   3.2400000000000005E-002     9.7076338951226694E-033
   3.2700000000000000E-002     2.8939216250678704E-034
   3.3000000000000002E-002    -2.4428959430770433E-031
   3.3300000000000003E-002     2.0527373622556286E-030
   3.3599999999999998E-002    -1.1822898293175234E-029
   3.3900000000000000E-002     5.5267421918916892E-029
   3.4200000000000001E-002    -2.1961638153442098E-028
   3.4500000000000003E-002     7.4770046376557200E-028
   3.4799999999999998E-002    -2.1355710328619113E-027
   3.5099999999999999E-002     4.7319390651344531E-027
   3.5400000000000001E-002    -5.6461634041491782E-027
   3.5699999999999996E-002    -1.3678909978059300E-026
   3.6000000000000004E-002     1.2280575729870860E-025
   3.6299999999999999E-002    -5.0874690220977807E-025
   3.6600000000000008E-002     1.4973938044497491E-024
   3.6900000000000002E-002    -3.1147464181263369E-024
   3.7199999999999997E-002     2.9640943568945665E-024
   3.7500000000000006E-002     9.5416008101348420E-024
   3.7800000000000000E-002    -6.1157479451959461E-023
   3.8100000000000009E-002     1.8366521929807855E-022
   3.8400000000000004E-002    -3.0840723805041118E-022
   3.8699999999999998E-002    -6.8493929747904555E-023
   3.9000000000000007E-002     2.4066506030794978E-021
   3.9300000000000002E-002    -8.6440448669894889E-021
   3.9600000000000003E-002     1.5504237398067535E-020
   3.9900000000000005E-002     3.9181286972851806E-021
   4.0200000000000000E-002    -1.3031899103433500E-019
   4.0500000000000001E-002     4.8794961233974713E-019
   4.0800000000000003E-002    -1.0174922250413058E-018
   4.1100000000000005E-002     7.3449812019967871E-019
   4.1399999999999999E-002     3.5532990118189035E-018
   4.1700000000000008E-002    -1.7699831990515616E-017
   4.2000000000000003E-002     4.5698741010485325E-017
   4.2299999999999997E-002    -7.3895555951228881E-017
   4.2600000000000006E-002     3.9783815323741841E-017
   4.2900000000000001E-002     2.1698778568690103E-016
   4.3200000000000002E-002    -1.0434624028010772E-015
   4.3500000000000004E-002     3.1204043665935519E-015
   4.3799999999999999E-002    -7.1980991958508931E-015
   4.4100000000000000E-002     1.0681469660215380E-014
   4.4400000000000002E-002     6.1517198964277102E-015
   4.4700000000000004E-002    -1.0785130251647490E-013
   4.4999999999999998E-002     3.9561598941500510E-013
   4.5300000000000000E-002    -7.5052159651512810E-013
   4.5600000000000002E-002    -1.8973412053164364E-014
   4.5899999999999996E-002     5.1308562110538367E-012
   4.6200000000000005E-002    -1.6646870393033218E-011
   4.6500000000000000E-002     1.8862776391824884E-011
   4.6799999999999994E-002     4.7678539221912448E-011
   4.7100000000000003E-002    -2.4342841722107624E-010
   4.7399999999999998E-002     3.4456334611936625E-010
   4.7700000000000006E-002     5.6106347423755867E-010
   4.8000000000000001E-002    -3.1225668820496018E-009
   4.8300000000000010E-002     3.2148705334683358E-009
   4.8600000000000004E-002     1.0496579501531437E-008
   4.8899999999999999E-002    -3.2745039069566633E-008
   4.9200000000000008E-002    -8.6286116753089112E-009
   4.9500000000000002E-002     1.5994190959772132E-007
   4.9800000000000011E-002    -1.0500610877633913E-007
   5.0100000000000006E-002    -6.8410156633924210E-007
   5.0400000000000000E-002     8.9093571788305650E-007
   5.0700000000000009E-002     6.1905295531729830E-006
   5.1000000000000004E-002     1.3326461684294393E-005
   5.1299999999999998E-002     2.1429479548515373E-005
   5.1600000000000007E-002     3.1672872178754950E-005
   5.1900000000000002E-002     4.3919827495049382E-005
   5.2200000000000010E-002     6.1051698884100883E-005
   5.2500000000000005E-002     8.9980114319126352E-005
   5.2800000000000000E-002     1.3482125362758359E-004
   5.3099999999999994E-002     2.0159313963733806E-004
   5.3400000000000003E-002     3.0267390211525472E-004
   5.3699999999999998E-002     4.4763094569497813E-004
   5.4000000000000006E-002     6.4363550368116106E-004
   5.4300000000000001E-002     9.0283413814205155E-004
   5.4599999999999996E-002     1.2416005294924662E-003
   5.4900000000000004E-002     1.6797287051835350E-003
   5.5199999999999999E-002     2.2336537463528289E-003
   5.5499999999999994E-002     2.9115256465871014E-003
   5.5800000000000002E-002     3.7180154118432313E-003
   5.6099999999999997E-002     4.6441365395847589E-003
   5.6400000000000006E-002     5.6561504025110232E-003
   5.6700000000000000E-002     6.6963710424714495E-003
   5.6999999999999995E-002     7.6686491865982365E-003
   5.7300000000000004E-002     8.4316661904749735E-003
   5.7599999999999998E-002     8.7965774494826454E-003
   5.7900000000000007E-002     8.5080110487374960E-003
   5.8200000000000002E-002     7.2597911400620330E-003
   5.8499999999999996E-002     4.7173372702231098E-003
   5.8800000000000005E-002     5.0464511929958558E-004
   5.9100000000000000E-002    -5.7805589768229332E-003
   5.9400000000000008E-002    -1.4519735724719804E-002
   5.9700000000000003E-002    -2.6020634101615425E-002
   6.0000000000000012E-002    -4.0457609802021954E-002
   6.0300000000000006E-002    -5.7851926534997933E-002
   6.0600000000000001E-002    -7.8037406884310823E-002
   6.0900000000000010E-002   -0.10059158394381340     
   6.1200000000000004E-002   -0.12480425775066850     
   6.1500000000000013E-002   -0.14969666621717925     
   6.1800000000000008E-002   -0.17405541542516989     
   6.2100000000000002E-002   -0.19649921740790610     
   6.2399999999999997E-002   -0.21553420186884598     
   6.2700000000000006E-002   -0.22964593567126368     
   6.3000000000000000E-002   -0.23747894201612230     
   6.3300000000000009E-002   -0.23789939897405432     
   6.3600000000000004E-002   -0.23013150984584296     
   6.3899999999999998E-002   -0.21384859278163049     
   6.4199999999999993E-002   -0.18918967639657325     
   6.4500000000000002E-002   -0.15679023825165572     
   6.4800000000000010E-002   -0.11769988948141386     
   6.5100000000000005E-002    -7.3332351043191135E-002
   6.5400000000000000E-002    -2.5359346752233947E-002
   6.5700000000000008E-002     2.4487591797545560E-002
   6.5999999999999989E-002     7.4456170042124903E-002
   6.6299999999999998E-002    0.12292708746118208     
   6.6600000000000006E-002    0.16837687294904757     
   6.6900000000000001E-002    0.20950748308100220     
   6.7199999999999996E-002    0.24517055226253071     
   6.7500000000000004E-002    0.27432654102970133     
   6.7800000000000013E-002    0.29598320232922681     
   6.8099999999999994E-002    0.30916461336847512     
   6.8400000000000002E-002    0.31289329937872346     
   6.8700000000000011E-002    0.30625925793492748     
   6.8999999999999992E-002    0.28850486433514178     
   6.9300000000000000E-002    0.25923899894542757     
   6.9600000000000009E-002    0.21858132219726212     
   6.9900000000000004E-002    0.16739403705827716     
   7.0199999999999999E-002    0.10743032419638920     
   7.0500000000000007E-002     4.1496868963695754E-002
   7.0800000000000016E-002    -2.6647395375585248E-002
   7.1099999999999997E-002    -9.2211982916031388E-002
   7.1400000000000005E-002   -0.14997708975445345     
   7.1700000000000000E-002   -0.19433640809220876     
   7.1999999999999995E-002   -0.21997762959579870     
   7.2300000000000003E-002   -0.22235830437911908     
   7.2600000000000012E-002   -0.19819939650559082     
   7.2900000000000006E-002   -0.14592027336478886     
   7.3200000000000001E-002    -6.5996060319228889E-002
   7.3499999999999996E-002     3.9007198486675776E-002
   7.3800000000000004E-002    0.16439938107620888     
   7.4099999999999999E-002    0.30373879870551201     
   7.4400000000000008E-002    0.44924141041191401     
   7.4700000000000003E-002    0.59227251999895714     
   7.5000000000000011E-002    0.72426536244983453     
   7.5299999999999992E-002    0.83708460730430545     
   7.5600000000000001E-002    0.92389634964944278     
   7.5900000000000009E-002    0.97948439284060385     
   7.6200000000000004E-002     1.0006934296850147     
   7.6499999999999999E-002    0.98639527991458209     
   7.6800000000000007E-002    0.93760985396745511     
   7.7099999999999988E-002    0.85706028992993311     
   7.7399999999999997E-002    0.74897356023178574     
   7.7700000000000005E-002    0.61839626185718188     
   7.8000000000000014E-002    0.47095436965125259     
   7.8299999999999995E-002    0.31229095620134828     
   7.8600000000000003E-002    0.14749603741271144     
   7.8900000000000012E-002    -1.8741410466093900E-002
   7.9199999999999993E-002   -0.18262556279115416     
   7.9500000000000001E-002   -0.34116110463550875     
   7.9800000000000010E-002   -0.49200161473571846     
   8.0100000000000018E-002   -0.63342184893077125     
   8.0399999999999999E-002   -0.76411187237911804     
   8.0700000000000008E-002   -0.88284359865397732     
   8.1000000000000003E-002   -0.98851122505748279     
   8.1299999999999997E-002    -1.0799177001687603     
   8.1600000000000006E-002    -1.1556545011492929     
   8.1900000000000014E-002    -1.2143319240739245     
   8.2199999999999995E-002    -1.2544325519559365     
   8.2500000000000004E-002    -1.2745189084497497     
   8.2799999999999999E-002    -1.2735687606455031     
   8.3100000000000007E-002    -1.2506664299055004     
   8.3400000000000002E-002    -1.2055512110860036     
   8.3700000000000011E-002    -1.1387298751910251     
   8.4000000000000005E-002    -1.0512215621054466     
   8.4300000000000000E-002   -0.94490440356459615     
   8.4599999999999995E-002   -0.82229813139666774     
   8.4900000000000003E-002   -0.68649663094326385     
   8.5199999999999998E-002   -0.54114721260478049     
   8.5500000000000007E-002   -0.38994220851818184     
   8.5800000000000001E-002   -0.23670550385026878     
   8.6100000000000010E-002    -8.4831749572546578E-002
   8.6399999999999991E-002     6.2394371602931376E-002
   8.6699999999999999E-002    0.20269089465619738     
   8.7000000000000008E-002    0.33402591317889918     
   8.7300000000000003E-002    0.45537439001576896     
   8.7599999999999997E-002    0.56589305822057057     
   8.7900000000000006E-002    0.66515876384770145     
   8.8200000000000014E-002    0.75284353558866712     
   8.8499999999999995E-002    0.82819673471299993     
   8.8800000000000004E-002    0.89023852942082016     
   8.9100000000000013E-002    0.93706669476075177     
   8.9399999999999993E-002    0.96652941835077399     
   8.9700000000000002E-002    0.97565677508349680     
   9.0000000000000011E-002    0.96150516936930330     
   9.0299999999999991E-002    0.92134834240998487     
   9.0600000000000000E-002    0.85306718276084226     
   9.0900000000000009E-002    0.75600702466619651     
   9.1200000000000017E-002    0.63092904779148995     
   9.1499999999999998E-002    0.48083614128861818     
   9.1800000000000007E-002    0.31057179443723193     
   9.2100000000000001E-002    0.12709107174052647     
   9.2399999999999996E-002    -6.1331638715147019E-002
   9.2700000000000005E-002   -0.24541591514926031     
   9.3000000000000013E-002   -0.41578016006021690     
   9.3300000000000008E-002   -0.56387654388456987     
   9.3600000000000003E-002   -0.68256570049696386     
   9.3899999999999997E-002   -0.76704959767737790     
   9.4200000000000006E-002   -0.81508866472434249     
   9.4500000000000001E-002   -0.82721015564737854     
   9.4800000000000009E-002   -0.80669726659608187     
   9.5100000000000004E-002   -0.75895878180105214     
   9.5399999999999999E-002   -0.69074059369746266     
   9.5699999999999993E-002   -0.60969716997569279     
   9.6000000000000002E-002   -0.52285773696804583     
   9.6300000000000011E-002   -0.43648027197662564     
   9.6600000000000005E-002   -0.35480904251951628     
   9.6900000000000000E-002   -0.28020418288440929     
   9.7200000000000009E-002   -0.21262395497059483     
   9.7499999999999989E-002   -0.15035381367868794     
   9.7799999999999998E-002    -9.0101606979722249E-002
   9.8100000000000007E-002    -2.7898767978476235E-002
   9.8400000000000015E-002     3.9854772042587694E-002
   9.8699999999999996E-002    0.11611825648515259     
   9.9000000000000005E-002    0.20190384379194004     
   9.9300000000000013E-002    0.29659295928943585     
   9.9599999999999994E-002    0.39705466410077417     
   9.9900000000000003E-002    0.49851607050354296     
  0.10020000000000001         0.59439635690258896     
  0.10049999999999999         0.67779457425999112     
  0.10080000000000000         0.74176384141440366     
  0.10110000000000001         0.78045193562067539     
  0.10140000000000000         0.78981422975146032     
  0.10170000000000000         0.76856569156509380     
  0.10200000000000001         0.71786513193547208     
  0.10230000000000002         0.64219576268297729     
  0.10260000000000000         0.54827631473367333     
  0.10290000000000001         0.44497328201709507     
  0.10320000000000000         0.34240191542240517     
  0.10350000000000001         0.25071056559894256     
  0.10380000000000000         0.17938936919146986     
  0.10410000000000001         0.13614220976940050     
  0.10440000000000001         0.12657573225298702     
  0.10470000000000000         0.15292285412996431     
  0.10500000000000000         0.21468911561732362     
  0.10530000000000000         0.30784760814298906     
  0.10560000000000000         0.42609117322552592     
  0.10590000000000001         0.56062031756977859     
  0.10620000000000000         0.70108617975535559     
  0.10650000000000001         0.83658160881488186     
  0.10679999999999999         0.95600276514029758     
  0.10710000000000000          1.0492402098937248     
  0.10740000000000001          1.1072516386297160     
  0.10770000000000000          1.1231507588227885     
  0.10800000000000000          1.0917905266421144     
  0.10830000000000001          1.0105555038475131     
  0.10859999999999999         0.87905495981425474     
  0.10890000000000000         0.69903114557351032     
  0.10920000000000001         0.47462454133331988     
  0.10950000000000001         0.21164829652024153     
  0.10979999999999999         -8.1877894050562006E-002
  0.11009999999999999        -0.39644232484280728     
  0.11040000000000001        -0.72068719372328971     
  0.11070000000000001         -1.0423937929833968     
  0.11100000000000000         -1.3480345031429977     
  0.11130000000000000         -1.6238350480574866     
  0.11160000000000002         -1.8558771618726411     
  0.11190000000000001         -2.0313793959897311     
  0.11220000000000001         -2.1391982138009880     
  0.11250000000000000         -2.1709942462458969     
  0.11280000000000000         -2.1218848812590636     
  0.11309999999999999         -1.9913309268674624     
  0.11340000000000001         -1.7837889028723097     
  0.11369999999999998         -1.5084277457224218     
  0.11400000000000000         -1.1794718798928017     
  0.11430000000000000        -0.81486337115746821     
  0.11460000000000002        -0.43574301984181929     
  0.11489999999999999         -6.4253759756576323E-002
  0.11520000000000001         0.27733595516756182     
  0.11550000000000001         0.56887696832652734     
  0.11580000000000000         0.79415926851529406     
  0.11609999999999999         0.94150278782947794     
  0.11640000000000002          1.0057506754337453     
  0.11670000000000001         0.98750461315345461     
  0.11700000000000001         0.89403817789859374     
  0.11730000000000000         0.73749004057611600     
  0.11760000000000000         0.53457360018952649     
  0.11789999999999999         0.30437143928936639     
  0.11820000000000001          6.6783525229738849E-002
  0.11850000000000001        -0.15905407378817760     
  0.11880000000000000        -0.35667079658175588     
  0.11910000000000000        -0.51306920029272973     
  0.11940000000000002        -0.61991766731847697     
  0.11970000000000001        -0.67362397530552443     
  0.12000000000000001        -0.67524164081544313     
  0.12030000000000000        -0.62984388850415129     
  0.12060000000000000        -0.54563461560640292     
  0.12089999999999999        -0.43285583788627768     
  0.12119999999999999        -0.30243626842528926     
  0.12150000000000001        -0.16514402471070699     
  0.12180000000000001         -3.0408377080782811E-002
  0.12210000000000000          9.4547191044013434E-002
  0.12239999999999999         0.20447986991089828     
  0.12270000000000002         0.29727735769373886     
  0.12300000000000001         0.37254855014921340     
  0.12330000000000001         0.43226072024408779     
  0.12360000000000000         0.47954373853705512     
  0.12390000000000000         0.51823797221612189     
  0.12419999999999999         0.55221490481589797     
  0.12450000000000001         0.58459885060791805     
  0.12480000000000001         0.61765941083837816     
  0.12509999999999999         0.65188959305585215     
  0.12540000000000001         0.68643352053060269     
  0.12570000000000003         0.71889020101233925     
  0.12600000000000000         0.74544629474435453     
  0.12630000000000002         0.76168875932777880     
  0.12659999999999999         0.76232915253000044     
  0.12690000000000001         0.74282890463716100     
  0.12719999999999998         0.69893521425973404     
  0.12750000000000000         0.62812221729438988     
  0.12780000000000002         0.52935085333702325     
  0.12809999999999999         0.40384488805659124     
  0.12840000000000001         0.25502516911303097     
  0.12869999999999998          8.8234712359185119E-002
  0.12900000000000000         -8.8876462947165891E-002
  0.12930000000000003        -0.26789080626287731     
  0.12959999999999999        -0.43921305307859826     
  0.12990000000000002        -0.59348976383250029     
  0.13019999999999998        -0.72208226779771501     
  0.13050000000000000        -0.81800121279721516     
  0.13080000000000003        -0.87626009157546392     
  0.13109999999999999        -0.89467858359585506     
  0.13140000000000002        -0.87369288384733323     
  0.13169999999999998        -0.81652045009106189     
  0.13200000000000001        -0.72906164365288717     
  0.13229999999999997        -0.61909174960262092     
  0.13260000000000000        -0.49612512619035343     
  0.13290000000000002        -0.36997115069235953     
  0.13319999999999999        -0.25089567439849159     
  0.13350000000000001        -0.14800227711829139     
  0.13380000000000003         -6.9500976893074107E-002
  0.13410000000000000         -2.1295155034945668E-002
  0.13440000000000002         -7.2694566065401589E-003
  0.13469999999999999         -2.8578116558794164E-002
  0.13500000000000001         -8.3636668656055013E-002
  0.13529999999999998        -0.16804375658654114     
  0.13560000000000000        -0.27454705729787188     
  0.13590000000000002        -0.39385720871336583     
  0.13619999999999999        -0.51374920138392621     
  0.13650000000000001        -0.62143005835348752     
  0.13680000000000003        -0.70240200738667902     
  0.13710000000000000        -0.74281892041102893     
  0.13740000000000002        -0.72974860703824618     
  0.13769999999999999        -0.65300228448990438     
  0.13800000000000001        -0.50526462001892014     
  0.13829999999999998        -0.28472341952684577     
  0.13860000000000000          5.6412515123662743E-003
  0.13890000000000002         0.35635032513736853     
  0.13919999999999999         0.75230512786599490     
  0.13950000000000001          1.1727668236687188     
  0.13979999999999998          1.5929001865929777     
  0.14010000000000000          1.9852963623421758     
  0.14040000000000002          2.3222763309281262     
  0.14069999999999999          2.5783264279258518     
  0.14100000000000001          2.7319908163090432     
  0.14130000000000004          2.7690285185136219     
  0.14160000000000000          2.6827265655461048     
  0.14189999999999997          2.4763698602819062     
  0.14219999999999999          2.1615866894292139     
  0.14250000000000002          1.7593764561992273     
  0.14279999999999998          1.2969111975185825     
  0.14310000000000000         0.80620967006768041     
  0.14339999999999997         0.32067799249502560     
  0.14369999999999999        -0.12710625977435441     
  0.14400000000000002        -0.50902328309245704     
  0.14429999999999998        -0.80294650434769999     
  0.14460000000000001        -0.99513788184694674     
  0.14490000000000003         -1.0808543411788420     
  0.14520000000000000         -1.0644129128223128     
  0.14550000000000002        -0.95859900560917666     
  0.14579999999999999        -0.78319876889985451     
  0.14610000000000001        -0.56279316855343708     
  0.14640000000000003        -0.32500405168625957     
  0.14670000000000000         -9.7706938893927564E-002
  0.14699999999999996          9.2931232710733447E-002
  0.14729999999999999         0.22408387442377808     
  0.14760000000000001         0.27825463736121669     
  0.14789999999999998         0.24399170124031766     
  0.14820000000000000         0.11607352042992747     