  -1.4999999999999999E-002     0.0000000000000000     
  -1.4700000000000000E-002     0.0000000000000000     
  -1.4400000000000000E-002     0.0000000000000000     
  -1.4100000000000000E-002     0.0000000000000000     
  -1.3800000000000000E-002     0.0000000000000000     
  -1.3500000000000000E-002     0.0000000000000000     
  -1.3200000000000000E-002     0.0000000000000000     
  -1.2899999999999998E-002     0.0000000000000000     
  -1.2600000000000000E-002     0.0000000000000000     
  -1.2299999999999998E-002     0.0000000000000000     
  -1.2000000000000000E-002     0.0000000000000000     
  -1.1699999999999999E-002     0.0000000000000000     
  -1.1399999999999999E-002     0.0000000000000000     
  -1.1099999999999999E-002     0.0000000000000000     
  -1.0799999999999999E-002     0.0000000000000000     
  -1.0499999999999999E-002     0.0000000000000000     
  -1.0199999999999999E-002     0.0000000000000000     
  -9.8999999999999991E-003     0.0000000000000000     
  -9.5999999999999992E-003     0.0000000000000000     
  -9.2999999999999992E-003     0.0000000000000000     
  -8.9999999999999993E-003     0.0000000000000000     
  -8.6999999999999994E-003     0.0000000000000000     
  -8.3999999999999995E-003     0.0000000000000000     
  -8.0999999999999996E-003     0.0000000000000000     
  -7.7999999999999988E-003     0.0000000000000000     
  -7.4999999999999997E-003     0.0000000000000000     
  -7.1999999999999998E-003     0.0000000000000000     
  -6.8999999999999981E-003     0.0000000000000000     
  -6.5999999999999982E-003     0.0000000000000000     
  -6.3000000000000000E-003     0.0000000000000000     
  -6.0000000000000001E-003     0.0000000000000000     
  -5.6999999999999985E-003     0.0000000000000000     
  -5.3999999999999986E-003     0.0000000000000000     
  -5.1000000000000004E-003     0.0000000000000000     
  -4.7999999999999987E-003     0.0000000000000000     
  -4.5000000000000005E-003     0.0000000000000000     
  -4.1999999999999989E-003     0.0000000000000000     
  -3.8999999999999990E-003     0.0000000000000000     
  -3.5999999999999990E-003     0.0000000000000000     
  -3.2999999999999991E-003     0.0000000000000000     
  -2.9999999999999992E-003     0.0000000000000000     
  -2.6999999999999993E-003     0.0000000000000000     
  -2.3999999999999994E-003     0.0000000000000000     
  -2.0999999999999977E-003     0.0000000000000000     
  -1.7999999999999995E-003     0.0000000000000000     
  -1.4999999999999979E-003     0.0000000000000000     
  -1.1999999999999997E-003     0.0000000000000000     
  -8.9999999999999976E-004     0.0000000000000000     
  -5.9999999999999810E-004     0.0000000000000000     
  -2.9999999999999992E-004     0.0000000000000000     
   0.0000000000000000          0.0000000000000000     
   3.0000000000000165E-004     0.0000000000000000     
   5.9999999999999984E-004     0.0000000000000000     
   9.0000000000000149E-004     0.0000000000000000     
   1.2000000000000031E-003     0.0000000000000000     
   1.5000000000000013E-003     0.0000000000000000     
   1.8000000000000030E-003     0.0000000000000000     
   2.1000000000000012E-003     0.0000000000000000     
   2.3999999999999994E-003     0.0000000000000000     
   2.7000000000000010E-003     0.0000000000000000     
   2.9999999999999992E-003     0.0000000000000000     
   3.3000000000000008E-003     0.0000000000000000     
   3.6000000000000025E-003     0.0000000000000000     
   3.9000000000000007E-003     0.0000000000000000     
   4.2000000000000023E-003     0.0000000000000000     
   4.5000000000000005E-003     0.0000000000000000     
   4.7999999999999987E-003     0.0000000000000000     
   5.1000000000000004E-003     0.0000000000000000     
   5.4000000000000020E-003     0.0000000000000000     
   5.7000000000000037E-003     0.0000000000000000     
   5.9999999999999984E-003     0.0000000000000000     
   6.3000000000000000E-003     0.0000000000000000     
   6.6000000000000017E-003     0.0000000000000000     
   6.9000000000000034E-003     0.0000000000000000     
   7.2000000000000015E-003     0.0000000000000000     
   7.5000000000000032E-003     0.0000000000000000     
   7.8000000000000014E-003     0.0000000000000000     
   8.0999999999999996E-003     0.0000000000000000     
   8.4000000000000012E-003     0.0000000000000000     
   8.7000000000000029E-003     0.0000000000000000     
   9.0000000000000011E-003     0.0000000000000000     
   9.2999999999999992E-003     0.0000000000000000     
   9.6000000000000009E-003     0.0000000000000000     
   9.8999999999999991E-003     0.0000000000000000     
   1.0200000000000001E-002     0.0000000000000000     
   1.0500000000000002E-002     0.0000000000000000     
   1.0800000000000004E-002     0.0000000000000000     
   1.1099999999999999E-002     0.0000000000000000     
   1.1400000000000000E-002     0.0000000000000000     
   1.1700000000000002E-002     0.0000000000000000     
   1.2000000000000004E-002     0.0000000000000000     
   1.2300000000000002E-002     0.0000000000000000     
   1.2600000000000000E-002     0.0000000000000000     
   1.2900000000000002E-002     0.0000000000000000     
   1.3200000000000000E-002     0.0000000000000000     
   1.3500000000000002E-002     0.0000000000000000     
   1.3800000000000003E-002     0.0000000000000000     
   1.4100000000000001E-002     0.0000000000000000     
   1.4400000000000000E-002     0.0000000000000000     
   1.4700000000000001E-002     0.0000000000000000     
   1.4999999999999999E-002     0.0000000000000000     
   1.5300000000000001E-002     0.0000000000000000     
   1.5600000000000003E-002     0.0000000000000000     
   1.5899999999999997E-002     0.0000000000000000     
   1.6199999999999999E-002     0.0000000000000000     
   1.6500000000000001E-002     0.0000000000000000     
   1.6800000000000002E-002     0.0000000000000000     
   1.7100000000000004E-002     0.0000000000000000     
   1.7400000000000006E-002     0.0000000000000000     
   1.7700000000000000E-002     0.0000000000000000     
   1.8000000000000002E-002     0.0000000000000000     
   1.8300000000000004E-002     0.0000000000000000     
   1.8600000000000005E-002     0.0000000000000000     
   1.8900000000000000E-002     0.0000000000000000     
   1.9200000000000002E-002     0.0000000000000000     
   1.9500000000000003E-002     0.0000000000000000     
   1.9799999999999998E-002     0.0000000000000000     
   2.0100000000000000E-002     0.0000000000000000     
   2.0400000000000001E-002     0.0000000000000000     
   2.0700000000000003E-002     0.0000000000000000     
   2.0999999999999998E-002     0.0000000000000000     
   2.1299999999999999E-002     0.0000000000000000     
   2.1600000000000001E-002     0.0000000000000000     
   2.1900000000000003E-002     0.0000000000000000     
   2.2200000000000004E-002     0.0000000000000000     
   2.2500000000000006E-002     0.0000000000000000     
   2.2800000000000001E-002     0.0000000000000000     
   2.3100000000000002E-002     0.0000000000000000     
   2.3400000000000004E-002     0.0000000000000000     
   2.3699999999999999E-002     0.0000000000000000     
   2.4000000000000000E-002     0.0000000000000000     
   2.4300000000000002E-002     0.0000000000000000     
   2.4599999999999997E-002     0.0000000000000000     
   2.4900000000000005E-002     0.0000000000000000     
   2.5200000000000000E-002     0.0000000000000000     
   2.5499999999999995E-002     0.0000000000000000     
   2.5800000000000003E-002     0.0000000000000000     
   2.6099999999999998E-002     0.0000000000000000     
   2.6400000000000007E-002     0.0000000000000000     
   2.6700000000000002E-002     0.0000000000000000     
   2.6999999999999996E-002     0.0000000000000000     
   2.7300000000000005E-002     0.0000000000000000     
   2.7600000000000000E-002     0.0000000000000000     
   2.7900000000000008E-002     0.0000000000000000     
   2.8200000000000003E-002     0.0000000000000000     
   2.8499999999999998E-002     0.0000000000000000     
   2.8800000000000006E-002     0.0000000000000000     
   2.9100000000000001E-002     0.0000000000000000     
   2.9400000000000003E-002     0.0000000000000000     
   2.9700000000000004E-002     0.0000000000000000     
   3.0000000000000006E-002     0.0000000000000000     
   3.0300000000000001E-002     0.0000000000000000     
   3.0600000000000002E-002     0.0000000000000000     
   3.0900000000000004E-002     0.0000000000000000     
   3.1199999999999999E-002     0.0000000000000000     
   3.1500000000000007E-002     0.0000000000000000     
   3.1800000000000002E-002     0.0000000000000000     
   3.2099999999999997E-002     0.0000000000000000     
   3.2400000000000005E-002     0.0000000000000000     
   3.2700000000000000E-002     0.0000000000000000     
   3.3000000000000002E-002     0.0000000000000000     
   3.3300000000000003E-002     0.0000000000000000     
   3.3599999999999998E-002     0.0000000000000000     
   3.3900000000000000E-002     0.0000000000000000     
   3.4200000000000001E-002     0.0000000000000000     
   3.4500000000000003E-002     2.2246523965158282E-039
   3.4799999999999998E-002    -4.4645936599266723E-038
   3.5099999999999999E-002     4.4036860060157501E-037
   3.5400000000000001E-002    -2.8455799789689577E-036
   3.5699999999999996E-002     1.7200216545975393E-035
   3.6000000000000004E-002     4.4858844639853850E-035
   3.6299999999999999E-002    -5.9826818461748142E-034
   3.6600000000000008E-002     1.7714224820487308E-033
   3.6900000000000002E-002    -1.3382592043999949E-033
   3.7199999999999997E-002    -8.2025069549056130E-033
   3.7500000000000006E-002     5.5232051481814474E-032
   3.7800000000000000E-002    -2.6839269058875173E-031
   3.8100000000000009E-002     1.1909278875462765E-030
   3.8400000000000004E-002    -4.9595960728222051E-030
   3.8699999999999998E-002     1.9551085988972777E-029
   3.9000000000000007E-002    -7.3429043550500857E-029
   3.9300000000000002E-002     2.6417382508546965E-028
   3.9600000000000003E-002    -9.1565530500162132E-028
   3.9900000000000005E-002     3.0791376755577089E-027
   4.0200000000000000E-002    -1.0125335938505086E-026
   4.0500000000000001E-002     3.2790255549064192E-026
   4.0800000000000003E-002    -1.0495715222861320E-025
   4.1100000000000005E-002     3.3139496620267748E-025
   4.1399999999999999E-002    -1.0239221463509006E-024
   4.1700000000000008E-002     3.0569057125779534E-024
   4.2000000000000003E-002    -8.6814918945309091E-024
   4.2299999999999997E-002     2.3017527744467515E-023
   4.2600000000000006E-002    -5.5503780962580615E-023
   4.2900000000000001E-002     1.1586530658716978E-022
   4.3200000000000002E-002    -1.8128067596644616E-022
   4.3500000000000004E-002     5.0738675718776453E-023
   4.3799999999999999E-002     1.1925107044594794E-021
   4.4100000000000000E-002    -6.9807697418976697E-021
   4.4400000000000002E-002     2.8798311752324864E-020
   4.4700000000000004E-002    -1.0136660368433086E-019
   4.4999999999999998E-002     3.1675233920563948E-019
   4.5300000000000000E-002    -8.7066728569779303E-019
   4.5600000000000002E-002     1.9944865088433720E-018
   4.5899999999999996E-002    -3.1748071391659328E-018
   4.6200000000000005E-002    -2.0214999161223008E-019
   4.6500000000000000E-002     2.6543010940589114E-017
   4.6799999999999994E-002    -1.2566843940900179E-016
   4.7100000000000003E-002     3.7982614422006388E-016
   4.7399999999999998E-002    -7.6685315923387845E-016
   4.7700000000000006E-002     5.6781820424203262E-016
   4.8000000000000001E-002     3.0241371184425322E-015
   4.8300000000000010E-002    -1.5969329320102206E-014
   4.8600000000000004E-002     4.1131403802152294E-014
   4.8899999999999999E-002    -4.7297962688244371E-014
   4.9200000000000008E-002    -9.6163158604976611E-014
   4.9500000000000002E-002     6.2188757609206754E-013
   4.9800000000000011E-002    -1.4099397506062465E-012
   5.0100000000000006E-002     5.3462489484221990E-013
   5.0400000000000000E-002     6.9463275946977454E-012
   5.0700000000000009E-002    -2.2370089280767061E-011
   5.1000000000000004E-002     1.6893127765910525E-011
   5.1299999999999998E-002     9.1942104860651256E-011
   5.1600000000000007E-002    -3.1421412062359207E-010
   5.1900000000000002E-002     1.3212290189050500E-010
   5.2200000000000010E-002     1.6250479188047502E-009
   5.2500000000000005E-002    -3.8857803723475791E-009
   5.2800000000000000E-002    -2.9776267865342627E-009
   5.3099999999999994E-002     2.8188315779102247E-008
   5.3400000000000003E-002    -2.2885258308916720E-008
   5.3699999999999998E-002    -1.3996463725814502E-007
   5.4000000000000006E-002     2.7027761840556160E-007
   5.4300000000000001E-002     5.3503457415748229E-007
   5.4599999999999996E-002    -1.9757568243569082E-006
   5.4900000000000004E-002    -1.9376503768137163E-006
   5.5199999999999999E-002     1.8877824536445295E-005
   5.5499999999999994E-002     6.3061125971916598E-005
   5.5800000000000002E-002     9.7582648556623040E-005
   5.6099999999999997E-002     1.0492180676004680E-004
   5.6400000000000006E-002     1.2653608310139340E-004
   5.6700000000000000E-002     2.0384983521382766E-004
   5.6999999999999995E-002     3.2763053434605068E-004
   5.7300000000000004E-002     4.9103807505670484E-004
   5.7599999999999998E-002     7.2668581203360477E-004
   5.7900000000000007E-002     1.0707226356954994E-003
   5.8200000000000002E-002     1.5474817669053481E-003
   5.8499999999999996E-002     2.1908191801554011E-003
   5.8800000000000005E-002     3.0557214088198781E-003
   5.9100000000000000E-002     4.2011356389572430E-003
   5.9400000000000008E-002     5.6623884375084643E-003
   5.9700000000000003E-002     7.4640231762299891E-003
   6.0000000000000012E-002     9.6309927990872457E-003
   6.0300000000000006E-002     1.2144897146270928E-002
   6.0600000000000001E-002     1.4926022508307157E-002
   6.0900000000000010E-002     1.7826504073277016E-002
   6.1200000000000004E-002     2.0579547155663014E-002
   6.1500000000000013E-002     2.2791537258428640E-002
   6.1800000000000008E-002     2.3938264254758312E-002
   6.2100000000000002E-002     2.3304233709458222E-002
   6.2399999999999997E-002     1.9997803835687444E-002
   6.2700000000000006E-002     1.3011427228287468E-002
   6.3000000000000000E-002     1.2351584246935859E-003
   6.3300000000000009E-002    -1.6452478041754814E-002
   6.3600000000000004E-002    -4.1044151159780329E-002
   6.3899999999999998E-002    -7.3278276199135739E-002
   6.4199999999999993E-002   -0.11344568907694130     
   6.4500000000000002E-002   -0.16116898603998031     
   6.4800000000000010E-002   -0.21521105430739951     
   6.5100000000000005E-002   -0.27329966950035711     
   6.5400000000000000E-002   -0.33203532610158248     
   6.5700000000000008E-002   -0.38687289743563191     
   6.5999999999999989E-002   -0.43221114036527908     
   6.6299999999999998E-002   -0.46165949513322424     
   6.6600000000000006E-002   -0.46846047157513659     
   6.6900000000000001E-002   -0.44602293939568050     
   6.7199999999999996E-002   -0.38857535786875275     
   6.7500000000000004E-002   -0.29193634380369282     
   6.7800000000000013E-002   -0.15421225029293306     
   6.8099999999999994E-002     2.3557895647997096E-002
   6.8400000000000002E-002    0.23697159273359691     
   6.8700000000000011E-002    0.47802814617147682     
   6.8999999999999992E-002    0.73523605867517361     
   6.9300000000000000E-002    0.99421495276484961     
   6.9600000000000009E-002     1.2384882026196991     
   6.9900000000000004E-002     1.4506008157410974     
   7.0199999999999999E-002     1.6135881271405097     
   7.0500000000000007E-002     1.7123831970251402     
   7.0800000000000016E-002     1.7352211325065099     
   7.1099999999999997E-002     1.6749369388680933     
   7.1400000000000005E-002     1.5298166212254074     
   7.1700000000000000E-002     1.3039276607030885     
   7.1999999999999995E-002     1.0071753558283909     
   7.2300000000000003E-002    0.65446956413335133     
   7.2600000000000012E-002    0.26481263079187656     
   7.2900000000000006E-002   -0.14022951802078110     
   7.3200000000000001E-002   -0.53839216594283634     
   7.3499999999999996E-002   -0.90817032567427702     
   7.3800000000000004E-002    -1.2306989603328020     
   7.4099999999999999E-002    -1.4910713479148470     
   7.4400000000000008E-002    -1.6792853415887166     
   7.4700000000000003E-002    -1.7907449986818946     
   7.5000000000000011E-002    -1.8263303547767507     
   7.5299999999999992E-002    -1.7918852760626081     
   7.5600000000000001E-002    -1.6973666891369774     
   7.5900000000000009E-002    -1.5557683806237961     
   7.6200000000000004E-002    -1.3817160955163175     
   7.6499999999999999E-002    -1.1902049074094734     
   7.6800000000000007E-002   -0.99540605729670517     
   7.7099999999999988E-002   -0.80949476335900883     
   7.7399999999999997E-002   -0.64201375709746245     
   7.7700000000000005E-002   -0.49937301514520271     
   7.8000000000000014E-002   -0.38462922594513138     
   7.8299999999999995E-002   -0.29779288987368346     
   7.8600000000000003E-002   -0.23611944308001487     
   7.8900000000000012E-002   -0.19458944730767636     
   7.9199999999999993E-002   -0.16693983439168258     
   7.9500000000000001E-002   -0.14614617511897166     
   7.9800000000000010E-002   -0.12508263326938718     
   8.0100000000000018E-002    -9.7525417974363426E-002
   8.0399999999999999E-002    -5.8409366550105979E-002
   8.0700000000000008E-002    -4.1097533552115761E-003
   8.1000000000000003E-002     6.6929736757120439E-002
   8.1299999999999997E-002    0.15450173920220855     
   8.1600000000000006E-002    0.25669256928306616     
   8.1900000000000014E-002    0.36984420319686784     
   8.2199999999999995E-002    0.48923382110434765     
   8.2500000000000004E-002    0.60929910640799534     
   8.2799999999999999E-002    0.72400495247259755     
   8.3100000000000007E-002    0.82746195535180789     
   8.3400000000000002E-002    0.91434510738704589     
   8.3700000000000011E-002    0.98003135708614764     
   8.4000000000000005E-002     1.0212065755714121     
   8.4300000000000000E-002     1.0359206056627919     
   8.4599999999999995E-002     1.0236453615834051     
   8.4900000000000003E-002    0.98551895850399873     
   8.5199999999999998E-002    0.92386022282399338     
   8.5500000000000007E-002    0.84234562957159653     
   8.5800000000000001E-002    0.74574161338123091     
   8.6100000000000010E-002    0.63907987899795771     
   8.6399999999999991E-002    0.52783533606394784     
   8.6699999999999999E-002    0.41743281020340284     
   8.7000000000000008E-002    0.31241754123080945     
   8.7300000000000003E-002    0.21685692839924808     
   8.7599999999999997E-002    0.13380777931958132     
   8.7900000000000006E-002     6.4687765687791554E-002
   8.8200000000000014E-002     1.0027700379433846E-002
   8.8499999999999995E-002    -3.0838486231849260E-002
   8.8800000000000004E-002    -5.9885335492402714E-002
   8.9100000000000013E-002    -7.9533402866184488E-002
   8.9399999999999993E-002    -9.2893667342445863E-002
   8.9700000000000002E-002   -0.10322834669485070     
   9.0000000000000011E-002   -0.11332104144648758     
   9.0299999999999991E-002   -0.12583997419755955     
   9.0600000000000000E-002   -0.14238243128172989     
   9.0900000000000009E-002   -0.16349890155794444     
   9.1200000000000017E-002   -0.18912962190179350     
   9.1499999999999998E-002   -0.21784720856689077     
   9.1800000000000007E-002   -0.24746258858472281     
   9.2100000000000001E-002   -0.27550748966940652     
   9.2399999999999996E-002   -0.29900418286500674     
   9.2700000000000005E-002   -0.31523327854746519     
   9.3000000000000013E-002   -0.32203417232079445     
   9.3300000000000008E-002   -0.31796121952502432     
   9.3600000000000003E-002   -0.30288139317065088     
   9.3899999999999997E-002   -0.27771699108269754     
   9.4200000000000006E-002   -0.24443336002803306     
   9.4500000000000001E-002   -0.20620477455943043     
   9.4800000000000009E-002   -0.16666631327031389     
   9.5100000000000004E-002   -0.12973425616292023     
   9.5399999999999999E-002    -9.9267962813088584E-002
   9.5699999999999993E-002    -7.8199044248726146E-002
   9.6000000000000002E-002    -6.8611758767200826E-002
   9.6300000000000011E-002    -7.1333004240299758E-002
   9.6600000000000005E-002    -8.5592354786762304E-002
   9.6900000000000000E-002   -0.10949463880956678     
   9.7200000000000009E-002   -0.13993491908161282     
   9.7499999999999989E-002   -0.17304774291444858     
   9.7799999999999998E-002   -0.20484610289211602     
   9.8100000000000007E-002   -0.23140243856206766     
   9.8400000000000015E-002   -0.24958695324216507     
   9.8699999999999996E-002   -0.25728946079482640     
   9.9000000000000005E-002   -0.25367526898788917     
   9.9300000000000013E-002   -0.23951158848906573     
   9.9599999999999994E-002   -0.21663208933428901     
   9.9900000000000003E-002   -0.18797141541347351     
  0.10020000000000001        -0.15747983600188764     
  0.10049999999999999        -0.12894779271335732     
  0.10080000000000000        -0.10603006081975863     
  0.10110000000000001         -9.1765850974742325E-002
  0.10140000000000000         -8.7660897459844733E-002
  0.10170000000000000         -9.4045379353867808E-002
  0.10200000000000001        -0.10959477073146395     
  0.10230000000000002        -0.13116743850510471     
  0.10260000000000000        -0.15455096971926263     
  0.10290000000000001        -0.17437018714615693     
  0.10320000000000000        -0.18473584873060567     
  0.10350000000000001        -0.18012181068520139     
  0.10380000000000000        -0.15541828720826228     
  0.10410000000000001        -0.10704691334996985     
  0.10440000000000001         -3.3297157262900612E-002
  0.10470000000000000          6.5665105018882342E-002
  0.10500000000000000         0.18707012515999288     
  0.10530000000000000         0.32604961524857856     
  0.10560000000000000         0.47600371961262944     
  0.10590000000000001         0.62854987309574639     
  0.10620000000000000         0.77475542581120038     
  0.10650000000000001         0.90559200665866868     
  0.10679999999999999          1.0123994655889206     
  0.10710000000000000          1.0880510266268502     
  0.10740000000000001          1.1270787922514245     
  0.10770000000000000          1.1261193601059922     
  0.10800000000000000          1.0841740537334594     
  0.10830000000000001          1.0021998804671526     
  0.10859999999999999         0.88332746942250751     
  0.10890000000000000         0.73221873750622812     
  0.10920000000000001         0.55432901050814110     
  0.10950000000000001         0.35593584541796641     
  0.10979999999999999         0.14352840992070881     
  0.11009999999999999         -7.6732589512752192E-002
  0.11040000000000001        -0.29887457921385785     
  0.11070000000000001        -0.51723065160032533     
  0.11100000000000000        -0.72640482312791121     
  0.11130000000000000        -0.92111734471144047     
  0.11160000000000002         -1.0959309636347001     
  0.11190000000000001         -1.2450169611063373     
  0.11220000000000001         -1.3623707869925141     
  0.11250000000000000         -1.4417305827961115     
  0.11280000000000000         -1.4769914460467177     
  0.11309999999999999         -1.4627519692301973     
  0.11340000000000001         -1.3947211605760756     
  0.11369999999999998         -1.2706806607997834     
  0.11400000000000000         -1.0910939499332990     
  0.11430000000000000        -0.85944945217534663     
  0.11460000000000002        -0.58286685796683635     
  0.11489999999999999        -0.27190160762269855     
  0.11520000000000001          5.9857303555416630E-002
  0.11550000000000001         0.39626548690272578     
  0.11580000000000000         0.71993064932997441     
  0.11609999999999999          1.0135457990317285     
  0.11640000000000002          1.2609187841015626     
  0.11670000000000001          1.4485289500212488     
  0.11700000000000001          1.5668372535819586     
  0.11730000000000000          1.6107522361314608     
  0.11760000000000000          1.5801821744831841     
  0.11789999999999999          1.4800262051167365     
  0.11820000000000001          1.3194663583070572     
  0.11850000000000001          1.1112135303077011     
  0.11880000000000000         0.87004642542096278     
  0.11910000000000000         0.61144264574508278     
  0.11940000000000002         0.35050513417995521     
  0.11970000000000001         0.10053592619752738     
  0.12000000000000001        -0.12806659615888849     
  0.12030000000000000        -0.32800720612050327     
  0.12060000000000000        -0.49536663360534128     
  0.12089999999999999        -0.62965643825128481     
  0.12119999999999999        -0.73265032469892688     
  0.12150000000000001        -0.80830879861934335     
  0.12180000000000001        -0.86172594757649890     
  0.12210000000000000        -0.89776120684411254     
  0.12239999999999999        -0.92104303593407266     
  0.12270000000000002        -0.93519145534311932     
  0.12300000000000001        -0.94210444503832491     
  0.12330000000000001        -0.94262151538482186     
  0.12360000000000000        -0.93613090013116462     
  0.12390000000000000        -0.92104176329161902     
  0.12419999999999999        -0.89556036205910416     
  0.12450000000000001        -0.85744972070617820     
  0.12480000000000001        -0.80491312722389452     
  0.12509999999999999        -0.73712510974923084     
  0.12540000000000001        -0.65367561735414093     
  0.12570000000000003        -0.55541348228967458     
  0.12600000000000000        -0.44414124508110131     
  0.12630000000000002        -0.32212191311619853     
  0.12659999999999999        -0.19276067744769199     
  0.12690000000000001         -5.9849390967055882E-002
  0.12719999999999998          7.2799804758172160E-002
  0.12750000000000000         0.20076864880587131     
  0.12780000000000002         0.31969763290468123     
  0.12809999999999999         0.42542582771499404     
  0.12840000000000001         0.51351249907946439     
  0.12869999999999998         0.58022147003176272     
  0.12900000000000000         0.62218383663251231     
  0.12930000000000003         0.63638373808043802     
  0.12959999999999999         0.62141772184705779     
  0.12990000000000002         0.57686219733494681     
  0.13019999999999998         0.50360775162162685     
  0.13050000000000000         0.40508197926369593     
  0.13080000000000003         0.28618500912704503     
  0.13109999999999999         0.15353745691880638     
  0.13140000000000002          1.5880118074967697E-002
  0.13169999999999998        -0.11721088665804746     
  0.13200000000000001        -0.23561755180823507     
  0.13229999999999997        -0.32912803386639133     
  0.13260000000000000        -0.38883175671234049     
  0.13290000000000002        -0.40767291336380929     
  0.13319999999999999        -0.38099394857647639     
  0.13350000000000001        -0.30736671482520928     
  0.13380000000000003        -0.18894956809726171     
  0.13410000000000000         -3.1358283986456570E-002
  0.13440000000000002         0.15671289315596493     
  0.13469999999999999         0.36375897737758578     
  0.13500000000000001         0.57644951642908993     
  0.13529999999999998         0.78063542949561082     
  0.13560000000000000         0.96232575620357608     
  0.13590000000000002          1.1090457843546346     
  0.13619999999999999          1.2105234266410179     
  0.13650000000000001          1.2594109391576183     
  0.13680000000000003          1.2525019803171382     
  0.13710000000000000          1.1902736801874170     
  0.13740000000000002          1.0769157101937878     
  0.13769999999999999         0.92050427785115119     
  0.13800000000000001         0.73176151183331761     
  0.13829999999999998         0.52326988912283467     
  0.13860000000000000         0.30880416359225515     
  0.13890000000000002         0.10191702250235135     
  0.13919999999999999         -8.4900455342074466E-002
  0.13950000000000001        -0.24101731180100483     
  0.13979999999999998        -0.35852776048808899     
  0.14010000000000000        -0.43261545608536167     
  0.14040000000000002        -0.46133564877703215     
  0.14069999999999999        -0.44608294480430910     
  0.14100000000000001        -0.39125229036765763     
  0.14130000000000004        -0.30302618083163324     
  0.14160000000000000        -0.18944372058071224     
  0.14189999999999997         -5.9839621631614381E-002
  0.14219999999999999          7.6458148820632843E-002
  0.14250000000000002         0.21002779057688770     
  0.14279999999999998         0.33207350629333554     
  0.14310000000000000         0.43500701776672734     
  0.14339999999999997         0.51215918264852967     
  0.14369999999999999         0.55831139923805040     
  0.14400000000000002         0.56964989728014359     
  0.14429999999999998         0.54371211509633888     
  0.14460000000000001         0.47949878889477793     
  0.14490000000000003         0.37760634096522327     
  0.14520000000000000         0.23982162070352153     
  0.14550000000000002          6.9780837274711516E-002
  0.14579999999999999        -0.12728264601305783     
  0.14610000000000001        -0.34474836532432818     
  0.14640000000000003        -0.57422502237592354     
  0.14670000000000000        -0.80613317026009668     
  0.14699999999999996         -1.0299267000160555     
  0.14729999999999999         -1.2343271555554978     
  0.14760000000000001         -1.4084318240446549     
  0.14789999999999998         -1.5419337602945120     
  0.14820000000000000         -1.6257946905074192     