  -1.4999999999999999E-002     0.0000000000000000     
  -1.4700000000000000E-002     0.0000000000000000     
  -1.4400000000000000E-002     0.0000000000000000     
  -1.4100000000000000E-002     0.0000000000000000     
  -1.3800000000000000E-002     0.0000000000000000     
  -1.3500000000000000E-002     0.0000000000000000     
  -1.3200000000000000E-002     0.0000000000000000     
  -1.2899999999999998E-002     0.0000000000000000     
  -1.2600000000000000E-002     0.0000000000000000     
  -1.2299999999999998E-002     0.0000000000000000     
  -1.2000000000000000E-002     0.0000000000000000     
  -1.1699999999999999E-002     0.0000000000000000     
  -1.1399999999999999E-002     0.0000000000000000     
  -1.1099999999999999E-002     0.0000000000000000     
  -1.0799999999999999E-002     0.0000000000000000     
  -1.0499999999999999E-002     0.0000000000000000     
  -1.0199999999999999E-002     0.0000000000000000     
  -9.8999999999999991E-003     0.0000000000000000     
  -9.5999999999999992E-003     0.0000000000000000     
  -9.2999999999999992E-003     0.0000000000000000     
  -8.9999999999999993E-003     0.0000000000000000     
  -8.6999999999999994E-003     0.0000000000000000     
  -8.3999999999999995E-003     0.0000000000000000     
  -8.0999999999999996E-003     0.0000000000000000     
  -7.7999999999999988E-003     0.0000000000000000     
  -7.4999999999999997E-003     0.0000000000000000     
  -7.1999999999999998E-003     0.0000000000000000     
  -6.8999999999999981E-003     0.0000000000000000     
  -6.5999999999999982E-003     0.0000000000000000     
  -6.3000000000000000E-003     0.0000000000000000     
  -6.0000000000000001E-003     0.0000000000000000     
  -5.6999999999999985E-003     0.0000000000000000     
  -5.3999999999999986E-003     0.0000000000000000     
  -5.1000000000000004E-003     0.0000000000000000     
  -4.7999999999999987E-003     0.0000000000000000     
  -4.5000000000000005E-003     0.0000000000000000     
  -4.1999999999999989E-003     0.0000000000000000     
  -3.8999999999999990E-003     0.0000000000000000     
  -3.5999999999999990E-003     0.0000000000000000     
  -3.2999999999999991E-003     0.0000000000000000     
  -2.9999999999999992E-003     0.0000000000000000     
  -2.6999999999999993E-003     0.0000000000000000     
  -2.3999999999999994E-003     0.0000000000000000     
  -2.0999999999999977E-003     0.0000000000000000     
  -1.7999999999999995E-003     0.0000000000000000     
  -1.4999999999999979E-003     0.0000000000000000     
  -1.1999999999999997E-003     0.0000000000000000     
  -8.9999999999999976E-004     0.0000000000000000     
  -5.9999999999999810E-004     0.0000000000000000     
  -2.9999999999999992E-004     0.0000000000000000     
   0.0000000000000000          0.0000000000000000     
   3.0000000000000165E-004     0.0000000000000000     
   5.9999999999999984E-004     0.0000000000000000     
   9.0000000000000149E-004     0.0000000000000000     
   1.2000000000000031E-003     0.0000000000000000     
   1.5000000000000013E-003     0.0000000000000000     
   1.8000000000000030E-003     0.0000000000000000     
   2.1000000000000012E-003     1.8136345328345760E-035
   2.3999999999999994E-003    -1.4326601427698083E-035
   2.7000000000000010E-003    -1.1991121445467189E-034
   2.9999999999999992E-003     5.1051237519857117E-034
   3.3000000000000008E-003    -2.4344572494186040E-033
   3.6000000000000025E-003     6.6626755318378321E-033
   3.9000000000000007E-003    -8.9018592923558530E-033
   4.2000000000000023E-003    -1.1688819012253244E-032
   4.5000000000000005E-003     8.9423540441841239E-032
   4.7999999999999987E-003    -2.0576753545466050E-031
   5.1000000000000004E-003     1.3111783723535219E-031
   5.4000000000000020E-003     6.4102598666442361E-031
   5.7000000000000037E-003    -2.3622222898983212E-030
   5.9999999999999984E-003     3.4165429214559247E-030
   6.3000000000000000E-003     1.4297761603175880E-030
   6.6000000000000017E-003    -1.8227811990743319E-029
   6.9000000000000034E-003     3.9996599656785015E-029
   7.2000000000000015E-003    -2.6619159476178652E-029
   7.5000000000000032E-003    -8.9513167325173357E-029
   7.8000000000000014E-003     3.2056822257071174E-028
   8.0999999999999996E-003    -4.5155796439990341E-028
   8.4000000000000012E-003    -7.0872259912319435E-029
   8.7000000000000029E-003     1.8069798887900136E-027
   9.0000000000000011E-003    -4.1890882961067323E-027
   9.2999999999999992E-003     3.9420388621184819E-027
   9.6000000000000009E-003     5.0196802513627267E-027
   9.8999999999999991E-003    -2.6493437441636851E-026
   1.0200000000000001E-002     4.8756636012417225E-026
   1.0500000000000002E-002    -2.9373531628743832E-026
   1.0800000000000004E-002    -9.6330147067350126E-026
   1.1099999999999999E-002     3.4206576711432199E-025
   1.1400000000000000E-002    -5.2041962499858000E-025
   1.1700000000000002E-002     1.2905860551838577E-025
   1.2000000000000004E-002     1.4142957646824891E-024
   1.2300000000000002E-002    -3.8479254450096819E-024
   1.2600000000000000E-002     4.6926862172660124E-024
   1.2900000000000002E-002     9.7063832082631586E-025
   1.3200000000000000E-002    -1.6750213344416126E-023
   1.3500000000000002E-002     3.5916669776200761E-023
   1.3800000000000003E-002    -3.2820923993180219E-023
   1.4100000000000001E-002    -2.9387681426800782E-023
   1.4400000000000000E-002     1.5825823295778886E-022
   1.4700000000000001E-002    -2.6889478846823431E-022
   1.4999999999999999E-002     1.6260644688914156E-022
   1.5300000000000001E-002     3.5299942738120043E-022
   1.5600000000000003E-002    -1.1736865913463301E-021
   1.5899999999999997E-002     1.6209851134295551E-021
   1.6199999999999999E-002    -5.7147840569757299E-022
   1.6500000000000001E-002    -2.6939580223329359E-021
   1.6800000000000002E-002     7.1409032097411037E-021
   1.7100000000000004E-002    -9.0464446133148482E-021
   1.7400000000000006E-002     2.6867373575863945E-021
   1.7700000000000000E-002     1.6297414543313789E-020
   1.8000000000000002E-002    -4.3956658863229188E-020
   1.8300000000000004E-002     5.8239266613929806E-020
   1.8600000000000005E-002    -1.5131333833271238E-020
   1.8900000000000000E-002    -1.2548394515914786E-019
   1.9200000000000002E-002     3.2070293826927243E-019
   1.9500000000000003E-002    -3.4963107280208277E-019
   1.9799999999999998E-002    -1.3470526415500951E-019
   2.0100000000000000E-002     1.2045264493268821E-018
   2.0400000000000001E-002    -2.0282133611652155E-018
   2.0700000000000003E-002     8.2778683254445248E-019
   2.0999999999999998E-002     3.4856845073780301E-018
   2.1299999999999999E-002    -8.3420172159237777E-018
   2.1600000000000001E-002     6.5956441417900801E-018
   2.1900000000000003E-002     7.7694403143727343E-018
   2.2200000000000004E-002    -2.8233242640876235E-017
   2.2500000000000006E-002     3.0365906165940053E-017
   2.2800000000000001E-002     1.1672044529992804E-017
   2.3100000000000002E-002    -8.6246469641319161E-017
   2.3400000000000004E-002     1.1388422826794092E-016
   2.3699999999999999E-002     1.4166262083358650E-017
   2.4000000000000000E-002    -2.7413355776092455E-016
   2.4300000000000002E-002     3.2057002151177343E-016
   2.4599999999999997E-002     2.5117422679978431E-016
   2.4900000000000005E-002    -7.5492213764689464E-016
   2.5200000000000000E-002    -9.0857592598207445E-016
   2.5499999999999995E-002     3.3113300411402331E-015
   2.5800000000000003E-002     5.2869014064381697E-015
   2.6099999999999998E-002    -2.9515571166620000E-014
   2.6400000000000007E-002     1.4249792819787284E-014
   2.6700000000000002E-002     1.3063333780590630E-013
   2.6999999999999996E-002    -2.7077819153564775E-013
   2.7300000000000005E-002    -9.4214688676520775E-014
   2.7600000000000000E-002     9.5731972696300183E-013
   2.7900000000000008E-002    -8.7464665501565952E-013
   2.8200000000000003E-002     1.3109982934314535E-014
   2.8499999999999998E-002    -3.5729735142764341E-012
   2.8800000000000006E-002     4.2348407766623630E-012
   2.9100000000000001E-002     4.5650750540859875E-011
   2.9400000000000003E-002    -1.4676182491513146E-010
   2.9700000000000004E-002    -1.8136291080050881E-012
   3.0000000000000006E-002     8.5117674020196432E-010
   3.0300000000000001E-002    -1.5740383441098516E-009
   3.0600000000000002E-002    -1.1860544768538261E-009
   3.0900000000000004E-002     9.0265475094497560E-009
   3.1199999999999999E-002    -1.0173272002589329E-008
   3.1500000000000007E-002    -2.0996489880076297E-008
   3.1800000000000002E-002     7.0419886810668686E-008
   3.2099999999999997E-002    -1.5672426911805815E-008
   3.2400000000000005E-002    -2.5351212684654456E-007
   3.2700000000000000E-002     2.7280322001388413E-007
   3.3000000000000002E-002     1.2642736919588060E-006
   3.3300000000000003E-002     2.7100848001282429E-006
   3.3599999999999998E-002     8.2955948528251611E-006
   3.3900000000000000E-002     1.8631008060765453E-005
   3.4200000000000001E-002     2.9002232622588053E-005
   3.4500000000000003E-002     3.8853951991768554E-005
   3.4799999999999998E-002     5.1540242566261441E-005
   3.5099999999999999E-002     7.2484770498704165E-005
   3.5400000000000001E-002     1.0844433563761413E-004
   3.5699999999999996E-002     1.6303514712490141E-004
   3.6000000000000004E-002     2.4560801102779806E-004
   3.6299999999999999E-002     3.6808915319852531E-004
   3.6600000000000008E-002     5.2984082140028477E-004
   3.6900000000000002E-002     7.3398230597376823E-004
   3.7199999999999997E-002     1.0070994030684233E-003
   3.7500000000000006E-002     1.3720884453505278E-003
   3.7800000000000000E-002     1.8259226344525814E-003
   3.8100000000000009E-002     2.3695330601185560E-003
   3.8400000000000004E-002     3.0062368605285883E-003
   3.8699999999999998E-002     3.7241831887513399E-003
   3.9000000000000007E-002     4.4960365630686283E-003
   3.9300000000000002E-002     5.2560418844223022E-003
   3.9600000000000003E-002     5.9047597460448742E-003
   3.9900000000000005E-002     6.2989625148475170E-003
   4.0200000000000000E-002     6.2343487516045570E-003
   4.0500000000000001E-002     5.4818866774439812E-003
   4.0800000000000003E-002     3.7664999254047871E-003
   4.1100000000000005E-002     6.9151853676885366E-004
   4.1399999999999999E-002    -4.1856756433844566E-003
   4.1700000000000008E-002    -1.1251048184931278E-002
   4.2000000000000003E-002    -2.0905476063489914E-002
   4.2299999999999997E-002    -3.3544380217790604E-002
   4.2600000000000006E-002    -4.9502246081829071E-002
   4.2900000000000001E-002    -6.8995513021945953E-002
   4.3200000000000002E-002    -9.2015996575355530E-002
   4.3500000000000004E-002   -0.11837828159332275     
   4.3799999999999999E-002   -0.14771163463592529     
   4.4100000000000000E-002   -0.17940376698970795     
   4.4400000000000002E-002   -0.21263159811496735     
   4.4700000000000004E-002   -0.24643203616142273     
   4.4999999999999998E-002   -0.27971395850181580     
   4.5300000000000000E-002   -0.31134566664695740     
   4.5600000000000002E-002   -0.34031945466995239     
   4.5899999999999996E-002   -0.36567181348800659     
   4.6200000000000005E-002   -0.38666725158691406     
   4.6500000000000000E-002   -0.40273672342300415     
   4.6799999999999994E-002   -0.41355797648429871     
   4.7100000000000003E-002   -0.41881841421127319     
   4.7399999999999998E-002   -0.41834735870361328     
   4.7700000000000006E-002   -0.41178646683692932     
   4.8000000000000001E-002   -0.39847987890243530     
   4.8300000000000010E-002   -0.37745717167854309     
   4.8600000000000004E-002   -0.34724998474121094     
   4.8899999999999999E-002   -0.30600348114967346     
   4.9200000000000008E-002   -0.25157672166824341     
   4.9500000000000002E-002   -0.18157404661178589     
   4.9800000000000011E-002    -9.3974798917770386E-002
   5.0100000000000006E-002     1.2829435989260674E-002
   5.0400000000000000E-002    0.13935948908329010     
   5.0700000000000009E-002    0.28478032350540161     
   5.1000000000000004E-002    0.44658949971199036     
   5.1299999999999998E-002    0.62022674083709717     
   5.1600000000000007E-002    0.79953390359878540     
   5.1900000000000002E-002    0.97624129056930542     
   5.2200000000000010E-002     1.1410181522369385     
   5.2500000000000005E-002     1.2836447954177856     
   5.2800000000000000E-002     1.3940327167510986     
   5.3099999999999994E-002     1.4628888368606567     
   5.3400000000000003E-002     1.4826837778091431     
   5.3699999999999998E-002     1.4484144449234009     
   5.4000000000000006E-002     1.3583817481994629     
   5.4300000000000001E-002     1.2142180204391479     
   5.4599999999999996E-002     1.0218913555145264     
   5.4900000000000004E-002    0.79027485847473145     
   5.5199999999999999E-002    0.53191596269607544     
   5.5499999999999994E-002    0.26152458786964417     
   5.5800000000000002E-002    -4.8733819276094437E-003
   5.6099999999999997E-002   -0.25068140029907227     
   5.6400000000000006E-002   -0.46082735061645508     
   5.6700000000000000E-002   -0.62181103229522705     
   5.6999999999999995E-002   -0.72376728057861328     
   5.7300000000000004E-002   -0.76067191362380981     
   5.7599999999999998E-002   -0.73071455955505371     
   5.7900000000000007E-002   -0.63733357191085815     
   5.8200000000000002E-002   -0.48778617382049561     
   5.8499999999999996E-002   -0.29375511407852173     
   5.8800000000000005E-002    -6.9688536226749420E-002
   5.9100000000000000E-002    0.16802290081977844     
   5.9400000000000008E-002    0.40173137187957764     
   5.9700000000000003E-002    0.61489808559417725     
   6.0000000000000012E-002    0.79183357954025269     
   6.0300000000000006E-002    0.91996097564697266     
   6.0600000000000001E-002    0.98951572179794312     
   6.0900000000000010E-002    0.99482798576354980     
   6.1200000000000004E-002    0.93407142162322998     
   6.1500000000000013E-002    0.80911159515380859     
   6.1800000000000008E-002    0.62556076049804688     
   6.2100000000000002E-002    0.39191827178001404     
   6.2399999999999997E-002    0.11863525211811066     
   6.2700000000000006E-002   -0.18137711286544800     
   6.3000000000000000E-002   -0.49534329771995544     
   6.3300000000000009E-002   -0.80949002504348755     
   6.3600000000000004E-002    -1.1109520196914673     
   6.3899999999999998E-002    -1.3876351118087769     
   6.4199999999999993E-002    -1.6286742687225342     
   6.4500000000000002E-002    -1.8252362012863159     
   6.4800000000000010E-002    -1.9703559875488281     
   6.5100000000000005E-002    -2.0590920448303223     
   6.5400000000000000E-002    -2.0890076160430908     
   6.5700000000000008E-002    -2.0599973201751709     
   6.5999999999999989E-002    -1.9744861125946045     
   6.6299999999999998E-002    -1.8368520736694336     
   6.6600000000000006E-002    -1.6540646553039551     
   6.6900000000000001E-002    -1.4348788261413574     
   6.7199999999999996E-002    -1.1894167661666870     
   6.7500000000000004E-002   -0.92940932512283325     
   6.7800000000000013E-002   -0.66671872138977051     
   6.8099999999999994E-002   -0.41342690587043762     
   6.8400000000000002E-002   -0.18082787096500397     
   6.8700000000000011E-002     2.1155908703804016E-002
   6.8999999999999992E-002    0.18445606529712677     
   6.9300000000000000E-002    0.30371043086051941     
   6.9600000000000009E-002    0.37632089853286743     
   6.9900000000000004E-002    0.40247902274131775     
   7.0199999999999999E-002    0.38570311665534973     
   7.0500000000000007E-002    0.33190590143203735     
   7.0800000000000016E-002    0.24933156371116638     
   7.1099999999999997E-002    0.14748440682888031     
   7.1400000000000005E-002     3.6899264901876450E-002
   7.1700000000000000E-002    -7.1885176002979279E-002
   7.1999999999999995E-002   -0.17000381648540497     
   7.2300000000000003E-002   -0.24870951473712921     
   7.2600000000000012E-002   -0.30276539921760559     
   7.2900000000000006E-002   -0.32799145579338074     
   7.3200000000000001E-002   -0.32332530617713928     
   7.3499999999999996E-002   -0.28945383429527283     
   7.3800000000000004E-002   -0.22886469960212708     
   7.4099999999999999E-002   -0.14532294869422913     
   7.4400000000000008E-002    -4.3048340827226639E-002
   7.4700000000000003E-002     7.3939353227615356E-002
   7.5000000000000011E-002    0.20163796842098236     
   7.5299999999999992E-002    0.33812057971954346     
   7.5600000000000001E-002    0.48166862130165100     
   7.5900000000000009E-002    0.63253247737884521     
   7.6200000000000004E-002    0.79152101278305054     
   7.6499999999999999E-002    0.96031731367111206     
   7.6800000000000007E-002     1.1404079198837280     
   7.7099999999999988E-002     1.3322986364364624     
   7.7399999999999997E-002     1.5355471372604370     
   7.7700000000000005E-002     1.7468359470367432     
   7.8000000000000014E-002     1.9608193635940552     
   7.8299999999999995E-002     2.1692526340484619     
   7.8600000000000003E-002     2.3606605529785156     
   7.8900000000000012E-002     2.5221264362335205     
   7.9199999999999993E-002     2.6386630535125732     
   7.9500000000000001E-002     2.6951086521148682     
   7.9800000000000010E-002     2.6778824329376221     
   8.0100000000000018E-002     2.5750119686126709     
   8.0399999999999999E-002     2.3800721168518066     
   8.0700000000000008E-002     2.0905888080596924     
   8.1000000000000003E-002     1.7116621732711792     
   8.1299999999999997E-002     1.2545763254165649     
   8.1600000000000006E-002    0.73778200149536133     
   8.1900000000000014E-002    0.18577048182487488     
   8.2199999999999995E-002   -0.37272870540618896     
   8.2500000000000004E-002   -0.90592426061630249     
   8.2799999999999999E-002    -1.3824532032012939     
   8.3100000000000007E-002    -1.7728819847106934     
   8.3400000000000002E-002    -2.0534377098083496     
   8.3700000000000011E-002    -2.2078707218170166     
   8.4000000000000005E-002    -2.2288510799407959     
   8.4300000000000000E-002    -2.1201524734497070     
   8.4599999999999995E-002    -1.8958787918090820     
   8.4900000000000003E-002    -1.5794794559478760     
   8.5199999999999998E-002    -1.2034312486648560     
   8.5500000000000007E-002   -0.80460751056671143     
   8.5800000000000001E-002   -0.42297488451004028     
   8.6100000000000010E-002    -9.6676126122474670E-002
   8.6399999999999991E-002    0.14051608741283417     
   8.6699999999999999E-002    0.26260715723037720     
   8.7000000000000008E-002    0.25487664341926575     
   8.7300000000000003E-002    0.11375511437654495     
   8.7599999999999997E-002   -0.15068987011909485     
   8.7900000000000006E-002   -0.51657050848007202     
   8.8200000000000014E-002   -0.95122575759887695     
   8.8499999999999995E-002    -1.4138242006301880     
   8.8800000000000004E-002    -1.8587449789047241     
   8.9100000000000013E-002    -2.2392387390136719     
   8.9399999999999993E-002    -2.5114712715148926     
   8.9700000000000002E-002    -2.6382732391357422     
   9.0000000000000011E-002    -2.5921540260314941     
   9.0299999999999991E-002    -2.3580861091613770     
   9.0600000000000000E-002    -1.9346024990081787     
   9.0900000000000009E-002    -1.3348472118377686     
   9.1200000000000017E-002   -0.58530485630035400     
   9.1499999999999998E-002    0.27543687820434570     
   9.1800000000000007E-002     1.1994416713714600     
   9.2100000000000001E-002     2.1327004432678223     
   9.2399999999999996E-002     3.0189957618713379     
   9.2700000000000005E-002     3.8033921718597412     
   9.3000000000000013E-002     4.4363856315612793     
   9.3300000000000008E-002     4.8771152496337891     
   9.3600000000000003E-002     5.0961599349975586     
   9.3899999999999997E-002     5.0772271156311035     
   9.4200000000000006E-002     4.8181481361389160     
   9.4500000000000001E-002     4.3312849998474121     
   9.4800000000000009E-002     3.6413145065307617     
   9.5100000000000004E-002     2.7842183113098145     
   9.5399999999999999E-002     1.8042111396789551     
   9.5699999999999993E-002    0.75021088123321533     
   9.6000000000000002E-002   -0.32661262154579163     
   9.6300000000000011E-002    -1.3774331808090210     
   9.6600000000000005E-002    -2.3574919700622559     
   9.6900000000000000E-002    -3.2294461727142334     
   9.7200000000000009E-002    -3.9648523330688477     
   9.7499999999999989E-002    -4.5440678596496582     
   9.7799999999999998E-002    -4.9580211639404297     
   9.8100000000000007E-002    -5.2062292098999023     
   9.8400000000000015E-002    -5.2954821586608887     
   9.8699999999999996E-002    -5.2401199340820312     
   9.9000000000000005E-002    -5.0566101074218750     
   9.9300000000000013E-002    -4.7663178443908691     
   9.9599999999999994E-002    -4.3894009590148926     
   9.9900000000000003E-002    -3.9473643302917480     
  0.10020000000000001         -3.4590573310852051     
  0.10049999999999999         -2.9421794414520264     
  0.10080000000000000         -2.4121062755584717     
  0.10110000000000001         -1.8816947937011719     
  0.10140000000000000         -1.3615461587905884     
  0.10170000000000000        -0.86080712080001831     
  0.10200000000000001        -0.38511818647384644     
  0.10230000000000002          5.9432752430438995E-002
  0.10260000000000000         0.47114628553390503     
  0.10290000000000001         0.84767103195190430     
  0.10320000000000000          1.1891862154006958     
  0.10350000000000001          1.4974696636199951     
  0.10380000000000000          1.7731188535690308     
  0.10410000000000001          2.0201528072357178     
  0.10440000000000001          2.2395300865173340     
  0.10470000000000000          2.4332582950592041     
  0.10500000000000000          2.6027920246124268     
  0.10530000000000000          2.7461652755737305     
  0.10560000000000000          2.8632779121398926     
  0.10590000000000001          2.9497804641723633     
  0.10620000000000000          3.0027160644531250     
  0.10650000000000001          3.0176885128021240     
  0.10679999999999999          2.9900784492492676     
  0.10710000000000000          2.9178180694580078     
  0.10740000000000001          2.7968852519989014     
  0.10770000000000000          2.6282925605773926     
  0.10800000000000000          2.4120657444000244     
  0.10830000000000001          2.1516122817993164     
  0.10859999999999999          1.8514827489852905     
  0.10890000000000000          1.5178631544113159     
  0.10920000000000001          1.1581567525863647     
  0.10950000000000001         0.78015655279159546     
  0.10979999999999999         0.39252519607543945     
  0.11009999999999999          4.6791136264801025E-003
  0.11040000000000001        -0.37607002258300781     
  0.11070000000000001        -0.74015057086944580     
  0.11100000000000000         -1.0808596611022949     
  0.11130000000000000         -1.3905589580535889     
  0.11160000000000002         -1.6634770631790161     
  0.11190000000000001         -1.8942861557006836     
  0.11220000000000001         -2.0789813995361328     
  0.11250000000000000         -2.2156116962432861     
  0.11280000000000000         -2.3029892444610596     
  0.11309999999999999         -2.3407859802246094     
  0.11340000000000001         -2.3326826095581055     
  0.11369999999999998         -2.2804338932037354     
  0.11400000000000000         -2.1902556419372559     
  0.11430000000000000         -2.0663123130798340     
  0.11460000000000002         -1.9160094261169434     
  0.11489999999999999         -1.7452212572097778     
  0.11520000000000001         -1.5605121850967407     
  0.11550000000000001         -1.3683594465255737     
  0.11580000000000000         -1.1734819412231445     
  0.11609999999999999        -0.98070764541625977     
  0.11640000000000002        -0.79295009374618530     
  0.11670000000000001        -0.61262065172195435     
  0.11700000000000001        -0.43979358673095703     
  0.11730000000000000        -0.27387616038322449     
  0.11760000000000000        -0.11244916170835495     
  0.11789999999999999          4.7550432384014130E-002
  0.11820000000000001         0.21171090006828308     
  0.11850000000000001         0.38469037413597107     
  0.11880000000000000         0.57258844375610352     
  0.11910000000000000         0.78148043155670166     
  0.11940000000000002          1.0157040357589722     
  0.11970000000000001          1.2794841527938843     
  0.12000000000000001          1.5731064081192017     
  0.12030000000000000          1.8954708576202393     
  0.12060000000000000          2.2396736145019531     
  0.12089999999999999          2.5955588817596436     
  0.12119999999999999          2.9483518600463867     
  0.12150000000000001          3.2775137424468994     
  0.12180000000000001          3.5586757659912109     
  0.12210000000000000          3.7657415866851807     
  0.12239999999999999          3.8706064224243164     
  0.12270000000000002          3.8466866016387939     
  0.12300000000000001          3.6732761859893799     
  0.12330000000000001          3.3368833065032959     
  0.12360000000000000          2.8370428085327148     
  0.12390000000000000          2.1862747669219971     
  0.12419999999999999          1.4164597988128662     
  0.12450000000000001         0.57412081956863403     
  0.12480000000000001        -0.27550303936004639     
  0.12509999999999999         -1.0557492971420288     
  0.12540000000000001         -1.6821929216384888     
  0.12570000000000003         -2.0717058181762695     
  0.12600000000000000         -2.1500039100646973     
  0.12630000000000002         -1.8635038137435913     
  0.12659999999999999         -1.1876813173294067     
  0.12690000000000001        -0.13456255197525024     
  0.12719999999999998          1.2413432598114014     
  0.12750000000000000          2.8424468040466309     
  0.12780000000000002          4.5320801734924316     
  0.12809999999999999          6.1430859565734863     
  0.12840000000000001          7.4896941184997559     
  0.12869999999999998          8.3869638442993164     
  0.12900000000000000          8.6648826599121094     
  0.12930000000000003          8.1938428878784180     
  0.12959999999999999          6.8948135375976562     
  0.12990000000000002          4.7585172653198242     
  0.13019999999999998          1.8498795032501221     
  0.13050000000000000         -1.6908867359161377     
  0.13080000000000003         -5.6532921791076660     
  0.13109999999999999         -9.7728157043457031     
  0.13140000000000002         -13.748729705810547     
  0.13169999999999998         -17.271627426147461     
  0.13200000000000001         -20.045808792114258     
  0.13229999999999997         -21.821182250976562     
  0.13260000000000000         -22.412349700927734     
  0.13290000000000002         -21.717416763305664     
  0.13319999999999999         -19.730552673339844     
  0.13350000000000001         -16.541801452636719     
  0.13380000000000003         -12.332244873046875     
  0.13410000000000000         -7.3593387603759766     
  0.13440000000000002         -1.9362823963165283     
  0.13469999999999999          3.5926511287689209     
  0.13500000000000001          8.8802900314331055     
  0.13529999999999998          13.600790977478027     
  0.13560000000000000          17.475646972656250     
  0.13590000000000002          20.289161682128906     
  0.13619999999999999          21.904470443725586     
  0.13650000000000001          22.263853073120117     
  0.13680000000000003          21.392173767089844     
  0.13710000000000000          19.386587142944336     
  0.13740000000000002          16.405984878540039     
  0.13769999999999999          12.656087875366211     
  0.13800000000000001          8.3697948455810547     
  0.13829999999999998          3.7955124378204346     
  0.13860000000000000        -0.82451236248016357     
  0.13890000000000002         -5.2610454559326172     
  0.13919999999999999         -9.3153457641601562     
  0.13950000000000001         -12.820955276489258     
  0.13979999999999998         -15.651511192321777     
  0.14010000000000000         -17.721031188964844     
  0.14040000000000002         -18.984718322753906     
  0.14069999999999999         -19.433658599853516     
  0.14100000000000001         -19.094076156616211     
  0.14130000000000004         -18.019899368286133     
  0.14160000000000000         -16.288173675537109     
  0.14189999999999997         -13.993909835815430     
  0.14219999999999999         -11.243174552917480     
  0.14250000000000002         -8.1499414443969727     
  0.14279999999999998         -4.8303203582763672     
  0.14310000000000000         -1.3990142345428467     
  0.14339999999999997          2.0343346595764160     
  0.14369999999999999          5.3664216995239258     
  0.14400000000000002          8.5043849945068359     
  0.14429999999999998          11.365261077880859     
  0.14460000000000001          13.878767013549805     
  0.14490000000000003          15.988576889038086     
  0.14520000000000000          17.651105880737305     
  0.14550000000000002          18.837533950805664     
  0.14579999999999999          19.534957885742188     
  0.14610000000000001          19.741836547851562     
  0.14640000000000003          19.474258422851562     
  0.14670000000000000          18.754684448242188     
  0.14699999999999996          17.624090194702148     
  0.14729999999999999          16.123697280883789     
  0.14760000000000001          14.306612014770508     
  0.14789999999999998          12.228649139404297     
  0.14820000000000000          9.9452857971191406     