  -1.4999999999999999E-002     0.0000000000000000     
  -1.4700000000000000E-002     0.0000000000000000     
  -1.4400000000000000E-002     0.0000000000000000     
  -1.4100000000000000E-002     0.0000000000000000     
  -1.3800000000000000E-002     0.0000000000000000     
  -1.3500000000000000E-002     0.0000000000000000     
  -1.3200000000000000E-002     0.0000000000000000     
  -1.2899999999999998E-002     0.0000000000000000     
  -1.2600000000000000E-002     0.0000000000000000     
  -1.2299999999999998E-002     0.0000000000000000     
  -1.2000000000000000E-002     0.0000000000000000     
  -1.1699999999999999E-002     0.0000000000000000     
  -1.1399999999999999E-002     0.0000000000000000     
  -1.1099999999999999E-002     0.0000000000000000     
  -1.0799999999999999E-002     0.0000000000000000     
  -1.0499999999999999E-002     0.0000000000000000     
  -1.0199999999999999E-002     0.0000000000000000     
  -9.8999999999999991E-003     0.0000000000000000     
  -9.5999999999999992E-003     0.0000000000000000     
  -9.2999999999999992E-003     0.0000000000000000     
  -8.9999999999999993E-003     0.0000000000000000     
  -8.6999999999999994E-003     0.0000000000000000     
  -8.3999999999999995E-003     0.0000000000000000     
  -8.0999999999999996E-003     0.0000000000000000     
  -7.7999999999999988E-003     0.0000000000000000     
  -7.4999999999999997E-003     0.0000000000000000     
  -7.1999999999999998E-003     0.0000000000000000     
  -6.8999999999999981E-003     0.0000000000000000     
  -6.5999999999999982E-003     0.0000000000000000     
  -6.3000000000000000E-003     0.0000000000000000     
  -6.0000000000000001E-003     0.0000000000000000     
  -5.6999999999999985E-003     0.0000000000000000     
  -5.3999999999999986E-003     0.0000000000000000     
  -5.1000000000000004E-003     0.0000000000000000     
  -4.7999999999999987E-003     0.0000000000000000     
  -4.5000000000000005E-003     0.0000000000000000     
  -4.1999999999999989E-003     0.0000000000000000     
  -3.8999999999999990E-003     0.0000000000000000     
  -3.5999999999999990E-003     0.0000000000000000     
  -3.2999999999999991E-003     0.0000000000000000     
  -2.9999999999999992E-003     0.0000000000000000     
  -2.6999999999999993E-003     0.0000000000000000     
  -2.3999999999999994E-003     0.0000000000000000     
  -2.0999999999999977E-003     0.0000000000000000     
  -1.7999999999999995E-003     0.0000000000000000     
  -1.4999999999999979E-003     0.0000000000000000     
  -1.1999999999999997E-003     0.0000000000000000     
  -8.9999999999999976E-004     0.0000000000000000     
  -5.9999999999999810E-004     0.0000000000000000     
  -2.9999999999999992E-004     0.0000000000000000     
   0.0000000000000000          0.0000000000000000     
   3.0000000000000165E-004     0.0000000000000000     
   5.9999999999999984E-004     0.0000000000000000     
   9.0000000000000149E-004     0.0000000000000000     
   1.2000000000000031E-003     0.0000000000000000     
   1.5000000000000013E-003     0.0000000000000000     
   1.8000000000000030E-003     0.0000000000000000     
   2.1000000000000012E-003     0.0000000000000000     
   2.3999999999999994E-003     0.0000000000000000     
   2.7000000000000010E-003     0.0000000000000000     
   2.9999999999999992E-003     0.0000000000000000     
   3.3000000000000008E-003     0.0000000000000000     
   3.6000000000000025E-003     0.0000000000000000     
   3.9000000000000007E-003     0.0000000000000000     
   4.2000000000000023E-003     0.0000000000000000     
   4.5000000000000005E-003     0.0000000000000000     
   4.7999999999999987E-003     0.0000000000000000     
   5.1000000000000004E-003     0.0000000000000000     
   5.4000000000000020E-003     0.0000000000000000     
   5.7000000000000037E-003     0.0000000000000000     
   5.9999999999999984E-003     0.0000000000000000     
   6.3000000000000000E-003     0.0000000000000000     
   6.6000000000000017E-003     0.0000000000000000     
   6.9000000000000034E-003     0.0000000000000000     
   7.2000000000000015E-003     0.0000000000000000     
   7.5000000000000032E-003     0.0000000000000000     
   7.8000000000000014E-003     0.0000000000000000     
   8.0999999999999996E-003     0.0000000000000000     
   8.4000000000000012E-003     0.0000000000000000     
   8.7000000000000029E-003     0.0000000000000000     
   9.0000000000000011E-003     0.0000000000000000     
   9.2999999999999992E-003     0.0000000000000000     
   9.6000000000000009E-003     0.0000000000000000     
   9.8999999999999991E-003     0.0000000000000000     
   1.0200000000000001E-002     0.0000000000000000     
   1.0500000000000002E-002     0.0000000000000000     
   1.0800000000000004E-002     0.0000000000000000     
   1.1099999999999999E-002     0.0000000000000000     
   1.1400000000000000E-002     0.0000000000000000     
   1.1700000000000002E-002     0.0000000000000000     
   1.2000000000000004E-002     0.0000000000000000     
   1.2300000000000002E-002     0.0000000000000000     
   1.2600000000000000E-002     0.0000000000000000     
   1.2900000000000002E-002     0.0000000000000000     
   1.3200000000000000E-002     0.0000000000000000     
   1.3500000000000002E-002     0.0000000000000000     
   1.3800000000000003E-002     0.0000000000000000     
   1.4100000000000001E-002     0.0000000000000000     
   1.4400000000000000E-002     0.0000000000000000     
   1.4700000000000001E-002     0.0000000000000000     
   1.4999999999999999E-002     0.0000000000000000     
   1.5300000000000001E-002     0.0000000000000000     
   1.5600000000000003E-002     0.0000000000000000     
   1.5899999999999997E-002     0.0000000000000000     
   1.6199999999999999E-002     0.0000000000000000     
   1.6500000000000001E-002     0.0000000000000000     
   1.6800000000000002E-002     0.0000000000000000     
   1.7100000000000004E-002     0.0000000000000000     
   1.7400000000000006E-002     0.0000000000000000     
   1.7700000000000000E-002     0.0000000000000000     
   1.8000000000000002E-002     0.0000000000000000     
   1.8300000000000004E-002     0.0000000000000000     
   1.8600000000000005E-002     0.0000000000000000     
   1.8900000000000000E-002     0.0000000000000000     
   1.9200000000000002E-002     0.0000000000000000     
   1.9500000000000003E-002     0.0000000000000000     
   1.9799999999999998E-002     0.0000000000000000     
   2.0100000000000000E-002     0.0000000000000000     
   2.0400000000000001E-002     0.0000000000000000     
   2.0700000000000003E-002     0.0000000000000000     
   2.0999999999999998E-002     0.0000000000000000     
   2.1299999999999999E-002     0.0000000000000000     
   2.1600000000000001E-002     2.9043359055224560E-037
   2.1900000000000003E-002     1.7995278831598948E-035
   2.2200000000000004E-002    -9.3138607410162048E-035
   2.2500000000000006E-002     2.1326782785327599E-034
   2.2800000000000001E-002    -3.4529406131716922E-035
   2.3100000000000002E-002     2.7446502802979394E-034
   2.3400000000000004E-002     4.6526888333236754E-034
   2.3699999999999999E-002    -1.4068641488297536E-033
   2.4000000000000000E-002    -1.5213211154143582E-033
   2.4300000000000002E-002     8.1332725966462700E-033
   2.4599999999999997E-002    -9.2530514539754582E-033
   2.4900000000000005E-002    -3.6148100653296338E-033
   2.5200000000000000E-002     1.5181416970689716E-032
   2.5499999999999995E-002     2.9646625804574551E-032
   2.5800000000000003E-002    -1.9016512840653523E-031
   2.6099999999999998E-002     5.3929249893409050E-031
   2.6400000000000007E-002    -1.2670790905253613E-030
   2.6700000000000002E-002     2.3073784254663565E-030
   2.6999999999999996E-002     5.1368350814549438E-032
   2.7300000000000005E-002    -2.6420231977782217E-029
   2.7600000000000000E-002     1.4952710643341047E-028
   2.7900000000000008E-002    -5.5573368176299643E-028
   2.8200000000000003E-002     1.6049351042597180E-027
   2.8499999999999998E-002    -3.9857050865615848E-027
   2.8800000000000006E-002     9.9026649286206473E-027
   2.9100000000000001E-002    -2.5753094563574842E-026
   2.9400000000000003E-002     4.3472639209556849E-026
   2.9700000000000004E-002     1.4827639115712087E-025
   3.0000000000000006E-002    -1.8205738234056699E-024
   3.0300000000000001E-002     9.5501749439635569E-024
   3.0600000000000002E-002    -3.2760841191194966E-023
   3.0900000000000004E-002     6.8901604262463669E-023
   3.1199999999999999E-002    -8.4756004517850729E-024
   3.1500000000000007E-002    -6.3221812055759626E-022
   3.1800000000000002E-002     3.0092850879518320E-021
   3.2099999999999997E-002    -7.9472257846020105E-021
   3.2400000000000005E-002     9.8473582024514826E-021
   3.2700000000000000E-002     1.7899959042274506E-020
   3.3000000000000002E-002    -1.3203560335147997E-019
   3.3300000000000003E-002     3.6271771632752523E-019
   3.3599999999999998E-002    -5.1146536658229686E-019
   3.3900000000000000E-002    -7.2830396577241365E-020
   3.4200000000000001E-002     2.1291937091893108E-018
   3.4500000000000003E-002    -5.2220276029942160E-018
   3.4799999999999998E-002     8.8415383529547503E-018
   3.5099999999999999E-002    -2.3729654487108826E-017
   3.5400000000000001E-002     8.4564871013002960E-017
   3.5699999999999996E-002    -1.7883798368118148E-016
   3.6000000000000004E-002    -7.6241151032228855E-017
   3.6299999999999999E-002     1.8881679412948967E-015
   3.6600000000000008E-002    -6.4325613249611308E-015
   3.6900000000000002E-002     9.3801224789911639E-015
   3.7199999999999997E-002     9.8022769236391291E-015
   3.7500000000000006E-002    -8.6272704475157114E-014
   3.7800000000000000E-002     2.0442198281345192E-013
   3.8100000000000009E-002    -1.2652553971984754E-013
   3.8400000000000004E-002    -7.1479584404232632E-013
   3.8699999999999998E-002     2.5923156850293783E-012
   3.9000000000000007E-002    -3.3214563911754258E-012
   3.9300000000000002E-002    -4.0231672160384591E-012
   3.9600000000000003E-002     2.6017812904122195E-011
   3.9900000000000005E-002    -4.5197505460503606E-011
   4.0200000000000000E-002    -1.3325882064485484E-011
   4.0500000000000001E-002     2.4725296809968711E-010
   4.0800000000000003E-002    -5.1690007829563456E-010
   4.1100000000000005E-002    -3.5011257781825122E-011
   4.1399999999999999E-002     2.6941568975757946E-009
   4.1700000000000008E-002    -5.4992996822988971E-009
   4.2000000000000003E-002    -3.3234581753305292E-009
   4.2299999999999997E-002     3.5139184006993673E-008
   4.2600000000000006E-002    -3.8703973359588417E-008
   4.2900000000000001E-002    -1.3523917630209326E-007
   4.3200000000000002E-002     3.4654254932320327E-007
   4.3500000000000004E-002     3.4891095879174827E-007
   4.3799999999999999E-002    -2.1154087335162330E-006
   4.4100000000000000E-002    -2.9429060077745817E-007
   4.4400000000000002E-002     2.0486668290686794E-005
   4.4700000000000004E-002     5.6838704040274024E-005
   4.4999999999999998E-002     8.1465019320603460E-005
   4.5300000000000000E-002     8.6181382357608527E-005
   4.5600000000000002E-002     1.0106957051903009E-004
   4.5899999999999996E-002     1.5224210801534355E-004
   4.6200000000000005E-002     2.4189610849134624E-004
   4.6500000000000000E-002     3.7498885649256408E-004
   4.6799999999999994E-002     5.6249671615660191E-004
   4.7100000000000003E-002     8.1149773905053735E-004
   4.7399999999999998E-002     1.1426970595493913E-003
   4.7700000000000006E-002     1.5921018784865737E-003
   4.8000000000000001E-002     2.1833661012351513E-003
   4.8300000000000010E-002     2.9235661495476961E-003
   4.8600000000000004E-002     3.8236887194216251E-003
   4.8899999999999999E-002     4.8923906870186329E-003
   4.9200000000000008E-002     6.0949078761041164E-003
   4.9500000000000002E-002     7.3327217251062393E-003
   4.9800000000000011E-002     8.4648579359054565E-003
   5.0100000000000006E-002     9.2976270243525505E-003
   5.0400000000000000E-002     9.5231048762798309E-003
   5.0700000000000009E-002     8.6902296170592308E-003
   5.1000000000000004E-002     6.2360726296901703E-003
   5.1299999999999998E-002     1.4997815014794469E-003
   5.1600000000000007E-002    -6.3141114078462124E-003
   5.1900000000000002E-002    -1.8110193312168121E-002
   5.2200000000000010E-002    -3.4769490361213684E-002
   5.2500000000000005E-002    -5.7057194411754608E-002
   5.2800000000000000E-002    -8.5597418248653412E-002
   5.3099999999999994E-002   -0.12069546431303024     
   5.3400000000000003E-002   -0.16205486655235291     
   5.3699999999999998E-002   -0.20864734053611755     
   5.4000000000000006E-002   -0.25863358378410339     
   5.4300000000000001E-002   -0.30919358134269714     
   5.4599999999999996E-002   -0.35641592741012573     
   5.4900000000000004E-002   -0.39540812373161316     
   5.5199999999999999E-002   -0.42047059535980225     
   5.5499999999999994E-002   -0.42535066604614258     
   5.5800000000000002E-002   -0.40364357829093933     
   5.6099999999999997E-002   -0.34940838813781738     
   5.6400000000000006E-002   -0.25790777802467346     
   5.6700000000000000E-002   -0.12612837553024292     
   5.6999999999999995E-002     4.6426203101873398E-002
   5.7300000000000004E-002    0.25714474916458130     
   5.7599999999999998E-002    0.50006204843521118     
   5.7900000000000007E-002    0.76556259393692017     
   5.8200000000000002E-002     1.0406864881515503     
   5.8499999999999996E-002     1.3096557855606079     
   5.8800000000000005E-002     1.5546503067016602     
   5.9100000000000000E-002     1.7571653127670288     
   5.9400000000000008E-002     1.8992636203765869     
   5.9700000000000003E-002     1.9650005102157593     
   6.0000000000000012E-002     1.9421606063842773     
   6.0300000000000006E-002     1.8232704401016235     
   6.0600000000000001E-002     1.6066538095474243     
   6.0900000000000010E-002     1.2971985340118408     
   6.1200000000000004E-002    0.90612769126892090     
   6.1500000000000013E-002    0.45062959194183350     
   6.1800000000000008E-002    -4.6866379678249359E-002
   6.2100000000000002E-002   -0.56077849864959717     
   6.2399999999999997E-002    -1.0633019208908081     
   6.2700000000000006E-002    -1.5268770456314087     
   6.3000000000000000E-002    -1.9264985322952271     
   6.3300000000000009E-002    -2.2406115531921387     
   6.3600000000000004E-002    -2.4533641338348389     
   6.3899999999999998E-002    -2.5558047294616699     
   6.4199999999999993E-002    -2.5459194183349609     
   6.4500000000000002E-002    -2.4289634227752686     
   6.4800000000000010E-002    -2.2170348167419434     
   6.5100000000000005E-002    -1.9276704788208008     
   6.5400000000000000E-002    -1.5827193260192871     
   6.5700000000000008E-002    -1.2065502405166626     
   6.5999999999999989E-002   -0.82401627302169800     
   6.6299999999999998E-002   -0.45869973301887512     
   6.6600000000000006E-002   -0.13153526186943054     
   6.6900000000000001E-002    0.14078861474990845     
   6.7199999999999996E-002    0.34670713543891907     
   6.7500000000000004E-002    0.47999614477157593     
   6.7800000000000013E-002    0.54010111093521118     
   6.8099999999999994E-002    0.53173094987869263     
   6.8400000000000002E-002    0.46361833810806274     
   6.8700000000000011E-002    0.34813970327377319     
   6.8999999999999992E-002    0.20003485679626465     
   6.9300000000000000E-002     3.4815326333045959E-002
   6.9600000000000009E-002   -0.13162116706371307     
   6.9900000000000004E-002   -0.28438025712966919     
   7.0199999999999999E-002   -0.41053357720375061     
   7.0500000000000007E-002   -0.49903377890586853     
   7.0800000000000016E-002   -0.54182684421539307     
   7.1099999999999997E-002   -0.53370052576065063     
   7.1400000000000005E-002   -0.47215470671653748     
   7.1700000000000000E-002   -0.35794448852539062     
   7.1999999999999995E-002   -0.19441355764865875     
   7.2300000000000003E-002     1.2700764462351799E-002
   7.2600000000000012E-002    0.25519403815269470     
   7.2900000000000006E-002    0.52325302362442017     
   7.3200000000000001E-002    0.80560463666915894     
   7.3499999999999996E-002     1.0900266170501709     
   7.3800000000000004E-002     1.3641710281372070     
   7.4099999999999999E-002     1.6157392263412476     
   7.4400000000000008E-002     1.8334362506866455     
   7.4700000000000003E-002     2.0072896480560303     
   7.5000000000000011E-002     2.1289522647857666     
   7.5299999999999992E-002     2.1925232410430908     
   7.5600000000000001E-002     2.1942873001098633     
   7.5900000000000009E-002     2.1329588890075684     
   7.6200000000000004E-002     2.0100100040435791     
   7.6499999999999999E-002     1.8288837671279907     
   7.6800000000000007E-002     1.5953289270401001     
   7.7099999999999988E-002     1.3172202110290527     
   7.7399999999999997E-002     1.0035411119461060     
   7.7700000000000005E-002    0.66458618640899658     
   7.8000000000000014E-002    0.31173330545425415     
   7.8299999999999995E-002    -4.3763548135757446E-002
   7.8600000000000003E-002   -0.39029401540756226     
   7.8900000000000012E-002   -0.71698611974716187     
   7.9199999999999993E-002    -1.0141730308532715     
   7.9500000000000001E-002    -1.2732118368148804     
   7.9800000000000010E-002    -1.4878078699111938     
   8.0100000000000018E-002    -1.6539745330810547     
   8.0399999999999999E-002    -1.7696275711059570     
   8.0700000000000008E-002    -1.8356837034225464     
   8.1000000000000003E-002    -1.8552606105804443     
   8.1299999999999997E-002    -1.8331383466720581     
   8.1600000000000006E-002    -1.7759482860565186     
   8.1900000000000014E-002    -1.6909241676330566     
   8.2199999999999995E-002    -1.5852544307708740     
   8.2500000000000004E-002    -1.4658204317092896     
   8.2799999999999999E-002    -1.3380692005157471     
   8.3100000000000007E-002    -1.2058062553405762     
   8.3400000000000002E-002    -1.0710710287094116     
   8.3700000000000011E-002   -0.93391865491867065     
   8.4000000000000005E-002   -0.79287469387054443     
   8.4300000000000000E-002   -0.64536947011947632     
   8.4599999999999995E-002   -0.48808860778808594     
   8.4900000000000003E-002   -0.31789723038673401     
   8.5199999999999998E-002   -0.13247041404247284     
   8.5500000000000007E-002     6.9381996989250183E-002
   8.5800000000000001E-002    0.28701046109199524     
   8.6100000000000010E-002    0.51768511533737183     
   8.6399999999999991E-002    0.75690072774887085     
   8.6699999999999999E-002    0.99814563989639282     
   8.7000000000000008E-002     1.2330994606018066     
   8.7300000000000003E-002     1.4525983333587646     
   8.7599999999999997E-002     1.6464610099792480     
   8.7900000000000006E-002     1.8044176101684570     
   8.8200000000000014E-002     1.9167236089706421     
   8.8499999999999995E-002     1.9743276834487915     
   8.8800000000000004E-002     1.9699059724807739     
   8.9100000000000013E-002     1.8981621265411377     
   8.9399999999999993E-002     1.7561920881271362     
   8.9700000000000002E-002     1.5442703962326050     
   9.0000000000000011E-002     1.2659262418746948     
   9.0299999999999991E-002    0.92832440137863159     
   9.0600000000000000E-002    0.54245281219482422     
   9.0900000000000009E-002    0.12255761027336121     
   9.1200000000000017E-002   -0.31384253501892090     
   9.1499999999999998E-002   -0.74664765596389771     
   9.1800000000000007E-002    -1.1547781229019165     
   9.2100000000000001E-002    -1.5164439678192139     
   9.2399999999999996E-002    -1.8111367225646973     
   9.2700000000000005E-002    -2.0212488174438477     
   9.3000000000000013E-002    -2.1325829029083252     
   9.3300000000000008E-002    -2.1362273693084717     
   9.3600000000000003E-002    -2.0296139717102051     
   9.3899999999999997E-002    -1.8161915540695190     
   9.4200000000000006E-002    -1.5062267780303955     
   9.4500000000000001E-002    -1.1160674095153809     
   9.4800000000000009E-002   -0.66685050725936890     
   9.5100000000000004E-002   -0.18393370509147644     
   9.5399999999999999E-002    0.30537647008895874     
   9.5699999999999993E-002    0.77358889579772949     
   9.6000000000000002E-002     1.1942636966705322     
   9.6300000000000011E-002     1.5445462465286255     
   9.6600000000000005E-002     1.8062860965728760     
   9.6900000000000000E-002     1.9667838811874390     
   9.7200000000000009E-002     2.0202846527099609     
   9.7499999999999989E-002     1.9676232337951660     
   9.7799999999999998E-002     1.8157982826232910     
   9.8100000000000007E-002     1.5779441595077515     
   9.8400000000000015E-002     1.2716397047042847     
   9.8699999999999996E-002    0.91763061285018921     
   9.9000000000000005E-002    0.53864747285842896     
   9.9300000000000013E-002    0.15726535022258759     
   9.9599999999999994E-002   -0.20508123934268951     
   9.9900000000000003E-002   -0.52947658300399780     
  0.10020000000000001        -0.80077946186065674     
  0.10049999999999999         -1.0079658031463623     
  0.10080000000000000         -1.1445556879043579     
  0.10110000000000001         -1.2087203264236450     
  0.10140000000000000         -1.2028076648712158     
  0.10170000000000000         -1.1328095197677612     
  0.10200000000000001         -1.0078886747360229     
  0.10230000000000002        -0.83957701921463013     
  0.10260000000000000        -0.64073789119720459     
  0.10290000000000001        -0.42522117495536804     
  0.10320000000000000        -0.20715610682964325     
  0.10350000000000001         -1.3851933181285858E-004
  0.10380000000000000         0.18308751285076141     
  0.10410000000000001         0.33107557892799377     
  0.10440000000000001         0.43427911400794983     
  0.10470000000000000         0.48529928922653198     
  0.10500000000000000         0.47935044765472412     
  0.10530000000000000         0.41460585594177246     
  0.10560000000000000         0.29219359159469604     
  0.10590000000000001         0.11662641167640686     
  0.10620000000000000        -0.10436197370290756     
  0.10650000000000001        -0.36039349436759949     
  0.10679999999999999        -0.63848328590393066     
  0.10710000000000000        -0.92374771833419800     
  0.10740000000000001         -1.2005928754806519     
  0.10770000000000000         -1.4533700942993164     
  0.10800000000000000         -1.6671857833862305     
  0.10830000000000001         -1.8291032314300537     
  0.10859999999999999         -1.9287105798721313     
  0.10890000000000000         -1.9585964679718018     
  0.10920000000000001         -1.9148930311203003     
  0.10950000000000001         -1.7972581386566162     
  0.10979999999999999         -1.6086113452911377     
  0.11009999999999999         -1.3552228212356567     
  0.11040000000000001         -1.0459430217742920     
  0.11070000000000001        -0.69182747602462769     
  0.11100000000000000        -0.30581533908843994     
  0.11130000000000000          9.7845144569873810E-002
  0.11160000000000002         0.50412160158157349     
  0.11190000000000001         0.89741158485412598     
  0.11220000000000001          1.2620358467102051     
  0.11250000000000000          1.5830086469650269     
  0.11280000000000000          1.8463046550750732     
  0.11309999999999999          2.0397481918334961     
  0.11340000000000001          2.1538655757904053     
  0.11369999999999998          2.1822745800018311     
  0.11400000000000000          2.1229677200317383     
  0.11430000000000000          1.9785556793212891     
  0.11460000000000002          1.7563265562057495     
  0.11489999999999999          1.4689419269561768     
  0.11520000000000001          1.1331180334091187     
  0.11550000000000001         0.76907056570053101     
  0.11580000000000000         0.39960137009620667     
  0.11609999999999999          4.7816686332225800E-002
  0.11640000000000002        -0.26388213038444519     
  0.11670000000000001        -0.51577913761138916     
  0.11700000000000001        -0.69243073463439941     
  0.11730000000000000        -0.78306216001510620     
  0.11760000000000000        -0.78307735919952393     
  0.11789999999999999        -0.69379276037216187     
  0.11820000000000001        -0.52166694402694702     
  0.11850000000000001        -0.27851647138595581     
  0.11880000000000000          2.0527698099613190E-002
  0.11910000000000000         0.35798397660255432     
  0.11940000000000002         0.71449518203735352     
  0.11970000000000001          1.0711866617202759     
  0.12000000000000001          1.4097862243652344     
  0.12030000000000000          1.7130731344223022     
  0.12060000000000000          1.9662694931030273     
  0.12089999999999999          2.1561131477355957     
  0.12119999999999999          2.2716345787048340     
  0.12150000000000001          2.3045990467071533     
  0.12180000000000001          2.2484304904937744     
  0.12210000000000000          2.0996427536010742     
  0.12239999999999999          1.8579150438308716     
  0.12270000000000002          1.5256845951080322     
  0.12300000000000001          1.1100594997406006     
  0.12330000000000001         0.62189424037933350     
  0.12360000000000000          7.6387226581573486E-002
  0.12390000000000000        -0.50644677877426147     
  0.12419999999999999         -1.1035559177398682     
  0.12450000000000001         -1.6889537572860718     
  0.12480000000000001         -2.2346808910369873     
  0.12509999999999999         -2.7138082981109619     
  0.12540000000000001         -3.1008644104003906     
  0.12570000000000003         -3.3743345737457275     
  0.12600000000000000         -3.5187892913818359     
  0.12630000000000002         -3.5248744487762451     
  0.12659999999999999         -3.3917050361633301     
  0.12690000000000001         -3.1264567375183105     
  0.12719999999999998         -2.7430982589721680     
  0.12750000000000000         -2.2632422447204590     
  0.12780000000000002         -1.7131766080856323     
  0.12809999999999999         -1.1218156814575195     
  0.12840000000000001        -0.52009963989257812     
  0.12869999999999998          6.2972590327262878E-002
  0.12900000000000000         0.60133743286132812     
  0.12930000000000003          1.0726969242095947     
  0.12959999999999999          1.4617528915405273     
  0.12990000000000002          1.7585899829864502     
  0.13019999999999998          1.9594076871871948     
  0.13050000000000000          2.0673675537109375     
  0.13080000000000003          2.0894706249237061     
  0.13109999999999999          2.0369093418121338     
  0.13140000000000002          1.9241930246353149     
  0.13169999999999998          1.7659362554550171     
  0.13200000000000001          1.5774245262145996     
  0.13229999999999997          1.3730930089950562     
  0.13260000000000000          1.1642833948135376     
  0.13290000000000002         0.96040254831314087     
  0.13319999999999999         0.76733005046844482     
  0.13350000000000001         0.58704948425292969     
  0.13380000000000003         0.41902002692222595     
  0.13410000000000000         0.25914686918258667     
  0.13440000000000002         0.10104014724493027     
  0.13469999999999999         -6.2352560460567474E-002
  0.13500000000000001        -0.23909619450569153     
  0.13529999999999998        -0.43621078133583069     
  0.13560000000000000        -0.65824830532073975     
  0.13590000000000002        -0.90690654516220093     
  0.13619999999999999         -1.1798014640808105     
  0.13650000000000001         -1.4702903032302856     
  0.13680000000000003         -1.7675610780715942     
  0.13710000000000000         -2.0570199489593506     
  0.13740000000000002         -2.3215038776397705     
  0.13769999999999999         -2.5428392887115479     
  0.13800000000000001         -2.7035598754882812     
  0.13829999999999998         -2.7885608673095703     
  0.13860000000000000         -2.7871289253234863     
  0.13890000000000002         -2.6940143108367920     
  0.13919999999999999         -2.5098614692687988     
  0.13950000000000001         -2.2418267726898193     
  0.13979999999999998         -1.9027383327484131     
  0.14010000000000000         -1.5092123746871948     
  0.14040000000000002         -1.0808463096618652     
  0.14069999999999999        -0.63745629787445068     
  0.14100000000000001        -0.19691228866577148     
  0.14130000000000004         0.22593533992767334     
  0.14160000000000000         0.62134158611297607     
  0.14189999999999997         0.98518568277359009     
  0.14219999999999999          1.3179709911346436     
  0.14250000000000002          1.6248295307159424     
  0.14279999999999998          1.9137816429138184     
  0.14310000000000000          2.1931023597717285     
  0.14339999999999997          2.4700450897216797     
  0.14369999999999999          2.7483344078063965     
  0.14400000000000002          3.0265855789184570     
  0.14429999999999998          3.2981302738189697     
  0.14460000000000001          3.5501170158386230     
  0.14490000000000003          3.7649672031402588     
  0.14520000000000000          3.9221713542938232     
  0.14550000000000002          3.9999144077301025     
  0.14579999999999999          3.9783864021301270     
  0.14610000000000001          3.8421509265899658     
  0.14640000000000003          3.5823917388916016     
  0.14670000000000000          3.1990096569061279     
  0.14699999999999996          2.7011375427246094     
  0.14729999999999999          2.1073834896087646     
  0.14760000000000001          1.4444926977157593     
  0.14789999999999998         0.74522566795349121     
  0.14820000000000000          4.6068999916315079E-002