  -1.4999999999999999E-002     0.0000000000000000     
  -1.4700000000000000E-002     0.0000000000000000     
  -1.4400000000000000E-002     0.0000000000000000     
  -1.4100000000000000E-002     0.0000000000000000     
  -1.3800000000000000E-002     0.0000000000000000     
  -1.3500000000000000E-002     0.0000000000000000     
  -1.3200000000000000E-002     0.0000000000000000     
  -1.2899999999999998E-002     0.0000000000000000     
  -1.2600000000000000E-002     0.0000000000000000     
  -1.2299999999999998E-002     0.0000000000000000     
  -1.2000000000000000E-002     0.0000000000000000     
  -1.1699999999999999E-002     0.0000000000000000     
  -1.1399999999999999E-002     0.0000000000000000     
  -1.1099999999999999E-002     0.0000000000000000     
  -1.0799999999999999E-002     0.0000000000000000     
  -1.0499999999999999E-002     0.0000000000000000     
  -1.0199999999999999E-002     0.0000000000000000     
  -9.8999999999999991E-003     0.0000000000000000     
  -9.5999999999999992E-003     0.0000000000000000     
  -9.2999999999999992E-003     0.0000000000000000     
  -8.9999999999999993E-003     0.0000000000000000     
  -8.6999999999999994E-003     0.0000000000000000     
  -8.3999999999999995E-003     0.0000000000000000     
  -8.0999999999999996E-003     0.0000000000000000     
  -7.7999999999999988E-003     0.0000000000000000     
  -7.4999999999999997E-003     0.0000000000000000     
  -7.1999999999999998E-003     0.0000000000000000     
  -6.8999999999999981E-003     0.0000000000000000     
  -6.5999999999999982E-003     0.0000000000000000     
  -6.3000000000000000E-003     0.0000000000000000     
  -6.0000000000000001E-003     0.0000000000000000     
  -5.6999999999999985E-003     0.0000000000000000     
  -5.3999999999999986E-003     0.0000000000000000     
  -5.1000000000000004E-003     0.0000000000000000     
  -4.7999999999999987E-003     0.0000000000000000     
  -4.5000000000000005E-003     0.0000000000000000     
  -4.1999999999999989E-003     0.0000000000000000     
  -3.8999999999999990E-003     0.0000000000000000     
  -3.5999999999999990E-003     0.0000000000000000     
  -3.2999999999999991E-003     0.0000000000000000     
  -2.9999999999999992E-003     0.0000000000000000     
  -2.6999999999999993E-003     0.0000000000000000     
  -2.3999999999999994E-003     0.0000000000000000     
  -2.0999999999999977E-003     0.0000000000000000     
  -1.7999999999999995E-003     0.0000000000000000     
  -1.4999999999999979E-003     0.0000000000000000     
  -1.1999999999999997E-003     0.0000000000000000     
  -8.9999999999999976E-004     0.0000000000000000     
  -5.9999999999999810E-004     0.0000000000000000     
  -2.9999999999999992E-004     0.0000000000000000     
   0.0000000000000000          0.0000000000000000     
   3.0000000000000165E-004     0.0000000000000000     
   5.9999999999999984E-004     0.0000000000000000     
   9.0000000000000149E-004     0.0000000000000000     
   1.2000000000000031E-003     0.0000000000000000     
   1.5000000000000013E-003     0.0000000000000000     
   1.8000000000000030E-003     0.0000000000000000     
   2.1000000000000012E-003     0.0000000000000000     
   2.3999999999999994E-003     0.0000000000000000     
   2.7000000000000010E-003     0.0000000000000000     
   2.9999999999999992E-003     0.0000000000000000     
   3.3000000000000008E-003     0.0000000000000000     
   3.6000000000000025E-003     0.0000000000000000     
   3.9000000000000007E-003     0.0000000000000000     
   4.2000000000000023E-003     0.0000000000000000     
   4.5000000000000005E-003     0.0000000000000000     
   4.7999999999999987E-003     0.0000000000000000     
   5.1000000000000004E-003     0.0000000000000000     
   5.4000000000000020E-003     0.0000000000000000     
   5.7000000000000037E-003     0.0000000000000000     
   5.9999999999999984E-003     0.0000000000000000     
   6.3000000000000000E-003     0.0000000000000000     
   6.6000000000000017E-003     0.0000000000000000     
   6.9000000000000034E-003     0.0000000000000000     
   7.2000000000000015E-003     0.0000000000000000     
   7.5000000000000032E-003     0.0000000000000000     
   7.8000000000000014E-003     0.0000000000000000     
   8.0999999999999996E-003     0.0000000000000000     
   8.4000000000000012E-003     0.0000000000000000     
   8.7000000000000029E-003     0.0000000000000000     
   9.0000000000000011E-003     0.0000000000000000     
   9.2999999999999992E-003     0.0000000000000000     
   9.6000000000000009E-003     0.0000000000000000     
   9.8999999999999991E-003     0.0000000000000000     
   1.0200000000000001E-002     0.0000000000000000     
   1.0500000000000002E-002     0.0000000000000000     
   1.0800000000000004E-002     0.0000000000000000     
   1.1099999999999999E-002     0.0000000000000000     
   1.1400000000000000E-002     0.0000000000000000     
   1.1700000000000002E-002     0.0000000000000000     
   1.2000000000000004E-002     0.0000000000000000     
   1.2300000000000002E-002     0.0000000000000000     
   1.2600000000000000E-002     0.0000000000000000     
   1.2900000000000002E-002     0.0000000000000000     
   1.3200000000000000E-002     0.0000000000000000     
   1.3500000000000002E-002     0.0000000000000000     
   1.3800000000000003E-002     0.0000000000000000     
   1.4100000000000001E-002     0.0000000000000000     
   1.4400000000000000E-002     0.0000000000000000     
   1.4700000000000001E-002     0.0000000000000000     
   1.4999999999999999E-002     0.0000000000000000     
   1.5300000000000001E-002     0.0000000000000000     
   1.5600000000000003E-002     0.0000000000000000     
   1.5899999999999997E-002     0.0000000000000000     
   1.6199999999999999E-002     0.0000000000000000     
   1.6500000000000001E-002     0.0000000000000000     
   1.6800000000000002E-002     0.0000000000000000     
   1.7100000000000004E-002     0.0000000000000000     
   1.7400000000000006E-002     0.0000000000000000     
   1.7700000000000000E-002     0.0000000000000000     
   1.8000000000000002E-002     0.0000000000000000     
   1.8300000000000004E-002     0.0000000000000000     
   1.8600000000000005E-002     0.0000000000000000     
   1.8900000000000000E-002     0.0000000000000000     
   1.9200000000000002E-002     0.0000000000000000     
   1.9500000000000003E-002     0.0000000000000000     
   1.9799999999999998E-002     0.0000000000000000     
   2.0100000000000000E-002     0.0000000000000000     
   2.0400000000000001E-002     0.0000000000000000     
   2.0700000000000003E-002     0.0000000000000000     
   2.0999999999999998E-002     0.0000000000000000     
   2.1299999999999999E-002     0.0000000000000000     
   2.1600000000000001E-002     0.0000000000000000     
   2.1900000000000003E-002     0.0000000000000000     
   2.2200000000000004E-002     0.0000000000000000     
   2.2500000000000006E-002     0.0000000000000000     
   2.2800000000000001E-002     0.0000000000000000     
   2.3100000000000002E-002     0.0000000000000000     
   2.3400000000000004E-002     0.0000000000000000     
   2.3699999999999999E-002     0.0000000000000000     
   2.4000000000000000E-002     0.0000000000000000     
   2.4300000000000002E-002     0.0000000000000000     
   2.4599999999999997E-002     0.0000000000000000     
   2.4900000000000005E-002     0.0000000000000000     
   2.5200000000000000E-002     0.0000000000000000     
   2.5499999999999995E-002     0.0000000000000000     
   2.5800000000000003E-002     0.0000000000000000     
   2.6099999999999998E-002     0.0000000000000000     
   2.6400000000000007E-002     0.0000000000000000     
   2.6700000000000002E-002     0.0000000000000000     
   2.6999999999999996E-002     0.0000000000000000     
   2.7300000000000005E-002     0.0000000000000000     
   2.7600000000000000E-002     0.0000000000000000     
   2.7900000000000008E-002     0.0000000000000000     
   2.8200000000000003E-002     0.0000000000000000     
   2.8499999999999998E-002     0.0000000000000000     
   2.8800000000000006E-002     0.0000000000000000     
   2.9100000000000001E-002     1.5902955566855561E-036
   2.9400000000000003E-002     2.5609154623121271E-035
   2.9700000000000004E-002    -5.2440157563750576E-035
   3.0000000000000006E-002    -2.3928278057504538E-035
   3.0300000000000001E-002     3.1456821166954633E-034
   3.0600000000000002E-002    -5.0717594570540327E-034
   3.0900000000000004E-002     1.7423318694552029E-033
   3.1199999999999999E-002    -5.2169956411889650E-033
   3.1500000000000007E-002     1.9772561419743648E-032
   3.1800000000000002E-002    -8.5834991287650959E-032
   3.2099999999999997E-002     3.6720130146805843E-031
   3.2400000000000005E-002    -1.4159202792660274E-030
   3.2700000000000000E-002     4.5563842464991280E-030
   3.3000000000000002E-002    -1.0426830494053667E-029
   3.3300000000000003E-002     9.6324332925589264E-031
   3.3599999999999998E-002     1.7571749070939222E-028
   3.3900000000000000E-002    -1.3653830266554755E-027
   3.4200000000000001E-002     7.2597736660682417E-027
   3.4500000000000003E-002    -3.0540444878328281E-026
   3.4799999999999998E-002     1.0226283713482297E-025
   3.5099999999999999E-002    -2.5032240247657286E-025
   3.5400000000000001E-002     2.6950895415384187E-025
   3.5699999999999996E-002     1.2688192627451272E-024
   3.6000000000000004E-002    -9.7045700114725081E-024
   3.6299999999999999E-002     3.7800800939448730E-023
   3.6600000000000008E-002    -9.6856499715216874E-023
   3.6900000000000002E-002     1.1906215795805762E-022
   3.7199999999999997E-002     3.4791603295150520E-022
   3.7500000000000006E-002    -2.9802554105364823E-021
   3.7800000000000000E-002     1.2267857503637133E-020
   3.8100000000000009E-002    -3.6471023286445208E-020
   3.8400000000000004E-002     7.9321004962957943E-020
   3.8699999999999998E-002    -9.1411251279443456E-020
   3.9000000000000007E-002    -1.9675033706850751E-019
   3.9300000000000002E-002     1.6681327483292976E-018
   3.9600000000000003E-002    -6.2959913474478454E-018
   3.9900000000000005E-002     1.6251319709808816E-017
   4.0200000000000000E-002    -2.6741247043846988E-017
   4.0500000000000001E-002     3.6612908155199751E-018
   4.0800000000000003E-002     1.5425706108208208E-016
   4.1100000000000005E-002    -6.1255490451520077E-016
   4.1399999999999999E-002     1.3632498712992636E-015
   4.1700000000000008E-002    -1.4495984216456167E-015
   4.2000000000000003E-002    -2.1884826257109616E-015
   4.2299999999999997E-002     1.4097953693662478E-014
   4.2600000000000006E-002    -3.2502812426097108E-014
   4.2900000000000001E-002     3.0268149775860079E-014
   4.3200000000000002E-002     5.8577180107356741E-014
   4.3500000000000004E-002    -2.8155209825901639E-013
   4.3799999999999999E-002     4.5282918040290276E-013
   4.4100000000000000E-002     1.1932120601906154E-013
   4.4400000000000002E-002    -2.2725929211403484E-012
   4.4700000000000004E-002     4.7054187803097225E-012
   4.4999999999999998E-002     1.9103566385042514E-013
   4.5300000000000000E-002    -2.5840708045565819E-011
   4.5600000000000002E-002     6.8734060110209327E-011
   4.5899999999999996E-002    -4.7438882683215056E-011
   4.6200000000000005E-002    -2.4990770564059517E-010
   4.6500000000000000E-002     9.7688923617056389E-010
   4.6799999999999994E-002    -1.3493274275688805E-009
   4.7100000000000003E-002    -1.8084902464465813E-009
   4.7399999999999998E-002     1.2473345911701017E-008
   4.7700000000000006E-002    -2.0456523586176445E-008
   4.8000000000000001E-002    -2.7552381709483598E-008
   4.8300000000000010E-002     1.7487518277903291E-007
   4.8600000000000004E-002    -1.7898827309181797E-007
   4.8899999999999999E-002    -8.8951651378010865E-007
   4.9200000000000008E-002     3.1268068596546073E-006
   4.9500000000000002E-002     1.3637242773256730E-005
   4.9800000000000011E-002     2.1626981833833270E-005
   5.0100000000000006E-002     2.6194673409918323E-005
   5.0400000000000000E-002     3.7164896639296785E-005
   5.0700000000000009E-002     5.3516785555984825E-005
   5.1000000000000004E-002     7.8191471402533352E-005
   5.1299999999999998E-002     1.2008703197352588E-004
   5.1600000000000007E-002     1.7870216106530279E-004
   5.1900000000000002E-002     2.6733940467238426E-004
   5.2200000000000010E-002     3.9916377863846719E-004
   5.2500000000000005E-002     5.7085859589278698E-004
   5.2800000000000000E-002     7.9634104622527957E-004
   5.3099999999999994E-002     1.1060420656576753E-003
   5.3400000000000003E-002     1.5106745995581150E-003
   5.3699999999999998E-002     2.0109063480049372E-003
   5.4000000000000006E-002     2.6280446909368038E-003
   5.4300000000000001E-002     3.3632935956120491E-003
   5.4599999999999996E-002     4.2064557783305645E-003
   5.4900000000000004E-002     5.1390859298408031E-003
   5.5199999999999999E-002     6.0903672128915787E-003
   5.5499999999999994E-002     6.9771287962794304E-003
   5.5800000000000002E-002     7.6708639971911907E-003
   5.6099999999999997E-002     7.9861693084239960E-003
   5.6400000000000006E-002     7.6811797916889191E-003
   5.6700000000000000E-002     6.4400527626276016E-003
   5.6999999999999995E-002     3.9466884918510914E-003
   5.7300000000000004E-002    -1.5950300439726561E-004
   5.7599999999999998E-002    -6.3087907619774342E-003
   5.7900000000000007E-002    -1.4912109822034836E-002
   5.8200000000000002E-002    -2.6258414611220360E-002
   5.8499999999999996E-002    -4.0556807070970535E-002
   5.8800000000000005E-002    -5.7918366044759750E-002
   5.9100000000000000E-002    -7.8201971948146820E-002
   5.9400000000000008E-002   -0.10102316737174988     
   5.9700000000000003E-002   -0.12572702765464783     
   6.0000000000000012E-002   -0.15139341354370117     
   6.0300000000000006E-002   -0.17685569822788239     
   6.0600000000000001E-002   -0.20069977641105652     
   6.0900000000000010E-002   -0.22139635682106018     
   6.1200000000000004E-002   -0.23739022016525269     
   6.1500000000000013E-002   -0.24721166491508484     
   6.1800000000000008E-002   -0.24957983195781708     
   6.2100000000000002E-002   -0.24357962608337402     
   6.2399999999999997E-002   -0.22870902717113495     
   6.2700000000000006E-002   -0.20496053993701935     
   6.3000000000000000E-002   -0.17286051809787750     
   6.3300000000000009E-002   -0.13333596289157867     
   6.3600000000000004E-002    -8.7809525430202484E-002
   6.3899999999999998E-002    -3.7988629192113876E-002
   6.4199999999999993E-002     1.4255298301577568E-002
   6.4500000000000002E-002     6.7025922238826752E-002
   6.4800000000000010E-002    0.11844912916421890     
   6.5100000000000005E-002    0.16678206622600555     
   6.5400000000000000E-002    0.21046935021877289     
   6.5700000000000008E-002    0.24820716679096222     
   6.5999999999999989E-002    0.27878466248512268     
   6.6299999999999998E-002    0.30123466253280640     
   6.6600000000000006E-002    0.31455677747726440     
   6.6900000000000001E-002    0.31798198819160461     
   6.7199999999999996E-002    0.31082135438919067     
   6.7500000000000004E-002    0.29266044497489929     
   6.7800000000000013E-002    0.26339852809906006     
   6.8099999999999994E-002    0.22351187467575073     
   6.8400000000000002E-002    0.17417605221271515     
   6.8700000000000011E-002    0.11742515861988068     
   6.8999999999999992E-002     5.6202102452516556E-002
   6.9300000000000000E-002    -5.6091560982167721E-003
   6.9600000000000009E-002    -6.3430741429328918E-002
   6.9900000000000004E-002   -0.11203961074352264     
   7.0199999999999999E-002   -0.14640213549137115     
   7.0500000000000007E-002   -0.16156330704689026     
   7.0800000000000016E-002   -0.15376031398773193     
   7.1099999999999997E-002   -0.12036148458719254     
   7.1400000000000005E-002    -6.0665428638458252E-002
   7.1700000000000000E-002     2.3939052596688271E-002
   7.1999999999999995E-002    0.13010989129543304     
   7.2300000000000003E-002    0.25235089659690857     
   7.2600000000000012E-002    0.38383558392524719     
   7.2900000000000006E-002    0.51636517047882080     
   7.3200000000000001E-002    0.64162623882293701     
   7.3499999999999996E-002    0.75141727924346924     
   7.3800000000000004E-002    0.83872675895690918     
   7.4099999999999999E-002    0.89808881282806396     
   7.4400000000000008E-002    0.92605566978454590     
   7.4700000000000003E-002    0.92146229743957520     
   7.5000000000000011E-002    0.88520741462707520     
   7.5299999999999992E-002    0.82018560171127319     
   7.5600000000000001E-002    0.73069351911544800     
   7.5900000000000009E-002    0.62175613641738892     
   7.6200000000000004E-002    0.49885788559913635     
   7.6499999999999999E-002    0.36691734194755554     
   7.6800000000000007E-002    0.23017179965972900     
   7.7099999999999988E-002     9.1626234352588654E-002
   7.7399999999999997E-002    -4.6732291579246521E-002
   7.7700000000000005E-002   -0.18419070541858673     
   7.8000000000000014E-002   -0.32048526406288147     
   7.8299999999999995E-002   -0.45614993572235107     
   7.8600000000000003E-002   -0.59111547470092773     
   7.8900000000000012E-002   -0.72512388229370117     
   7.9199999999999993E-002   -0.85677337646484375     
   7.9500000000000001E-002   -0.98365026712417603     
   7.9800000000000010E-002    -1.1020250320434570     
   8.0100000000000018E-002    -1.2076547145843506     
   8.0399999999999999E-002    -1.2950985431671143     
   8.0700000000000008E-002    -1.3593810796737671     
   8.1000000000000003E-002    -1.3955245018005371     
   8.1299999999999997E-002    -1.3998537063598633     
   8.1600000000000006E-002    -1.3698083162307739     
   8.1900000000000014E-002    -1.3049472570419312     
   8.2199999999999995E-002    -1.2064447402954102     
   8.2500000000000004E-002    -1.0776896476745605     
   8.2799999999999999E-002   -0.92356383800506592     
   8.3100000000000007E-002   -0.75034075975418091     
   8.3400000000000002E-002   -0.56519031524658203     
   8.3700000000000011E-002   -0.37546074390411377     
   8.4000000000000005E-002   -0.18824484944343567     
   8.4300000000000000E-002    -9.7750965505838394E-003
   8.4599999999999995E-002    0.15476162731647491     
   8.4900000000000003E-002    0.30166059732437134     
   8.5199999999999998E-002    0.42897993326187134     
   8.5500000000000007E-002    0.53569400310516357     
   8.5800000000000001E-002    0.62234193086624146     
   8.6100000000000010E-002    0.69026440382003784     
   8.6399999999999991E-002    0.74091500043869019     
   8.6699999999999999E-002    0.77623772621154785     
   8.7000000000000008E-002    0.79729908704757690     
   8.7300000000000003E-002    0.80518543720245361     
   8.7599999999999997E-002    0.79983657598495483     
   8.7900000000000006E-002    0.78081011772155762     
   8.8200000000000014E-002    0.74720358848571777     
   8.8499999999999995E-002    0.69781529903411865     
   8.8800000000000004E-002    0.63185852766036987     
   8.9100000000000013E-002    0.54889005422592163     
   8.9399999999999993E-002    0.44947329163551331     
   8.9700000000000002E-002    0.33541303873062134     
   9.0000000000000011E-002    0.20951299369335175     
   9.0299999999999991E-002     7.5850620865821838E-002
   9.0600000000000000E-002    -6.0723870992660522E-002
   9.0900000000000009E-002   -0.19453755021095276     
   9.1200000000000017E-002   -0.32005172967910767     
   9.1499999999999998E-002   -0.43201059103012085     
   9.1800000000000007E-002   -0.52585798501968384     
   9.2100000000000001E-002   -0.59858834743499756     
   9.2399999999999996E-002   -0.64815515279769897     
   9.2700000000000005E-002   -0.67438375949859619     
   9.3000000000000013E-002   -0.67834186553955078     
   9.3300000000000008E-002   -0.66231626272201538     
   9.3600000000000003E-002   -0.62939929962158203     
   9.3899999999999997E-002   -0.58288013935089111     
   9.4200000000000006E-002   -0.52598941326141357     
   9.4500000000000001E-002   -0.46150866150856018     
   9.4800000000000009E-002   -0.39119756221771240     
   9.5100000000000004E-002   -0.31607654690742493     
   9.5399999999999999E-002   -0.23618663847446442     
   9.5699999999999993E-002   -0.15091590583324432     
   9.6000000000000002E-002    -5.9499856084585190E-002
   9.6300000000000011E-002     3.8874089717864990E-002
   9.6600000000000005E-002    0.14403927326202393     
   9.6900000000000000E-002    0.25522196292877197     
   9.7200000000000009E-002    0.36972442269325256     
   9.7499999999999989E-002    0.48411437869071960     
   9.7799999999999998E-002    0.59312391281127930     
   9.8100000000000007E-002    0.69091677665710449     
   9.8400000000000015E-002    0.77119135856628418     
   9.8699999999999996E-002    0.82803630828857422     
   9.9000000000000005E-002    0.85650360584259033     
   9.9300000000000013E-002    0.85332101583480835     
   9.9599999999999994E-002    0.81785577535629272     
   9.9900000000000003E-002    0.75172007083892822     
  0.10020000000000001         0.65950506925582886     
  0.10049999999999999         0.54841637611389160     
  0.10080000000000000         0.42758825421333313     
  0.10110000000000001         0.30746442079544067     
  0.10140000000000000         0.19931952655315399     
  0.10170000000000000         0.11337508261203766     
  0.10200000000000001          5.9029184281826019E-002
  0.10230000000000002          4.2627744376659393E-002
  0.10260000000000000          6.8213924765586853E-002
  0.10290000000000001         0.13581970334053040     
  0.10320000000000000         0.24240340292453766     
  0.10350000000000001         0.38092732429504395     
  0.10380000000000000         0.54209113121032715     
  0.10410000000000001         0.71383750438690186     
  0.10440000000000001         0.88295346498489380     
  0.10470000000000000          1.0356107950210571     
  0.10500000000000000          1.1586842536926270     
  0.10530000000000000          1.2402802705764771     
  0.10560000000000000          1.2709574699401855     
  0.10590000000000001          1.2435967922210693     
  0.10620000000000000          1.1545835733413696     
  0.10650000000000001          1.0034384727478027     
  0.10679999999999999         0.79315960407257080     
  0.10710000000000000         0.52979326248168945     
  0.10740000000000001         0.22221371531486511     
  0.10770000000000000        -0.11823193728923798     
  0.10800000000000000        -0.47813782095909119     
  0.10830000000000001        -0.84276187419891357     
  0.10859999999999999         -1.1963884830474854     
  0.10890000000000000         -1.5234799385070801     
  0.10920000000000001         -1.8085134029388428     
  0.10950000000000001         -2.0377182960510254     
  0.10979999999999999         -2.1989839076995850     
  0.11009999999999999         -2.2833220958709717     
  0.11040000000000001         -2.2852597236633301     
  0.11070000000000001         -2.2030026912689209     
  0.11100000000000000         -2.0400304794311523     
  0.11130000000000000         -1.8035761117935181     
  0.11160000000000002         -1.5059688091278076     
  0.11190000000000001         -1.1628404855728149     
  0.11220000000000001        -0.79298162460327148     
  0.11250000000000000        -0.41690337657928467     
  0.11280000000000000         -5.5235885083675385E-002
  0.11309999999999999         0.27205666899681091     
  0.11340000000000001         0.54819858074188232     
  0.11369999999999998         0.75981992483139038     
  0.11400000000000000         0.89841598272323608     
  0.11430000000000000         0.96079206466674805     
  0.11460000000000002         0.94914150238037109     
  0.11489999999999999         0.87051278352737427     
  0.11520000000000001         0.73635184764862061     
  0.11550000000000001         0.56082618236541748     
  0.11580000000000000         0.36050486564636230     
  0.11609999999999999         0.15129256248474121     
  0.11640000000000002         -5.0550721585750580E-002
  0.11670000000000001        -0.23207552731037140     
  0.11700000000000001        -0.38253501057624817     
  0.11730000000000000        -0.49471494555473328     
  0.11760000000000000        -0.56515824794769287     
  0.11789999999999999        -0.59346497058868408     
  0.11820000000000001        -0.58242452144622803     
  0.11850000000000001        -0.53690773248672485     
  0.11880000000000000        -0.46298113465309143     
  0.11910000000000000        -0.36778706312179565     
  0.11940000000000002        -0.25769987702369690     
  0.11970000000000001        -0.13911049067974091     
  0.12000000000000001         -1.6589043661952019E-002
  0.12030000000000000         0.10615739971399307     
  0.12060000000000000         0.22658950090408325     
  0.12089999999999999         0.34368896484375000     
  0.12119999999999999         0.45672857761383057     
  0.12150000000000001         0.56525355577468872     
  0.12180000000000001         0.66890776157379150     
  0.12210000000000000         0.76619231700897217     
  0.12239999999999999         0.85549813508987427     
  0.12270000000000002         0.93320697546005249     
  0.12300000000000001         0.99592417478561401     
  0.12330000000000001          1.0382983684539795     
  0.12360000000000000          1.0554019212722778     
  0.12390000000000000          1.0423964262008667     
  0.12419999999999999         0.99500775337219238     
  0.12450000000000001         0.91046398878097534     
  0.12480000000000001         0.78833180665969849     
  0.12509999999999999         0.62999415397644043     
  0.12540000000000001         0.44054651260375977     
  0.12570000000000003         0.22635774314403534     
  0.12600000000000000         -2.3135766386985779E-003
  0.12630000000000002        -0.23441742360591888     
  0.12659999999999999        -0.45736470818519592     
  0.12690000000000001        -0.65843242406845093     
  0.12719999999999998        -0.82643800973892212     
  0.12750000000000000        -0.95142954587936401     
  0.12780000000000002         -1.0275486707687378     
  0.12809999999999999         -1.0514017343521118     
  0.12840000000000001         -1.0251392126083374     
  0.12869999999999998        -0.95380300283432007     
  0.12900000000000000        -0.84714853763580322     
  0.12930000000000003        -0.71745645999908447     
  0.12959999999999999        -0.57910716533660889     
  0.12990000000000002        -0.44712358713150024     
  0.13019999999999998        -0.33554920554161072     
  0.13050000000000000        -0.25634613633155823     
  0.13080000000000003        -0.21802337467670441     
  0.13109999999999999        -0.22428837418556213     
  0.13140000000000002        -0.27429264783859253     
  0.13169999999999998        -0.36180740594863892     
  0.13200000000000001        -0.47580650448799133     
  0.13229999999999997        -0.60155707597732544     
  0.13260000000000000        -0.72155356407165527     
  0.13290000000000002        -0.81725579500198364     
  0.13319999999999999        -0.87093704938888550     
  0.13350000000000001        -0.86709284782409668     
  0.13380000000000003        -0.79423218965530396     
  0.13410000000000000        -0.64650762081146240     
  0.13440000000000002        -0.42428466677665710     
  0.13469999999999999        -0.13401025533676147     
  0.13500000000000001         0.21096989512443542     
  0.13529999999999998         0.59235501289367676     
  0.13560000000000000         0.98734140396118164     
  0.13590000000000002          1.3714597225189209     
  0.13619999999999999          1.7195020914077759     
  0.13650000000000001          2.0089197158813477     
  0.13680000000000003          2.2206525802612305     
  0.13710000000000000          2.3418459892272949     
  0.13740000000000002          2.3663468360900879     
  0.13769999999999999          2.2959768772125244     
  0.13800000000000001          2.1395184993743896     
  0.13829999999999998          1.9129991531372070     
  0.13860000000000000          1.6372574567794800     
  0.13890000000000002          1.3372834920883179     
  0.13919999999999999          1.0383620262145996     
  0.13950000000000001         0.76569557189941406     
  0.13979999999999998         0.54025149345397949     
  0.14010000000000000         0.37856692075729370     
  0.14040000000000002         0.29008322954177856     
  0.14069999999999999         0.27667185664176941     
  0.14100000000000001         0.33255836367607117     
  0.14130000000000004         0.44441846013069153     
  0.14160000000000000         0.59284561872482300     
  0.14189999999999997         0.75331407785415649     
  0.14219999999999999         0.89882814884185791     
  0.14250000000000002          1.0015108585357666     
  0.14279999999999998          1.0352598428726196     
  0.14310000000000000         0.97799205780029297     
  0.14339999999999997         0.81337457895278931     
  0.14369999999999999         0.53246468305587769     
  0.14400000000000002         0.13564400374889374     
  0.14429999999999998        -0.36884331703186035     
  0.14460000000000001        -0.96263444423675537     
  0.14490000000000003         -1.6203308105468750     
  0.14520000000000000         -2.3091800212860107     
  0.14550000000000002         -2.9924514293670654     
  0.14579999999999999         -3.6312427520751953     
  0.14610000000000001         -4.1871123313903809     
  0.14640000000000003         -4.6255087852478027     
  0.14670000000000000         -4.9173069000244141     
  0.14699999999999996         -5.0414996147155762     
  0.14729999999999999         -4.9872875213623047     
  0.14760000000000001         -4.7528338432312012     
  0.14789999999999998         -4.3478732109069824     
  0.14820000000000000         -3.7906544208526611     