  -1.4999999999999999E-002     0.0000000000000000     
  -1.4700000000000000E-002     0.0000000000000000     
  -1.4400000000000000E-002     0.0000000000000000     
  -1.4100000000000000E-002     0.0000000000000000     
  -1.3800000000000000E-002     0.0000000000000000     
  -1.3500000000000000E-002     0.0000000000000000     
  -1.3200000000000000E-002     0.0000000000000000     
  -1.2899999999999998E-002     0.0000000000000000     
  -1.2600000000000000E-002     0.0000000000000000     
  -1.2299999999999998E-002     0.0000000000000000     
  -1.2000000000000000E-002     0.0000000000000000     
  -1.1699999999999999E-002     0.0000000000000000     
  -1.1399999999999999E-002     0.0000000000000000     
  -1.1099999999999999E-002     0.0000000000000000     
  -1.0799999999999999E-002     0.0000000000000000     
  -1.0499999999999999E-002     0.0000000000000000     
  -1.0199999999999999E-002     0.0000000000000000     
  -9.8999999999999991E-003     0.0000000000000000     
  -9.5999999999999992E-003     0.0000000000000000     
  -9.2999999999999992E-003     0.0000000000000000     
  -8.9999999999999993E-003     0.0000000000000000     
  -8.6999999999999994E-003     0.0000000000000000     
  -8.3999999999999995E-003     0.0000000000000000     
  -8.0999999999999996E-003     0.0000000000000000     
  -7.7999999999999988E-003     0.0000000000000000     
  -7.4999999999999997E-003     0.0000000000000000     
  -7.1999999999999998E-003     0.0000000000000000     
  -6.8999999999999981E-003     0.0000000000000000     
  -6.5999999999999982E-003     0.0000000000000000     
  -6.3000000000000000E-003     0.0000000000000000     
  -6.0000000000000001E-003     0.0000000000000000     
  -5.6999999999999985E-003     0.0000000000000000     
  -5.3999999999999986E-003     0.0000000000000000     
  -5.1000000000000004E-003     0.0000000000000000     
  -4.7999999999999987E-003     0.0000000000000000     
  -4.5000000000000005E-003     0.0000000000000000     
  -4.1999999999999989E-003     0.0000000000000000     
  -3.8999999999999990E-003     0.0000000000000000     
  -3.5999999999999990E-003     0.0000000000000000     
  -3.2999999999999991E-003     0.0000000000000000     
  -2.9999999999999992E-003     0.0000000000000000     
  -2.6999999999999993E-003     0.0000000000000000     
  -2.3999999999999994E-003     0.0000000000000000     
  -2.0999999999999977E-003     0.0000000000000000     
  -1.7999999999999995E-003     0.0000000000000000     
  -1.4999999999999979E-003     0.0000000000000000     
  -1.1999999999999997E-003     0.0000000000000000     
  -8.9999999999999976E-004     0.0000000000000000     
  -5.9999999999999810E-004     0.0000000000000000     
  -2.9999999999999992E-004     0.0000000000000000     
   0.0000000000000000          0.0000000000000000     
   3.0000000000000165E-004     0.0000000000000000     
   5.9999999999999984E-004     8.2592326897728927E-037
   9.0000000000000149E-004    -4.4693545714592159E-036
   1.2000000000000031E-003     1.2824475929120251E-035
   1.5000000000000013E-003    -1.8852894208562233E-035
   1.8000000000000030E-003     1.6069394844564507E-035
   2.1000000000000012E-003    -2.0287172495581117E-034
   2.3999999999999994E-003     5.1186996116646377E-035
   2.7000000000000010E-003    -5.3661909038931249E-035
   2.9999999999999992E-003     2.4137256851510123E-033
   3.3000000000000008E-003    -6.5187288283540921E-033
   3.6000000000000025E-003     1.8769908532288117E-032
   3.9000000000000007E-003    -3.7563163004244528E-032
   4.2000000000000023E-003    -2.8761590104551012E-033
   4.5000000000000005E-003     2.5823071445560392E-031
   4.7999999999999987E-003    -7.5044564064913582E-031
   5.1000000000000004E-003     7.3083949135849549E-031
   5.4000000000000020E-003     1.7978981188221582E-030
   5.7000000000000037E-003    -8.4044238432514081E-030
   5.9999999999999984E-003     1.3858475523615768E-029
   6.3000000000000000E-003     2.1115679817112542E-030
   6.6000000000000017E-003    -6.5728919304126149E-029
   6.9000000000000034E-003     1.5425852389675910E-028
   7.2000000000000015E-003    -1.1378663484461781E-028
   7.5000000000000032E-003    -3.1954488918139345E-028
   7.8000000000000014E-003     1.1942497659993426E-027
   8.0999999999999996E-003    -1.6971657854835215E-027
   8.4000000000000012E-003    -1.9683296363272407E-028
   8.7000000000000029E-003     6.4016061651994706E-027
   9.0000000000000011E-003    -1.4750661290641420E-026
   9.2999999999999992E-003     1.4045685341434297E-026
   9.6000000000000009E-003     1.5774187852791685E-026
   9.8999999999999991E-003    -8.7398000633924657E-026
   1.0200000000000001E-002     1.6442578706927075E-025
   1.0500000000000002E-002    -1.1063349672614109E-025
   1.0800000000000004E-002    -2.9081967262125692E-025
   1.1099999999999999E-002     1.1065387068927690E-024
   1.1400000000000000E-002    -1.7437160565204628E-024
   1.1700000000000002E-002     5.3056641724438045E-025
   1.2000000000000004E-002     4.5036323842765973E-024
   1.2300000000000002E-002    -1.2439573512025311E-023
   1.2600000000000000E-002     1.4859994106592699E-023
   1.2900000000000002E-002     4.2940569395978979E-024
   1.3200000000000000E-002    -5.4925287950162395E-023
   1.3500000000000002E-002     1.1088804694445813E-022
   1.3800000000000003E-002    -8.7477886635923748E-023
   1.4100000000000001E-002    -1.2067337775247216E-022
   1.4400000000000000E-002     5.0141225082729134E-022
   1.4700000000000001E-002    -7.4956375428207673E-022
   1.4999999999999999E-002     2.7794319254679403E-022
   1.5300000000000001E-002     1.3223456767196721E-021
   1.5600000000000003E-002    -3.4340758029503008E-021
   1.5899999999999997E-002     3.8950975242148042E-021
   1.6199999999999999E-002     8.7400835523947641E-023
   1.6500000000000001E-002    -9.1953827507366621E-021
   1.6800000000000002E-002     1.8881676039550281E-020
   1.7100000000000004E-002    -1.8808238341069074E-020
   1.7400000000000006E-002    -2.9447431630197048E-021
   1.7700000000000000E-002     5.0761167212508312E-020
   1.8000000000000002E-002    -1.0756636801006968E-019
   1.8300000000000004E-002     1.1758870018341165E-019
   1.8600000000000005E-002     1.5415940006892443E-020
   1.8900000000000000E-002    -3.5929752932611423E-019
   1.9200000000000002E-002     7.6359900506991200E-019
   1.9500000000000003E-002    -6.6345346751370947E-019
   1.9799999999999998E-002    -6.9769420578511728E-019
   2.0100000000000000E-002     3.1900588397515812E-018
   2.0400000000000001E-002    -4.4047833771089103E-018
   2.0700000000000003E-002     2.0278310100330438E-019
   2.0999999999999998E-002     1.0506636204387815E-017
   2.1299999999999999E-002    -1.9137413275943603E-017
   2.1600000000000001E-002     8.6174264260934262E-018
   2.1900000000000003E-002     2.8840041565829988E-017
   2.2200000000000004E-002    -6.7258491325211091E-017
   2.2500000000000006E-002     4.8706935847164842E-017
   2.2800000000000001E-002     6.4412331416007070E-017
   2.3100000000000002E-002    -2.1473724884647997E-016
   2.3400000000000004E-002     2.2639932571514345E-016
   2.3699999999999999E-002     9.2995058344399114E-017
   2.4000000000000000E-002    -6.6638295733257399E-016
   2.4300000000000002E-002     8.5703528108350625E-016
   2.4599999999999997E-002    -1.4442835619631246E-016
   2.4900000000000005E-002     1.7897442952267192E-016
   2.5200000000000000E-002    -2.3326523949231848E-015
   2.5499999999999995E-002    -7.8127840998881908E-015
   2.5800000000000003E-002     5.8539107217051947E-014
   2.6099999999999998E-002    -8.3914225634908082E-014
   2.6400000000000007E-002    -2.0418869369642997E-013
   2.6700000000000002E-002     8.6280751090299647E-013
   2.6999999999999996E-002    -5.1968132618999586E-013
   2.7300000000000005E-002    -2.7362537762623422E-012
   2.7600000000000000E-002     5.4155558033132461E-012
   2.7900000000000008E-002     1.3487537130504172E-012
   2.8200000000000003E-002    -8.3774902351537897E-012
   2.8499999999999998E-002    -9.4881929375166069E-012
   2.8800000000000006E-002    -2.9534005661563911E-011
   2.9100000000000001E-002     2.9107269958432080E-010
   2.9400000000000003E-002    -1.8659708572223610E-010
   2.9700000000000004E-002    -1.9954060926285529E-009
   3.0000000000000006E-002     4.1654142072985645E-009
   3.0300000000000001E-002     5.9750455262369169E-009
   3.0600000000000002E-002    -2.9270457541040561E-008
   3.0900000000000004E-002     2.4932283015847982E-009
   3.1199999999999999E-002     1.2774009354793293E-007
   3.1500000000000007E-002    -1.2142926532575805E-007
   3.1800000000000002E-002    -4.3746141889810105E-007
   3.2099999999999997E-002     7.9169554857937808E-007
   3.2400000000000005E-002     2.9790478439404266E-006
   3.2700000000000000E-002     5.6114063887961407E-006
   3.3000000000000002E-002     1.5303409836490292E-005
   3.3300000000000003E-002     3.4706336000262189E-005
   3.3599999999999998E-002     5.2941577975110514E-005
   3.3900000000000000E-002     6.8332794131700661E-005
   3.4200000000000001E-002     9.5210280818135758E-005
   3.4500000000000003E-002     1.3906903197956431E-004
   3.4799999999999998E-002     2.0047011239621940E-004
   3.5099999999999999E-002     2.9411300148309439E-004
   3.5400000000000001E-002     4.3984093659937135E-004
   3.5699999999999996E-002     6.4448008888499247E-004
   3.6000000000000004E-002     9.0420349972475042E-004
   3.6299999999999999E-002     1.2333109816808872E-003
   3.6600000000000008E-002     1.6705570551167268E-003
   3.6900000000000002E-002     2.2342202825413257E-003
   3.7199999999999997E-002     2.9094429795197690E-003
   3.7500000000000006E-002     3.6937025641709392E-003
   3.7800000000000000E-002     4.5701383351294672E-003
   3.8100000000000009E-002     5.4400643574067931E-003
   3.8400000000000004E-002     6.1760188548222461E-003
   3.8699999999999998E-002     6.6457979457608118E-003
   3.9000000000000007E-002     6.5917889539613417E-003
   3.9300000000000002E-002     5.6141879976443765E-003
   3.9600000000000003E-002     3.2657580337996511E-003
   3.9900000000000005E-002    -9.8163822646324395E-004
   4.0200000000000000E-002    -7.7973967201083044E-003
   4.0500000000000001E-002    -1.7947985647304154E-002
   4.0800000000000003E-002    -3.2211599576161820E-002
   4.1100000000000005E-002    -5.1272435589118537E-002
   4.1399999999999999E-002    -7.5715611047729725E-002
   4.1700000000000008E-002   -0.10594176857855597     
   4.2000000000000003E-002   -0.14186412347418420     
   4.2299999999999997E-002   -0.18281449035418795     
   4.2600000000000006E-002   -0.22752454341879957     
   4.2900000000000001E-002   -0.27389834487222142     
   4.3200000000000002E-002   -0.31889961773660236     
   4.3500000000000004E-002   -0.35864285469194535     
   4.3799999999999999E-002   -0.38840086297657095     
   4.4100000000000000E-002   -0.40277794284883051     
   4.4400000000000002E-002   -0.39613305419976008     
   4.4700000000000004E-002   -0.36289868354958266     
   4.4999999999999998E-002   -0.29812814582314218     
   4.5300000000000000E-002   -0.19813402591786033     
   4.5600000000000002E-002    -6.0994495672534788E-002
   4.5899999999999996E-002    0.11287088555556846     
   4.6200000000000005E-002    0.32016407033584099     
   4.6500000000000000E-002    0.55452152124038889     
   4.6799999999999994E-002    0.80650209094475045     
   4.7100000000000003E-002     1.0638465057215960     
   4.7399999999999998E-002     1.3120291921813632     
   4.7700000000000006E-002     1.5351070914419154     
   4.8000000000000001E-002     1.7168184162208888     
   4.8300000000000010E-002     1.8417848174252214     
   4.8600000000000004E-002     1.8968545775944037     
   4.8899999999999999E-002     1.8723222096726033     
   4.9200000000000008E-002     1.7630010126283722     
   4.9500000000000002E-002     1.5688736981098756     
   4.9800000000000011E-002     1.2953812681851389     
   5.0100000000000006E-002    0.95335315745657567     
   5.0400000000000000E-002    0.55840340675624489     
   5.0700000000000009E-002    0.12978535078922615     
   5.1000000000000004E-002   -0.31108372468297674     
   5.1299999999999998E-002   -0.74206580789428855     
   5.1600000000000007E-002    -1.1420541132867079     
   5.1900000000000002E-002    -1.4927142661579040     
   5.2200000000000010E-002    -1.7797237845425684     
   5.2500000000000005E-002    -1.9937135195080629     
   5.2800000000000000E-002    -2.1307789299198205     
   5.3099999999999994E-002    -2.1925473547388918     
   5.3400000000000003E-002    -2.1856592842164702     
   5.3699999999999998E-002    -2.1206676425940572     
   5.4000000000000006E-002    -2.0107819501970567     
   5.4300000000000001E-002    -1.8704068900922977     
   5.4599999999999996E-002    -1.7137107223356125     
   5.4900000000000004E-002    -1.5531651015505545     
   5.5199999999999999E-002    -1.3984110607694547     
   5.5499999999999994E-002    -1.2555274068226865     
   5.5800000000000002E-002    -1.1267440159642490     
   5.6099999999999997E-002    -1.0107117687118858     
   5.6400000000000006E-002   -0.90290850671462053     
   5.6700000000000000E-002   -0.79657454540964423     
   5.6999999999999995E-002   -0.68371121909937926     
   5.7300000000000004E-002   -0.55645894527213002     
   5.7599999999999998E-002   -0.40825478199304399     
   5.7900000000000007E-002   -0.23438069636048731     
   5.8200000000000002E-002    -3.3143083317526578E-002
   5.8499999999999996E-002    0.19421636662987396     
   5.8800000000000005E-002    0.44305888394434145     
   5.9100000000000000E-002    0.70609914325895962     
   5.9400000000000008E-002    0.97394668795116779     
   5.9700000000000003E-002     1.2355774583567012     
   6.0000000000000012E-002     1.4793448666687681     
   6.0300000000000006E-002     1.6943372559035339     
   6.0600000000000001E-002     1.8707263940808474     
   6.0900000000000010E-002     2.0002287032904462     
   6.1200000000000004E-002     2.0768743325298828     
   6.1500000000000013E-002     2.0974914233153754     
   6.1800000000000008E-002     2.0613905181153029     
   6.2100000000000002E-002     1.9702142507702263     
   6.2399999999999997E-002     1.8277125355126387     
   6.2700000000000006E-002     1.6393621756454024     
   6.3000000000000000E-002     1.4122290896739713     
   6.3300000000000009E-002     1.1541809562820760     
   6.3600000000000004E-002    0.87341999939002690     
   6.3899999999999998E-002    0.57838998269449249     
   6.4199999999999993E-002    0.27737330210223554     
   6.4500000000000002E-002    -2.1786071984028155E-002
   6.4800000000000010E-002   -0.31175272486631123     
   6.5100000000000005E-002   -0.58587220521390004     
   6.5400000000000000E-002   -0.83812690349908259     
   6.5700000000000008E-002    -1.0629574833515001     
   6.5999999999999989E-002    -1.2551936791563953     
   6.6299999999999998E-002    -1.4102727339620458     
   6.6600000000000006E-002    -1.5237248426202470     
   6.6900000000000001E-002    -1.5915989667669876     
   6.7199999999999996E-002    -1.6102967536590000     
   6.7500000000000004E-002    -1.5769343974596381     
   6.7800000000000013E-002    -1.4899213303815628     
   6.8099999999999994E-002    -1.3492214102231159     
   6.8400000000000002E-002    -1.1570067197986305     
   6.8700000000000011E-002   -0.91799329864887369     
   6.8999999999999992E-002   -0.63980625293364923     
   6.9300000000000000E-002   -0.33326176305704980     
   6.9600000000000009E-002    -1.2337696982067214E-002
   6.9900000000000004E-002    0.30687657280796721     
   7.0199999999999999E-002    0.60674184287130950     
   7.0500000000000007E-002    0.86915850353164714     
   7.0800000000000016E-002     1.0770458941393812     
   7.1099999999999997E-002     1.2157315854360142     
   7.1400000000000005E-002     1.2746117784211890     
   7.1700000000000000E-002     1.2483766193563213     
   7.1999999999999995E-002     1.1374485463790762     
   7.2300000000000003E-002    0.94819453404447174     
   7.2600000000000012E-002    0.69315821723420257     
   7.2900000000000006E-002    0.39040625109110927     
   7.3200000000000001E-002     6.1802819025479794E-002
   7.3499999999999996E-002   -0.26862494433297535     
   7.3800000000000004E-002   -0.57593823961481494     
   7.4099999999999999E-002   -0.83634705368192286     
   7.4400000000000008E-002    -1.0287490520427909     
   7.4700000000000003E-002    -1.1365440167857912     
   7.5000000000000011E-002    -1.1485245045860140     
   7.5299999999999992E-002    -1.0593669352152943     
   7.5600000000000001E-002   -0.87017913854286277     
   7.5900000000000009E-002   -0.58837711279537608     
   7.6200000000000004E-002   -0.22752588762683290     
   7.6499999999999999E-002    0.19363367604268689     
   7.6800000000000007E-002    0.65223490083791980     
   7.7099999999999988E-002     1.1219354427374362     
   7.7399999999999997E-002     1.5745240089065273     
   7.7700000000000005E-002     1.9813164430422603     
   7.8000000000000014E-002     2.3147938043699412     
   7.8299999999999995E-002     2.5503812007360622     
   7.8600000000000003E-002     2.6678064805944359     
   7.8900000000000012E-002     2.6527491648053285     
   7.9199999999999993E-002     2.4985528370597336     
   7.9500000000000001E-002     2.2069971429975652     
   7.9800000000000010E-002     1.7885557860001811     
   8.0100000000000018E-002     1.2625438297927403     
   8.0399999999999999E-002    0.65620464953851609     
   8.0700000000000008E-002     3.1475551982707017E-003
   8.1000000000000003E-002   -0.65859731093379281     
   8.1299999999999997E-002    -1.2895827992567312     
   8.1600000000000006E-002    -1.8517980733840673     
   8.1900000000000014E-002    -2.3114852964215267     
   8.2199999999999995E-002    -2.6415389367394724     
   8.2500000000000004E-002    -2.8242787109312246     
   8.2799999999999999E-002    -2.8523276726259468     
   8.3100000000000007E-002    -2.7294502198554795     
   8.3400000000000002E-002    -2.4695944946031716     
   8.3700000000000011E-002    -2.0954547682760918     
   8.4000000000000005E-002    -1.6368903053707555     
   8.4300000000000000E-002    -1.1280757771175161     
   8.4599999999999995E-002   -0.60454061925900326     
   8.4900000000000003E-002    -9.9993422056515291E-002
   8.5199999999999998E-002    0.35550780069129573     
   8.5500000000000007E-002    0.73771470810656758     
   8.5800000000000001E-002     1.0292255554404770     
   8.6100000000000010E-002     1.2204376411982665     
   8.6399999999999991E-002     1.3093015867793021     
   8.6699999999999999E-002     1.3001384221172572     
   8.7000000000000008E-002     1.2026125539441708     
   8.7300000000000003E-002     1.0307295043222950     
   8.7599999999999997E-002    0.80125386225108741     
   8.7900000000000006E-002    0.53181536992406109     
   8.8200000000000014E-002    0.24028885038044834     
   8.8499999999999995E-002    -5.6309784291289855E-002
   8.8800000000000004E-002   -0.34249651250357172     
   8.9100000000000013E-002   -0.60500692652328958     
   8.9399999999999993E-002   -0.83305468697122009     
   8.9700000000000002E-002    -1.0185392495584082     
   9.0000000000000011E-002    -1.1559980657080118     
   9.0299999999999991E-002    -1.2430500191696865     
   9.0600000000000000E-002    -1.2806493501730287     
   9.0900000000000009E-002    -1.2726881648960671     
   9.1200000000000017E-002    -1.2260329413034583     
   9.1499999999999998E-002    -1.1499553583656059     
   9.1800000000000007E-002    -1.0563664699787232     
   9.2100000000000001E-002   -0.95851836489098652     
   9.2399999999999996E-002   -0.87003536855958874     
   9.2700000000000005E-002   -0.80372409904645736     
   9.3000000000000013E-002   -0.77072066867155264     
   9.3300000000000008E-002   -0.77899698327748901     
   9.3600000000000003E-002   -0.83202934624265801     
   9.3899999999999997E-002   -0.92814728899729992     
   9.4200000000000006E-002    -1.0600164380481960     
   9.4500000000000001E-002    -1.2150066556753474     
   9.4800000000000009E-002    -1.3748261365604471     
   9.5100000000000004E-002    -1.5172078907236823     
   9.5399999999999999E-002    -1.6174856556796442     
   9.5699999999999993E-002    -1.6506235362385837     
   9.6000000000000002E-002    -1.5930046637385686     
   9.6300000000000011E-002    -1.4244619383588741     
   9.6600000000000005E-002    -1.1313324665794298     
   9.6900000000000000E-002   -0.70777110396571175     
   9.7200000000000009E-002   -0.15653150274766325     
   9.7499999999999989E-002    0.51017900947773143     
   9.7799999999999998E-002     1.2708145676326836     
   9.8100000000000007E-002     2.0957614861397644     
   9.8400000000000015E-002     2.9490049901051840     
   9.8699999999999996E-002     3.7907300022757653     
   9.9000000000000005E-002     4.5800698834785436     
   9.9300000000000013E-002     5.2777211197993950     
   9.9599999999999994E-002     5.8489914418627933     
   9.9900000000000003E-002     6.2660008681566239     
  0.10020000000000001          6.5094304088133299     
  0.10049999999999999          6.5699127033661000     
  0.10080000000000000          6.4478774735421212     
  0.10110000000000001          6.1532035133794523     
  0.10140000000000000          5.7035794768555093     
  0.10170000000000000          5.1229234320560124     
  0.10200000000000001          4.4393363446756382     
  0.10230000000000002          3.6830880030287290     
  0.10260000000000000          2.8838818171031306     
  0.10290000000000001          2.0691356151055089     
  0.10320000000000000          1.2635755038083829     
  0.10350000000000001         0.48723586174127398     
  0.10380000000000000        -0.24373368912627491     
  0.10410000000000001        -0.91832647189173500     
  0.10440000000000001         -1.5289581879892156     
  0.10470000000000000         -2.0709169858731151     
  0.10500000000000000         -2.5415167621886283     
  0.10530000000000000         -2.9403264564631542     
  0.10560000000000000         -3.2673072950366304     
  0.10590000000000001         -3.5233755216304559     
  0.10620000000000000         -3.7099820893638196     
  0.10650000000000001         -3.8297042106558763     
  0.10679999999999999         -3.8873655179024098     
  0.10710000000000000         -3.8895433842582889     
  0.10740000000000001         -3.8454971526652741     
  0.10770000000000000         -3.7671331244498134     
  0.10800000000000000         -3.6700767342206859     
  0.10830000000000001         -3.5717394708013188     
  0.10859999999999999         -3.4902762581813960     
  0.10890000000000000         -3.4433212484974831     
  0.10920000000000001         -3.4453607674110316     
  0.10950000000000001         -3.5069580827142488     
  0.10979999999999999         -3.6320888319345954     
  0.11009999999999999         -3.8163522669836709     
  0.11040000000000001         -4.0460983287247672     
  0.11070000000000001         -4.2996318993014881     
  0.11100000000000000         -4.5488206442847741     
  0.11130000000000000         -4.7602272146313567     
  0.11160000000000002         -4.8978837667008861     
  0.11190000000000001         -4.9276815105560843     
  0.11220000000000001         -4.8211042387989380     
  0.11250000000000000         -4.5587440095455918     
  0.11280000000000000         -4.1319137895507367     
  0.11309999999999999         -3.5441413814405109     
  0.11340000000000001         -2.8126504283830656     
  0.11369999999999998         -1.9667541999900493     
  0.11400000000000000         -1.0450472940134432     
  0.11430000000000000         -9.1806405730988416E-002
  0.11460000000000002         0.84530413446420027     
  0.11489999999999999          1.7203441521349490     
  0.11520000000000001          2.4935327083247998     
  0.11550000000000001          3.1331979171878217     
  0.11580000000000000          3.6183257586940414     
  0.11609999999999999          3.9389933294872748     
  0.11640000000000002          4.0979847455929530     
  0.11670000000000001          4.1101383831344691     
  0.11700000000000001          3.9990243996285528     
  0.11730000000000000          3.7947333584759946     
  0.11760000000000000          3.5327971435952179     
  0.11789999999999999          3.2513948074704757     
  0.11820000000000001          2.9879264639708225     
  0.11850000000000001          2.7759492132664860     
  0.11880000000000000          2.6422950312064586     
  0.11910000000000000          2.6061269435973458     
  0.11940000000000002          2.6758109683597837     
  0.11970000000000001          2.8466547517742953     
  0.12000000000000001          3.0998106518631090     
  0.12030000000000000          3.4025501315466684     
  0.12060000000000000          3.7092435872291460     
  0.12089999999999999          3.9638422017275303     
  0.12119999999999999          4.1040245162467102     
  0.12150000000000001          4.0675844933613945     
  0.12180000000000001          3.8001613413371871     
  0.12210000000000000          3.2621230039392515     
  0.12239999999999999          2.4378735782884462     
  0.12270000000000002          1.3429964968135808     
  0.12300000000000001          2.7996032092772793E-002
  0.12330000000000001         -1.4207253548872956     
  0.12360000000000000         -2.8834677117140757     
  0.12390000000000000         -4.2141907709959128     
  0.12419999999999999         -5.2531903217306848     
  0.12450000000000001         -5.8435799850127950     
  0.12480000000000001         -5.8489428676540633     
  0.12509999999999999         -5.1707530784097493     
  0.12540000000000001         -3.7649560153409709     
  0.12570000000000003         -1.6559362567615779     
  0.12600000000000000          1.0575150988548785     
  0.12630000000000002          4.2038058909027427     
  0.12659999999999999          7.5474791376765324     
  0.12690000000000001          10.805348824558166     
  0.12719999999999998          13.668961060658205     
  0.12750000000000000          15.833748596685524     
  0.12780000000000002          17.028726615843368     
  0.12809999999999999          17.044102026819758     
  0.12840000000000001          15.755245959094594     
  0.12869999999999998          13.140452199970582     
  0.12900000000000000          9.2882374175947007     
  0.12930000000000003          4.3957938445025206     
  0.12959999999999999         -1.2438986657245437     
  0.12990000000000002         -7.2641236938692373     
  0.13019999999999998         -13.253315186142459     
  0.13050000000000000         -18.788516101023902     
  0.13080000000000003         -23.470466128467535     
  0.13109999999999999         -26.955273918640728     
  0.13140000000000002         -28.983451848162218     
  0.13169999999999998         -29.399454208118129     
  0.13200000000000001         -28.161852995100929     
  0.13229999999999997         -25.343955770873038     
  0.13260000000000000         -21.125112289529511     
  0.13290000000000002         -15.773759558830307     
  0.13319999999999999         -9.6244333610738693     
  0.13350000000000001         -3.0503497267649493     
  0.13380000000000003          3.5669838797269335     
  0.13410000000000000          9.8627189946246290     
  0.13440000000000002          15.510814642171908     
  0.13469999999999999          20.243297181606295     
  0.13500000000000001          23.863818540754096     
  0.13529999999999998          26.252599955446271     
  0.13560000000000000          27.362943112922892     
  0.13590000000000002          27.217346381358198     
  0.13619999999999999          25.900006308346576     
  0.13650000000000001          23.542637727991462     
  0.13680000000000003          20.309975329338613     
  0.13710000000000000          16.386560984420953     
  0.13740000000000002          11.966508890047919     
  0.13769999999999999          7.2419256180133829     
  0.13800000000000001          2.3942595355369747     
  0.13829999999999998         -2.4120567822461680     
  0.13860000000000000         -7.0307326134305868     
  0.13890000000000002         -11.336736531231338     
  0.13919999999999999         -15.225819841408224     
  0.13950000000000001         -18.611097433416319     
  0.13979999999999998         -21.423367294035643     
  0.14010000000000000         -23.607968067835685     
  0.14040000000000002         -25.123269176602690     
  0.14069999999999999         -25.939482132448177     
  0.14100000000000001         -26.040129615331921     
  0.14130000000000004         -25.421442597817759     
  0.14160000000000000         -24.093595482266551     
  0.14189999999999997         -22.084426312709070     
  0.14219999999999999         -19.439686865150748     
  0.14250000000000002         -16.224904853151145     
  0.14279999999999998         -12.525319226398437     
  0.14310000000000000         -8.4452672664981492     
  0.14339999999999997         -4.1044689029278896     
  0.14369999999999999         0.36492918444400857     
  0.14400000000000002          4.8220764863149839     
  0.14429999999999998          9.1268342876251154     
  0.14460000000000001          13.144845518237560     
  0.14490000000000003          16.755343046961286     
  0.14520000000000000          19.854732706683649     
  0.14550000000000002          22.360927461159193     
  0.14579999999999999          24.219030488136042     
  0.14610000000000001          25.404457700816749     
  0.14640000000000003          25.918791181883307     
  0.14670000000000000          25.786400442056788     
  0.14699999999999996          25.053568923365106     
  0.14729999999999999          23.784828046170219     
  0.14760000000000001          22.059210633558337     
  0.14789999999999998          19.958999392434293     
  0.14820000000000000          17.566359875446267     