  -1.4999999999999999E-002     0.0000000000000000     
  -1.4700000000000000E-002     0.0000000000000000     
  -1.4400000000000000E-002     0.0000000000000000     
  -1.4100000000000000E-002     0.0000000000000000     
  -1.3800000000000000E-002    -1.9794348398235829E-036
  -1.3500000000000000E-002    -2.9275049468885734E-033
  -1.3200000000000000E-002     4.4342544506591462E-032
  -1.2899999999999998E-002     1.2642476725805583E-029
  -1.2600000000000000E-002    -4.7306418612458159E-029
  -1.2299999999999998E-002    -3.2674803583528970E-027
  -1.2000000000000000E-002     1.8015614004472768E-026
  -1.1699999999999999E-002     1.4630916927472597E-025
  -1.1399999999999999E-002    -9.9709523647323131E-025
  -1.1099999999999999E-002    -1.5766239132771823E-024
  -1.0799999999999999E-002     1.6293180468089091E-023
  -1.0499999999999999E-002     1.3128220029244458E-023
  -1.0199999999999999E-002    -1.5079825936703963E-022
  -9.8999999999999991E-003    -1.7789659071624213E-022
  -9.5999999999999992E-003     1.1175902758575060E-021
  -9.2999999999999992E-003     1.3576635957022710E-021
  -8.9999999999999993E-003    -4.6938884886172236E-021
  -8.6999999999999994E-003    -9.7387762067696926E-021
  -8.3999999999999995E-003     7.6230073351917363E-021
  -8.0999999999999996E-003     5.1301198753261788E-020
  -7.7999999999999988E-003     6.7802301675655359E-020
  -7.4999999999999997E-003    -2.2745533310526418E-019
  -7.1999999999999998E-003    -6.0837262557139284E-019
  -6.8999999999999981E-003     8.1907651729669252E-019
  -6.5999999999999982E-003     2.2035661384494130E-018
  -6.3000000000000000E-003    -1.2925746556543234E-018
  -6.0000000000000001E-003    -3.0113826596577274E-018
  -5.6999999999999985E-003    -5.1885123125250987E-018
  -5.3999999999999986E-003    -1.2834616275253420E-017
  -5.1000000000000004E-003     5.2900810754779337E-017
  -4.7999999999999987E-003     7.7942370384674815E-017
  -4.5000000000000005E-003    -2.2644671456125071E-016
  -4.1999999999999989E-003    -1.2677176838596610E-016
  -3.8999999999999990E-003     6.0976324273972820E-016
  -3.5999999999999990E-003    -9.5931944639059304E-016
  -3.2999999999999991E-003     9.1869405217438228E-016
  -2.9999999999999992E-003     3.9219806567713286E-015
  -2.6999999999999993E-003    -1.1653783373152728E-014
  -2.3999999999999994E-003     4.5717840998398332E-015
  -2.0999999999999977E-003     1.9165968657519454E-014
  -1.7999999999999995E-003    -4.0872843033289835E-014
  -1.4999999999999979E-003     4.8326753297918412E-014
  -1.1999999999999997E-003     1.8146003769687821E-014
  -8.9999999999999976E-004    -1.8299089728310985E-013
  -5.9999999999999810E-004     2.5738143712671080E-013
  -2.9999999999999992E-004    -1.0670814004545143E-013
   0.0000000000000000         -3.4567365788350235E-013
   3.0000000000000165E-004     1.3622605647689578E-012
   5.9999999999999984E-004    -1.8303410002917797E-012
   9.0000000000000149E-004    -1.0288278475684143E-012
   1.2000000000000031E-003     6.9002004630946967E-012
   1.5000000000000013E-003    -8.7778439031294120E-012
   1.8000000000000030E-003    -4.1230092256983042E-012
   2.1000000000000012E-003     3.0190662470008789E-011
   2.3999999999999994E-003    -3.1241596115672010E-011
   2.7000000000000010E-003    -3.3274268756988690E-011
   2.9999999999999992E-003     1.0633444819108107E-010
   3.3000000000000008E-003    -4.8284640175033644E-011
   3.6000000000000025E-003    -1.5455495216976090E-010
   3.9000000000000007E-003     2.4815174914927240E-010
   4.2000000000000023E-003     4.0878134210942108E-011
   4.5000000000000005E-003    -4.6351264493260658E-010
   4.7999999999999987E-003     3.0383867644090401E-010
   5.1000000000000004E-003     4.7302245453906266E-010
   5.4000000000000020E-003    -7.4238576397434031E-010
   5.7000000000000037E-003    -1.4285214677833835E-010
   5.9999999999999984E-003     1.0197023225799740E-009
   6.3000000000000000E-003    -4.0319278471478981E-010
   6.6000000000000017E-003    -1.0536145289563592E-009
   6.9000000000000034E-003     9.5272678635183183E-010
   7.2000000000000015E-003     9.8956298710817236E-010
   7.5000000000000032E-003    -1.5730835523086739E-009
   7.8000000000000014E-003    -7.3292205637898178E-010
   8.0999999999999996E-003     2.5432085326571041E-009
   8.4000000000000012E-003    -4.5911424662037348E-010
   8.7000000000000029E-003    -3.6130956004853942E-009
   9.0000000000000011E-003     3.4176241836547661E-009
   9.2999999999999992E-003     3.3647684638538067E-009
   9.6000000000000009E-003    -7.6638855261990102E-009
   9.8999999999999991E-003     2.5275520565415377E-010
   1.0200000000000001E-002     1.0553446117000931E-008
   1.0500000000000002E-002    -8.0591444628907993E-009
   1.0800000000000004E-002    -8.4399909283661145E-009
   1.1099999999999999E-002     1.8037811244653312E-008
   1.1400000000000000E-002     4.9152903969229556E-011
   1.1700000000000002E-002    -2.6077476178443249E-008
   1.2000000000000004E-002     7.7328259351361339E-009
   1.2300000000000002E-002     2.7088157494858933E-008
   1.2600000000000000E-002     6.1933040917949711E-009
   1.2900000000000002E-002    -1.0935832683856006E-008
   1.3200000000000000E-002    -7.7594648928425158E-008
   1.3500000000000002E-002    -7.4593984322746110E-008
   1.3800000000000003E-002     3.0885072987985041E-007
   1.4100000000000001E-002     1.2879653468189645E-006
   1.4400000000000000E-002     3.0448804864136036E-006
   1.4700000000000001E-002     4.8106312533491291E-006
   1.4999999999999999E-002     5.2910845624865033E-006
   1.5300000000000001E-002     8.3189670476713218E-006
   1.5600000000000003E-002     2.3234093532664701E-005
   1.5899999999999997E-002     5.0500570068834350E-005
   1.6199999999999999E-002     7.4021736509166658E-005
   1.6500000000000001E-002     8.0556659668218344E-005
   1.6800000000000002E-002     8.1332931586075574E-005
   1.7100000000000004E-002     1.0184566781390458E-004
   1.7400000000000006E-002     1.5014663222245872E-004
   1.7700000000000000E-002     2.0487833535298705E-004
   1.8000000000000002E-002     2.4228640540968627E-004
   1.8300000000000004E-002     2.6491357129998505E-004
   1.8600000000000005E-002     2.8315396048128605E-004
   1.8900000000000000E-002     2.7371585019864142E-004
   1.9200000000000002E-002     1.7205375479534268E-004
   1.9500000000000003E-002    -1.1468489537946880E-004
   1.9799999999999998E-002    -7.1014370769262314E-004
   2.0100000000000000E-002    -1.7734924331307411E-003
   2.0400000000000001E-002    -3.5114740021526814E-003
   2.0700000000000003E-002    -6.2209102325141430E-003
   2.0999999999999998E-002    -1.0322048328816891E-002
   2.1299999999999999E-002    -1.6344811767339706E-002
   2.1600000000000001E-002    -2.4900756776332855E-002
   2.1900000000000003E-002    -3.6675881594419479E-002
   2.2200000000000004E-002    -5.2440047264099121E-002
   2.2500000000000006E-002    -7.3025606572628021E-002
   2.2800000000000001E-002    -9.9213741719722748E-002
   2.3100000000000002E-002   -0.13158130645751953     
   2.3400000000000004E-002   -0.17039570212364197     
   2.3699999999999999E-002   -0.21549928188323975     
   2.4000000000000000E-002   -0.26610493659973145     
   2.4300000000000002E-002   -0.32052746415138245     
   2.4599999999999997E-002   -0.37600442767143250     
   2.4900000000000005E-002   -0.42859339714050293     
   2.5200000000000000E-002   -0.47311049699783325     
   2.5499999999999995E-002   -0.50314271450042725     
   2.5800000000000003E-002   -0.51123738288879395     
   2.6099999999999998E-002   -0.48928859829902649     
   2.6400000000000007E-002   -0.42904672026634216     
   2.6700000000000002E-002   -0.32287037372589111     
   2.6999999999999996E-002   -0.16467781364917755     
   2.7300000000000005E-002     4.9174588173627853E-002
   2.7600000000000000E-002    0.31879007816314697     
   2.7900000000000008E-002    0.63996970653533936     
   2.8200000000000003E-002     1.0035240650177002     
   2.8499999999999998E-002     1.3947623968124390     
   2.8800000000000006E-002     1.7938560247421265     
   2.9100000000000001E-002     2.1765451431274414     
   2.9400000000000003E-002     2.5152015686035156     
   2.9700000000000004E-002     2.7808494567871094     
   3.0000000000000006E-002     2.9452581405639648     
   3.0300000000000001E-002     2.9835388660430908     
   3.0600000000000002E-002     2.8768362998962402     
   3.0900000000000004E-002     2.6144659519195557     
   3.1199999999999999E-002     2.1958484649658203     
   3.1500000000000007E-002     1.6319118738174438     
   3.1800000000000002E-002    0.94501101970672607     
   3.2099999999999997E-002    0.16821432113647461     
   3.2400000000000005E-002   -0.65629512071609497     
   3.2700000000000000E-002    -1.4805363416671753     
   3.3000000000000002E-002    -2.2538714408874512     
   3.3300000000000003E-002    -2.9267513751983643     
   3.3599999999999998E-002    -3.4553842544555664     
   3.3900000000000000E-002    -3.8048129081726074     
   3.4200000000000001E-002    -3.9519515037536621     
   3.4500000000000003E-002    -3.8881740570068359     
   3.4799999999999998E-002    -3.6194756031036377     
   3.5099999999999999E-002    -3.1665165424346924     
   3.5400000000000001E-002    -2.5632610321044922     
   3.5699999999999996E-002    -1.8538432121276855     
   3.6000000000000004E-002    -1.0900026559829712     
   3.6299999999999999E-002   -0.32711008191108704     
   3.6600000000000008E-002    0.38006457686424255     
   3.6900000000000002E-002    0.98018133640289307     
   3.7199999999999997E-002     1.4291528463363647     
   3.7500000000000006E-002     1.6930003166198730     
   3.7800000000000000E-002     1.7484780550003052     
   3.8100000000000009E-002     1.5852835178375244     
   3.8400000000000004E-002     1.2060501575469971     
   3.8699999999999998E-002    0.62561529874801636     
   3.9000000000000007E-002   -0.12901321053504944     
   3.9300000000000002E-002    -1.0206065177917480     
   3.9600000000000003E-002    -2.0034770965576172     
   3.9900000000000005E-002    -3.0246570110321045     
   4.0200000000000000E-002    -4.0272159576416016     
   4.0500000000000001E-002    -4.9525079727172852     
   4.0800000000000003E-002    -5.7421131134033203     
   4.1100000000000005E-002    -6.3419303894042969     
   4.1399999999999999E-002    -6.7042589187622070     
   4.1700000000000008E-002    -6.7906761169433594     
   4.2000000000000003E-002    -6.5749964714050293     
   4.2299999999999997E-002    -6.0450115203857422     
   4.2600000000000006E-002    -5.2039957046508789     
   4.2900000000000001E-002    -4.0719971656799316     
   4.3200000000000002E-002    -2.6851403713226318     
   4.3500000000000004E-002    -1.0944962501525879     
   4.3799999999999999E-002    0.63557267189025879     
   4.4100000000000000E-002     2.4302811622619629     
   4.4400000000000002E-002     4.2098474502563477     
   4.4700000000000004E-002     5.8916401863098145     
   4.4999999999999998E-002     7.3961663246154785     
   4.5300000000000000E-002     8.6528596878051758     
   4.5600000000000002E-002     9.6029653549194336     
   4.5899999999999996E-002     10.204469680786133     
   4.6200000000000005E-002     10.436100959777832     
   4.6500000000000000E-002     10.297045707702637     
   4.6799999999999994E-002     9.8102064132690430     
   4.7100000000000003E-002     9.0202207565307617     
   4.7399999999999998E-002     7.9893536567687988     
   4.7700000000000006E-002     6.7964229583740234     
   4.8000000000000001E-002     5.5292954444885254     
   4.8300000000000010E-002     4.2779340744018555     
   4.8600000000000004E-002     3.1295082569122314     
   4.8899999999999999E-002     2.1592552661895752     
   4.9200000000000008E-002     1.4233818054199219     
   4.9500000000000002E-002    0.95572775602340698     
   4.9800000000000011E-002    0.76084828376770020     
   5.0100000000000006E-002    0.81319791078567505     
   5.0400000000000000E-002     1.0593603849411011     
   5.0700000000000009E-002     1.4190530776977539     
   5.1000000000000004E-002     1.7925080060958862     
   5.1299999999999998E-002     2.0710477828979492     
   5.1600000000000007E-002     2.1438746452331543     
   5.1900000000000002E-002     1.9135484695434570     
   5.2200000000000010E-002     1.3081307411193848     
   5.2500000000000005E-002    0.28875169157981873     
   5.2800000000000000E-002    -1.1372120380401611     
   5.3099999999999994E-002    -2.9125363826751709     
   5.3400000000000003E-002    -4.9302520751953125     
   5.3699999999999998E-002    -7.0353689193725586     
   5.4000000000000006E-002    -9.0367126464843750     
   5.4300000000000001E-002    -10.721224784851074     
   5.4599999999999996E-002    -11.872488975524902     
   5.4900000000000004E-002    -12.292944908142090     
   5.5199999999999999E-002    -11.827260971069336     
   5.5499999999999994E-002    -10.382019042968750     
   5.5800000000000002E-002    -7.9430088996887207     
   5.6099999999999997E-002    -4.5869450569152832     
   5.6400000000000006E-002   -0.48248851299285889     
   5.6700000000000000E-002     4.1152939796447754     
   5.6999999999999995E-002     8.8793268203735352     
   5.7300000000000004E-002     13.436759948730469     
   5.7599999999999998E-002     17.396488189697266     
   5.7900000000000007E-002     20.382835388183594     
   5.8200000000000002E-002     22.071401596069336     
   5.8499999999999996E-002     22.217597961425781     
   5.8800000000000005E-002     20.682134628295898     
   5.9100000000000000E-002     17.448730468750000     
   5.9400000000000008E-002     12.626193046569824     
   5.9700000000000003E-002     6.4465498924255371     
   6.0000000000000012E-002   -0.75270462036132812     
   6.0300000000000006E-002    -8.5548610687255859     
   6.0600000000000001E-002    -16.491466522216797     
   6.0900000000000010E-002    -24.082635879516602     
   6.1200000000000004E-002    -30.869371414184570     
   6.1500000000000013E-002    -36.444667816162109     
   6.1800000000000008E-002    -40.485450744628906     
   6.2100000000000002E-002    -42.766796112060547     
   6.2399999999999997E-002    -43.174022674560547     
   6.2700000000000006E-002    -41.707115173339844     
   6.3000000000000000E-002    -38.469139099121094     
   6.3300000000000009E-002    -33.655677795410156     
   6.3600000000000004E-002    -27.537136077880859     
   6.3899999999999998E-002    -20.431972503662109     
   6.4199999999999993E-002    -12.688957214355469     
   6.4500000000000002E-002    -4.6620798110961914     
   6.4800000000000010E-002     3.3088192939758301     
   6.5100000000000005E-002     10.912223815917969     
   6.5400000000000000E-002     17.880552291870117     
   6.5700000000000008E-002     23.996562957763672     
   6.5999999999999989E-002     29.096397399902344     
   6.6299999999999998E-002     33.073398590087891     
   6.6600000000000006E-002     35.875061035156250     
   6.6900000000000001E-002     37.496772766113281     
   6.7199999999999996E-002     37.979824066162109     
   6.7500000000000004E-002     37.403076171875000     
   6.7800000000000013E-002     35.873989105224609     
   6.8099999999999994E-002     33.524215698242188     
   6.8400000000000002E-002     30.499731063842773     
   6.8700000000000011E-002     26.953733444213867     
   6.8999999999999992E-002     23.041311264038086     
   6.9300000000000000E-002     18.912582397460938     
   6.9600000000000009E-002     14.707830429077148     
   6.9900000000000004E-002     10.553977966308594     
   7.0199999999999999E-002     6.5605893135070801     
   7.0500000000000007E-002     2.8203456401824951     
   7.0800000000000016E-002   -0.59418374300003052     
   7.1099999999999997E-002    -3.6303105354309082     
   7.1400000000000005E-002    -6.2531886100769043     
   7.1700000000000000E-002    -8.4461975097656250     
   7.1999999999999995E-002    -10.211030960083008     
   7.2300000000000003E-002    -11.563094139099121     
   7.2600000000000012E-002    -12.531080245971680     
   7.2900000000000006E-002    -13.158164978027344     
   7.3200000000000001E-002    -13.492698669433594     
   7.3499999999999996E-002    -13.589337348937988     
   7.3800000000000004E-002    -13.508193969726562     
   7.4099999999999999E-002    -13.303716659545898     
   7.4400000000000008E-002    -13.027477264404297     
   7.4700000000000003E-002    -12.723783493041992     
   7.5000000000000011E-002    -12.421504020690918     
   7.5299999999999992E-002    -12.139868736267090     
   7.5600000000000001E-002    -11.883516311645508     
   7.5900000000000009E-002    -11.639400482177734     
   7.6200000000000004E-002    -11.387650489807129     
   7.6499999999999999E-002    -11.096373558044434     
   7.6800000000000007E-002    -10.725949287414551     
   7.7099999999999988E-002    -10.241019248962402     
   7.7399999999999997E-002    -9.6041555404663086     
   7.7700000000000005E-002    -8.7855558395385742     
   7.8000000000000014E-002    -7.7706708908081055     
   7.8299999999999995E-002    -6.5520792007446289     
   7.8600000000000003E-002    -5.1394214630126953     
   7.8900000000000012E-002    -3.5607671737670898     
   7.9199999999999993E-002    -1.8519454002380371     
   7.9500000000000001E-002    -6.4907409250736237E-002
   7.9800000000000010E-002     1.7374033927917480     
   8.0100000000000018E-002     3.4923160076141357     
   8.0399999999999999E-002     5.1299219131469727     
   8.0700000000000008E-002     6.5843801498413086     
   8.1000000000000003E-002     7.8010363578796387     
   8.1299999999999997E-002     8.7298831939697266     
   8.1600000000000006E-002     9.3395156860351562     
   8.1900000000000014E-002     9.6171426773071289     
   8.2199999999999995E-002     9.5617218017578125     
   8.2500000000000004E-002     9.1969232559204102     
   8.2799999999999999E-002     8.5626516342163086     
   8.3100000000000007E-002     7.7085599899291992     
   8.3400000000000002E-002     6.7017369270324707     
   8.3700000000000011E-002     5.6130075454711914     
   8.4000000000000005E-002     4.5117292404174805     
   8.4300000000000000E-002     3.4692828655242920     
   8.4599999999999995E-002     2.5443112850189209     
   8.4900000000000003E-002     1.7822554111480713     
   8.5199999999999998E-002     1.2169725894927979     
   8.5500000000000007E-002    0.86097878217697144     
   8.5800000000000001E-002    0.70911556482315063     
   8.6100000000000010E-002    0.74241739511489868     
   8.6399999999999991E-002    0.92473196983337402     
   8.6699999999999999E-002     1.2082868814468384     
   8.7000000000000008E-002     1.5412712097167969     
   8.7300000000000003E-002     1.8666756153106689     
   8.7599999999999997E-002     2.1286520957946777     
   8.7900000000000006E-002     2.2814049720764160     
   8.8200000000000014E-002     2.2856299877166748     
   8.8499999999999995E-002     2.1142811775207520     
   8.8800000000000004E-002     1.7595754861831665     
   8.9100000000000013E-002     1.2250152826309204     
   8.9399999999999993E-002    0.52928876876831055     
   8.9700000000000002E-002   -0.28972870111465454     
   9.0000000000000011E-002    -1.1880998611450195     
   9.0299999999999991E-002    -2.1130390167236328     
   9.0600000000000000E-002    -3.0016293525695801     
   9.0900000000000009E-002    -3.7987406253814697     
   9.1200000000000017E-002    -4.4508852958679199     
   9.1499999999999998E-002    -4.9088768959045410     
   9.1800000000000007E-002    -5.1454620361328125     
   9.2100000000000001E-002    -5.1427302360534668     
   9.2399999999999996E-002    -4.8984537124633789     
   9.2700000000000005E-002    -4.4370079040527344     
   9.3000000000000013E-002    -3.7905807495117188     
   9.3300000000000008E-002    -3.0065355300903320     
   9.3600000000000003E-002    -2.1503043174743652     
   9.3899999999999997E-002    -1.2819589376449585     
   9.4200000000000006E-002   -0.46548175811767578     
   9.4500000000000001E-002    0.23587474226951599     
   9.4800000000000009E-002    0.78028798103332520     
   9.5100000000000004E-002     1.1336401700973511     
   9.5399999999999999E-002     1.2785729169845581     
   9.5699999999999993E-002     1.2259522676467896     
   9.6000000000000002E-002    0.99466478824615479     
   9.6300000000000011E-002    0.62266641855239868     
   9.6600000000000005E-002    0.16545177996158600     
   9.6900000000000000E-002   -0.32498389482498169     
   9.7200000000000009E-002   -0.78947561979293823     
   9.7499999999999989E-002    -1.1711320877075195     
   9.7799999999999998E-002    -1.4316042661666870     
   9.8100000000000007E-002    -1.5376901626586914     
   9.8400000000000015E-002    -1.4734016656875610     
   9.8699999999999996E-002    -1.2455476522445679     
   9.9000000000000005E-002   -0.86752456426620483     
   9.9300000000000013E-002   -0.37086811661720276     
   9.9599999999999994E-002    0.20084422826766968     
   9.9900000000000003E-002    0.80576038360595703     
  0.10020000000000001          1.3943980932235718     
  0.10049999999999999          1.9216405153274536     
  0.10080000000000000          2.3527674674987793     
  0.10110000000000001          2.6563770771026611     
  0.10140000000000000          2.8150472640991211     
  0.10170000000000000          2.8231358528137207     
  0.10200000000000001          2.6822321414947510     
  0.10230000000000002          2.4071888923645020     
  0.10260000000000000          2.0184681415557861     
  0.10290000000000001          1.5417701005935669     
  0.10320000000000000          1.0092847347259521     
  0.10350000000000001         0.45150139927864075     
  0.10380000000000000         -9.8737657070159912E-002
  0.10410000000000001        -0.61016732454299927     
  0.10440000000000001         -1.0574578046798706     
  0.10470000000000000         -1.4152977466583252     
  0.10500000000000000         -1.6665064096450806     
  0.10530000000000000         -1.8006424903869629     
  0.10560000000000000         -1.8099881410598755     
  0.10590000000000001         -1.6991019248962402     
  0.10620000000000000         -1.4766349792480469     
  0.10650000000000001         -1.1566193103790283     
  0.10679999999999999        -0.76391452550888062     
  0.10710000000000000        -0.32320576906204224     
  0.10740000000000001         0.13682353496551514     
  0.10770000000000000         0.58280509710311890     
  0.10800000000000000         0.98826658725738525     
  0.10830000000000001          1.3260160684585571     
  0.10859999999999999          1.5728173255920410     
  0.10890000000000000          1.7165060043334961     
  0.10920000000000001          1.7469925880432129     
  0.10950000000000001          1.6644823551177979     
  0.10979999999999999          1.4780801534652710     
  0.11009999999999999          1.1992875337600708     
  0.11040000000000001         0.84922730922698975     
  0.11070000000000001         0.45228430628776550     
  0.11100000000000000          3.2050415873527527E-002
  0.11130000000000000        -0.38315463066101074     
  0.11160000000000002        -0.76909440755844116     
  0.11190000000000001         -1.1045179367065430     
  0.11220000000000001         -1.3696827888488770     
  0.11250000000000000         -1.5536345243453979     
  0.11280000000000000         -1.6485708951950073     
  0.11309999999999999         -1.6525703668594360     
  0.11340000000000001         -1.5722062587738037     
  0.11369999999999998         -1.4154505729675293     
  0.11400000000000000         -1.1973956823348999     
  0.11430000000000000        -0.93661272525787354     
  0.11460000000000002        -0.65046411752700806     
  0.11489999999999999        -0.36110210418701172     
  0.11520000000000001         -8.7320923805236816E-002
  0.11550000000000001         0.15515109896659851     
  0.11580000000000000         0.34984779357910156     
  0.11609999999999999         0.48943293094635010     
  0.11640000000000002         0.56896305084228516     
  0.11670000000000001         0.58615231513977051     
  0.11700000000000001         0.54881972074508667     
  0.11730000000000000         0.46427911520004272     
  0.11760000000000000         0.34378871321678162     
  0.11789999999999999         0.20441713929176331     
  0.11820000000000001          5.8493226766586304E-002
  0.11850000000000001         -7.8540772199630737E-002
  0.11880000000000000        -0.19181491434574127     
  0.11910000000000000        -0.27319926023483276     
  0.11940000000000002        -0.31389027833938599     
  0.11970000000000001        -0.30954322218894958     
  0.12000000000000001        -0.26232025027275085     
  0.12030000000000000        -0.17402441799640656     
  0.12060000000000000         -5.1882915198802948E-002
  0.12089999999999999          9.3740306794643402E-002
  0.12119999999999999         0.25359520316123962     
  0.12150000000000001         0.41458275914192200     
  0.12180000000000001         0.56492525339126587     
  0.12210000000000000         0.69380718469619751     
  0.12239999999999999         0.79133385419845581     
  0.12270000000000002         0.85046797990798950     
  0.12300000000000001         0.86576378345489502     
  0.12330000000000001         0.83588016033172607     
  0.12360000000000000         0.76205390691757202     
  0.12390000000000000         0.64747536182403564     
  0.12419999999999999         0.50091159343719482     
  0.12450000000000001         0.33033883571624756     
  0.12480000000000001         0.14616295695304871     
  0.12509999999999999         -3.8053110241889954E-002
  0.12540000000000001        -0.21311363577842712     
  0.12570000000000003        -0.36755722761154175     
  0.12600000000000000        -0.49107950925827026     
  0.12630000000000002        -0.58071565628051758     
  0.12659999999999999        -0.63028186559677124     
  0.12690000000000001        -0.63919621706008911     
  0.12719999999999998        -0.61294174194335938     
  0.12750000000000000        -0.55268555879592896     
  0.12780000000000002        -0.46729862689971924     
  0.12809999999999999        -0.36669808626174927     
  0.12840000000000001        -0.25559419393539429     
  0.12869999999999998        -0.14606729149818420     
  0.12900000000000000         -4.5853409916162491E-002
  0.12930000000000003          4.1879385709762573E-002
  0.12959999999999999         0.10753663629293442     
  0.12990000000000002         0.15006016194820404     
  0.13019999999999998         0.16968783736228943     
  0.13050000000000000         0.16246606409549713     
  0.13080000000000003         0.13404995203018188     
  0.13109999999999999          8.7637148797512054E-002
  0.13140000000000002          2.4992372840642929E-002
  0.13169999999999998         -4.4067036360502243E-002
  0.13200000000000001        -0.11531636863946915     
  0.13229999999999997        -0.18320252001285553     
  0.13260000000000000        -0.23825491964817047     
  0.13290000000000002        -0.27832868695259094     
  0.13319999999999999        -0.29844161868095398     
  0.13350000000000001        -0.29408860206604004     
  0.13380000000000003        -0.26814624667167664     
  0.13410000000000000        -0.21985480189323425     
  0.13440000000000002        -0.15239453315734863     
  0.13469999999999999         -7.3073178529739380E-002
  0.13500000000000001          1.5133716166019440E-002
  0.13529999999999998         0.10424154996871948     
  0.13560000000000000         0.18664826452732086     
  0.13590000000000002         0.25977045297622681     
  0.13619999999999999         0.31634390354156494     
  0.13650000000000001         0.35342195630073547     
  0.13680000000000003         0.37167856097221375     
  0.13710000000000000         0.36824133992195129     
  0.13740000000000002         0.34538376331329346     
  0.13769999999999999         0.30700209736824036     
  0.13800000000000001         0.25370630621910095     
  0.13829999999999998         0.19116036593914032     
  0.13860000000000000         0.12379294633865356     
  0.13890000000000002          5.3874570876359940E-002
  0.13919999999999999         -1.2372665107250214E-002
  0.13950000000000001         -7.1369871497154236E-002
  0.13979999999999998        -0.12094728648662567     
  0.14010000000000000        -0.15686766803264618     
  0.14040000000000002        -0.17755651473999023     
  0.14069999999999999        -0.18303443491458893     
  0.14100000000000001        -0.17230595648288727     
  0.14130000000000004        -0.14742536842823029     
  0.14160000000000000        -0.11156167089939117     
  0.14189999999999997         -6.7235559225082397E-002
  0.14219999999999999         -1.9231552258133888E-002
  0.14250000000000002          2.7531359344720840E-002
  0.14279999999999998          6.9963805377483368E-002
  0.14310000000000000         0.10342992097139359     
  0.14339999999999997         0.12513835728168488     
  0.14369999999999999         0.13404360413551331     
  0.14400000000000002         0.12906487286090851     
  0.14429999999999998         0.11124439537525177     
  0.14460000000000001          8.2934081554412842E-002
  0.14490000000000003          4.5782268047332764E-002
  0.14520000000000000          3.6113914102315903E-003
  0.14550000000000002         -4.0193524211645126E-002
  0.14579999999999999         -8.3291873335838318E-002
  0.14610000000000001        -0.12180659174919128     
  0.14640000000000003        -0.15360596776008606     
  0.14670000000000000        -0.17728729546070099     
  0.14699999999999996        -0.19039006531238556     
  0.14729999999999999        -0.19295741617679596     
  0.14760000000000001        -0.18497765064239502     
  0.14789999999999998        -0.16588553786277771     
  0.14820000000000000        -0.13777385652065277     