  -1.4999999999999999E-002     0.0000000000000000     
  -1.4700000000000000E-002     0.0000000000000000     
  -1.4400000000000000E-002     0.0000000000000000     
  -1.4100000000000000E-002     0.0000000000000000     
  -1.3800000000000000E-002     0.0000000000000000     
  -1.3500000000000000E-002     0.0000000000000000     
  -1.3200000000000000E-002     0.0000000000000000     
  -1.2899999999999998E-002     0.0000000000000000     
  -1.2600000000000000E-002     0.0000000000000000     
  -1.2299999999999998E-002     0.0000000000000000     
  -1.2000000000000000E-002     0.0000000000000000     
  -1.1699999999999999E-002     0.0000000000000000     
  -1.1399999999999999E-002     0.0000000000000000     
  -1.1099999999999999E-002     0.0000000000000000     
  -1.0799999999999999E-002     0.0000000000000000     
  -1.0499999999999999E-002     7.0855892300142240E-036
  -1.0199999999999999E-002     2.5496557417169362E-034
  -9.8999999999999991E-003    -9.1397055132233730E-034
  -9.5999999999999992E-003     1.9423668451605854E-033
  -9.2999999999999992E-003     1.5116356297107579E-032
  -8.9999999999999993E-003    -4.4578043044835199E-032
  -8.6999999999999994E-003    -1.5248596178965622E-031
  -8.3999999999999995E-003     5.1748684362746691E-031
  -8.0999999999999996E-003     1.3942182085215983E-030
  -7.7999999999999988E-003    -4.7610981863671465E-030
  -7.4999999999999997E-003    -9.2847352291224230E-030
  -7.1999999999999998E-003     2.8621010180826740E-029
  -6.8999999999999981E-003     5.3921656952219123E-029
  -6.5999999999999982E-003    -9.8062382385370449E-029
  -6.3000000000000000E-003    -2.9200913705612813E-028
  -6.0000000000000001E-003    -1.1319295747390052E-028
  -5.6999999999999985E-003     1.6031729746571009E-027
  -5.3999999999999986E-003     4.3460269346710039E-027
  -5.1000000000000004E-003    -1.1051851918996956E-026
  -4.7999999999999987E-003    -2.3580429882152269E-026
  -4.5000000000000005E-003     4.4782102089905063E-026
  -4.1999999999999989E-003     8.5167771421448631E-026
  -3.8999999999999990E-003    -1.2971889442200740E-025
  -3.5999999999999990E-003    -2.1979017592650326E-026
  -3.2999999999999991E-003    -1.3700849920217024E-025
  -2.9999999999999992E-003    -2.0248619765871345E-024
  -2.6999999999999993E-003     8.4869103505832266E-024
  -2.3999999999999994E-003    -2.2366912455920593E-024
  -2.0999999999999977E-003    -3.3001715135438770E-023
  -1.7999999999999995E-003     6.8526390461504347E-023
  -1.4999999999999979E-003    -7.6085634308566589E-023
  -1.1999999999999997E-003    -2.2482649394769188E-023
  -8.9999999999999976E-004     4.7035936234531042E-022
  -5.9999999999999810E-004    -9.9997391692298852E-022
  -2.9999999999999992E-004     4.7505592463063424E-022
   0.0000000000000000          1.3543019627734239E-021
   3.0000000000000165E-004    -4.4324319642876268E-021
   5.9999999999999984E-004     9.4439153989629483E-021
   9.0000000000000149E-004    -6.6542835182512412E-021
   1.2000000000000031E-003    -2.5438238525816377E-020
   1.5000000000000013E-003     8.2846649066463550E-020
   1.8000000000000030E-003    -9.8789191817882153E-020
   2.1000000000000012E-003    -8.0458481702794925E-020
   2.3999999999999994E-003     5.7128277748270420E-019
   2.7000000000000010E-003    -8.5289734760457160E-019
   2.9999999999999992E-003    -4.3805639594066587E-019
   3.3000000000000008E-003     3.4137379920593929E-018
   3.6000000000000025E-003    -4.1229130184256056E-018
   3.9000000000000007E-003    -3.2939882955510099E-018
   4.2000000000000023E-003     1.6474522817577674E-017
   4.5000000000000005E-003    -1.4857134911491514E-017
   4.7999999999999987E-003    -2.3205480059101323E-017
   5.1000000000000004E-003     6.6465815103207892E-017
   5.4000000000000020E-003    -2.3675302103419191E-017
   5.7000000000000037E-003    -1.2388455070613141E-016
   5.9999999999999984E-003     1.8752009786031766E-016
   6.3000000000000000E-003     7.0300002383183089E-017
   6.6000000000000017E-003    -4.8204618558462631E-016
   6.9000000000000034E-003     3.2747286357586315E-016
   7.2000000000000015E-003     7.4198947978953837E-016
   7.5000000000000032E-003    -1.4197365927275216E-015
   7.8000000000000014E-003    -2.6736642625685273E-016
   8.0999999999999996E-003     3.3612268462388526E-015
   8.4000000000000012E-003    -2.8477514502067963E-015
   8.7000000000000029E-003    -4.4664987515290709E-015
   9.0000000000000011E-003     1.1370304315596290E-014
   9.2999999999999992E-003    -2.5937944554774855E-015
   9.6000000000000009E-003    -2.2857775310654478E-014
   9.8999999999999991E-003     3.2073231196567617E-014
   1.0200000000000001E-002     1.3331521013537108E-014
   1.0500000000000002E-002    -8.6506438134754254E-014
   1.0800000000000004E-002     7.5042253769481981E-014
   1.1099999999999999E-002     9.7756736516449450E-014
   1.1400000000000000E-002    -2.8023495524977238E-013
   1.1700000000000002E-002     1.2938687122578119E-013
   1.2000000000000004E-002     4.2649615935273777E-013
   1.2300000000000002E-002    -7.7025311042561162E-013
   1.2600000000000000E-002     6.9818899739362145E-014
   1.2900000000000002E-002     1.4206844251365980E-012
   1.3200000000000000E-002    -1.8120210193428576E-012
   1.3500000000000002E-002    -5.5170093753859062E-013
   1.3800000000000003E-002     3.9595922027291230E-012
   1.4100000000000001E-002    -3.5302099785083918E-012
   1.4400000000000000E-002    -2.9055794228960430E-012
   1.4700000000000001E-002     9.2586745562006634E-012
   1.4999999999999999E-002    -5.4507310123796948E-012
   1.5300000000000001E-002    -9.0472872249502956E-012
   1.5600000000000003E-002     1.8390476641538811E-011
   1.5899999999999997E-002    -5.7422643029436671E-012
   1.6199999999999999E-002    -2.1199743349686884E-011
   1.6500000000000001E-002     3.0463829375770857E-011
   1.6800000000000002E-002    -2.9240850192568946E-012
   1.7100000000000004E-002    -3.6567474742676964E-011
   1.7400000000000006E-002     4.4281169009341426E-011
   1.7700000000000000E-002    -1.5243672643605599E-011
   1.8000000000000002E-002    -2.6378193032638997E-011
   1.8300000000000004E-002     1.1000372140967940E-010
   1.8600000000000005E-002    -2.3965177065043974E-010
   1.8900000000000000E-002     5.7379323514794578E-011
   1.9200000000000002E-002     9.6261909554584690E-010
   1.9500000000000003E-002    -1.7738666091560162E-009
   1.9799999999999998E-002    -1.3553411726263676E-009
   2.0100000000000000E-002     8.6441040991758200E-009
   2.0400000000000001E-002    -4.5252139813101167E-009
   2.0700000000000003E-002    -2.9134572088196364E-008
   2.0999999999999998E-002     3.9296210729844461E-008
   2.1299999999999999E-002     8.3386289873033093E-008
   2.1600000000000001E-002    -2.0003710687888088E-007
   2.1900000000000003E-002    -2.9824070679751458E-007
   2.2200000000000004E-002     1.3148620610081707E-006
   2.2500000000000006E-002     5.4722122513339855E-006
   2.2800000000000001E-002     1.1264878594374750E-005
   2.3100000000000002E-002     1.7110975022660568E-005
   2.3400000000000004E-002     2.2505406377604231E-005
   2.3699999999999999E-002     2.9898143111495301E-005
   2.4000000000000000E-002     4.4218679249752313E-005
   2.4300000000000002E-002     6.8178451329004019E-005
   2.4599999999999997E-002     1.0167061554966494E-004
   2.4900000000000005E-002     1.4825037214905024E-004
   2.5200000000000000E-002     2.1472455409821123E-004
   2.5499999999999995E-002     3.0561795574612916E-004
   2.5800000000000003E-002     4.2802310781553388E-004
   2.6099999999999998E-002     5.9253966901451349E-004
   2.6400000000000007E-002     8.0050498945638537E-004
   2.6700000000000002E-002     1.0453819995746017E-003
   2.6999999999999996E-002     1.3263431610539556E-003
   2.7300000000000005E-002     1.6421889886260033E-003
   2.7600000000000000E-002     1.9747267942875624E-003
   2.7900000000000008E-002     2.2803198080509901E-003
   2.8200000000000003E-002     2.4821963161230087E-003
   2.8499999999999998E-002     2.4690662976354361E-003
   2.8800000000000006E-002     2.0951004698872566E-003
   2.9100000000000001E-002     1.1634639231488109E-003
   2.9400000000000003E-002    -5.9723592130467296E-004
   2.9700000000000004E-002    -3.5345552023500204E-003
   3.0000000000000006E-002    -8.0511802807450294E-003
   3.0300000000000001E-002    -1.4597183093428612E-002
   3.0600000000000002E-002    -2.3684998974204063E-002
   3.0900000000000004E-002    -3.5882931202650070E-002
   3.1199999999999999E-002    -5.1780141890048981E-002
   3.1500000000000007E-002    -7.1946866810321808E-002
   3.1800000000000002E-002    -9.6865624189376831E-002
   3.2099999999999997E-002   -0.12686455249786377     
   3.2400000000000005E-002   -0.16210442781448364     
   3.2700000000000000E-002   -0.20253005623817444     
   3.3000000000000002E-002   -0.24780160188674927     
   3.3300000000000003E-002   -0.29726737737655640     
   3.3599999999999998E-002   -0.34997212886810303     
   3.3900000000000000E-002   -0.40466943383216858     
   3.4200000000000001E-002   -0.45983085036277771     
   3.4500000000000003E-002   -0.51369601488113403     
   3.4799999999999998E-002   -0.56435167789459229     
   3.5099999999999999E-002   -0.60982859134674072     
   3.5400000000000001E-002   -0.64815640449523926     
   3.5699999999999996E-002   -0.67742162942886353     
   3.6000000000000004E-002   -0.69581413269042969     
   3.6299999999999999E-002   -0.70170289278030396     
   3.6600000000000008E-002   -0.69352060556411743     
   3.6900000000000002E-002   -0.66996711492538452     
   3.7199999999999997E-002   -0.62962704896926880     
   3.7500000000000006E-002   -0.57134062051773071     
   3.7800000000000000E-002   -0.49382141232490540     
   3.8100000000000009E-002   -0.39597025513648987     
   3.8400000000000004E-002   -0.27683898806571960     
   3.8699999999999998E-002   -0.13591474294662476     
   3.9000000000000007E-002     2.6806579902768135E-002
   3.9300000000000002E-002    0.21044225990772247     
   3.9600000000000003E-002    0.41289535164833069     
   3.9900000000000005E-002    0.63075232505798340     
   4.0200000000000000E-002    0.85875040292739868     
   4.0500000000000001E-002     1.0901249647140503     
   4.0800000000000003E-002     1.3163948059082031     
   4.1100000000000005E-002     1.5278562307357788     
   4.1399999999999999E-002     1.7137640714645386     
   4.1700000000000008E-002     1.8636920452117920     
   4.2000000000000003E-002     1.9677848815917969     
   4.2299999999999997E-002     2.0181736946105957     
   4.2600000000000006E-002     2.0095641613006592     
   4.2900000000000001E-002     1.9403927326202393     
   4.3200000000000002E-002     1.8130654096603394     
   4.3500000000000004E-002     1.6345037221908569     
   4.3799999999999999E-002     1.4155896902084351     
   4.4100000000000000E-002     1.1709418296813965     
   4.4400000000000002E-002    0.91734254360198975     
   4.4700000000000004E-002    0.67289245128631592     
   4.4999999999999998E-002    0.45488741993904114     
   4.5300000000000000E-002    0.27875369787216187     
   4.5600000000000002E-002    0.15582881867885590     
   4.5899999999999996E-002     9.2685453593730927E-002
   4.6200000000000005E-002     9.0331219136714935E-002
   4.6500000000000000E-002    0.14307193458080292     
   4.6799999999999994E-002    0.24031484127044678     
   4.7100000000000003E-002    0.36555460095405579     
   4.7399999999999998E-002    0.49944531917572021     
   4.7700000000000006E-002    0.61944139003753662     
   4.8000000000000001E-002    0.70380330085754395     
   4.8300000000000010E-002    0.73098260164260864     
   4.8600000000000004E-002    0.68368655443191528     
   4.8899999999999999E-002    0.54810774326324463     
   4.9200000000000008E-002    0.31709733605384827     
   4.9500000000000002E-002    -1.0712841525673866E-002
   4.9800000000000011E-002   -0.42952248454093933     
   5.0100000000000006E-002   -0.92667490243911743     
   5.0400000000000000E-002    -1.4831813573837280     
   5.0700000000000009E-002    -2.0741419792175293     
   5.1000000000000004E-002    -2.6698348522186279     
   5.1299999999999998E-002    -3.2373898029327393     
   5.1600000000000007E-002    -3.7421498298645020     
   5.1900000000000002E-002    -4.1496615409851074     
   5.2200000000000010E-002    -4.4280028343200684     
   5.2500000000000005E-002    -4.5501918792724609     
   5.2800000000000000E-002    -4.4958381652832031     
   5.3099999999999994E-002    -4.2543296813964844     
   5.3400000000000003E-002    -3.8253185749053955     
   5.3699999999999998E-002    -3.2206556797027588     
   5.4000000000000006E-002    -2.4644575119018555     
   5.4300000000000001E-002    -1.5921126604080200     
   5.4599999999999996E-002   -0.64924550056457520     
   5.4900000000000004E-002    0.31219515204429626     
   5.5199999999999999E-002     1.2354230880737305     
   5.5499999999999994E-002     2.0654764175415039     
   5.5800000000000002E-002     2.7510876655578613     
   5.6099999999999997E-002     3.2506794929504395     
   5.6400000000000006E-002     3.5343556404113770     
   5.6700000000000000E-002     3.5880005359649658     
   5.6999999999999995E-002     3.4132478237152100     
   5.7300000000000004E-002     3.0280728340148926     
   5.7599999999999998E-002     2.4654464721679688     
   5.7900000000000007E-002     1.7703554630279541     
   5.8200000000000002E-002    0.99579119682312012     
   5.8499999999999996E-002    0.19943144917488098     
   5.8800000000000005E-002   -0.56256163120269775     
   5.9100000000000000E-002    -1.2376807928085327     
   5.9400000000000008E-002    -1.7833828926086426     
   5.9700000000000003E-002    -2.1668262481689453     
   6.0000000000000012E-002    -2.3697400093078613     
   6.0300000000000006E-002    -2.3857016563415527     
   6.0600000000000001E-002    -2.2221062183380127     
   6.0900000000000010E-002    -1.8964867591857910     
   6.1200000000000004E-002    -1.4352437257766724     
   6.1500000000000013E-002   -0.87094420194625854     
   6.1800000000000008E-002   -0.23788297176361084     
   6.2100000000000002E-002    0.42865225672721863     
   6.2399999999999997E-002     1.0964522361755371     
   6.2700000000000006E-002     1.7371894121170044     
   6.3000000000000000E-002     2.3287248611450195     
   6.3300000000000009E-002     2.8533699512481689     
   6.3600000000000004E-002     3.3011369705200195     
   6.3899999999999998E-002     3.6652035713195801     
   6.4199999999999993E-002     3.9442296028137207     
   6.4500000000000002E-002     4.1384844779968262     
   6.4800000000000010E-002     4.2510333061218262     
   6.5100000000000005E-002     4.2836642265319824     
   6.5400000000000000E-002     4.2402601242065430     
   6.5700000000000008E-002     4.1217470169067383     
   6.5999999999999989E-002     3.9303529262542725     
   6.6299999999999998E-002     3.6662762165069580     
   6.6600000000000006E-002     3.3315687179565430     
   6.6900000000000001E-002     2.9281172752380371     
   6.7199999999999996E-002     2.4609222412109375     
   6.7500000000000004E-002     1.9362668991088867     
   6.7800000000000013E-002     1.3650182485580444     
   6.8099999999999994E-002    0.75946712493896484     
   6.8400000000000002E-002    0.13600963354110718     
   6.8700000000000011E-002   -0.48764100670814514     
   6.8999999999999992E-002    -1.0927697420120239     
   6.9300000000000000E-002    -1.6601070165634155     
   6.9600000000000009E-002    -2.1727244853973389     
   6.9900000000000004E-002    -2.6154530048370361     
   7.0199999999999999E-002    -2.9781272411346436     
   7.0500000000000007E-002    -3.2533724308013916     
   7.0800000000000016E-002    -3.4415175914764404     
   7.1099999999999997E-002    -3.5443766117095947     
   7.1400000000000005E-002    -3.5718455314636230     
   7.1700000000000000E-002    -3.5348479747772217     
   7.1999999999999995E-002    -3.4487493038177490     
   7.2300000000000003E-002    -3.3296148777008057     
   7.2600000000000012E-002    -3.1944169998168945     
   7.2900000000000006E-002    -3.0583624839782715     
   7.3200000000000001E-002    -2.9356892108917236     
   7.3499999999999996E-002    -2.8367378711700439     
   7.3800000000000004E-002    -2.7693202495574951     
   7.4099999999999999E-002    -2.7374014854431152     
   7.4400000000000008E-002    -2.7412059307098389     
   7.4700000000000003E-002    -2.7773742675781250     
   7.5000000000000011E-002    -2.8400788307189941     
   7.5299999999999992E-002    -2.9203934669494629     
   7.5600000000000001E-002    -3.0084092617034912     
   7.5900000000000009E-002    -3.0927553176879883     
   7.6200000000000004E-002    -3.1624288558959961     
   7.6499999999999999E-002    -3.2087283134460449     
   7.6800000000000007E-002    -3.2225742340087891     
   7.7099999999999988E-002    -3.2008650302886963     
   7.7399999999999997E-002    -3.1408290863037109     
   7.7700000000000005E-002    -3.0461459159851074     
   7.8000000000000014E-002    -2.9206790924072266     
   7.8299999999999995E-002    -2.7731840610504150     
   7.8600000000000003E-002    -2.6098880767822266     
   7.8900000000000012E-002    -2.4376475811004639     
   7.9199999999999993E-002    -2.2556734085083008     
   7.9500000000000001E-002    -2.0602903366088867     
   7.9800000000000010E-002    -1.8345266580581665     
   8.0100000000000018E-002    -1.5557117462158203     
   8.0399999999999999E-002    -1.1886503696441650     
   8.0700000000000008E-002   -0.69544303417205811     
   8.1000000000000003E-002    -3.1067132949829102E-002
   8.1299999999999997E-002    0.83948844671249390     
   8.1600000000000006E-002     1.9451832771301270     
   8.1900000000000014E-002     3.2916109561920166     
   8.2199999999999995E-002     4.8616437911987305     
   8.2500000000000004E-002     6.6030306816101074     
   8.2799999999999999E-002     8.4327497482299805     
   8.3100000000000007E-002     10.234097480773926     
   8.3400000000000002E-002     11.863986015319824     
   8.3700000000000011E-002     13.164149284362793     
   8.4000000000000005E-002     13.974347114562988     
   8.4300000000000000E-002     14.148192405700684     
   8.4599999999999995E-002     13.571987152099609     
   8.4900000000000003E-002     12.179067611694336     
   8.5199999999999998E-002     9.9645938873291016     
   8.5500000000000007E-002     6.9908237457275391     
   8.5800000000000001E-002     3.3911824226379395     
   8.6100000000000010E-002   -0.63553333282470703     
   8.6399999999999991E-002    -4.8405675888061523     
   8.6699999999999999E-002    -8.9374876022338867     
   8.7000000000000008E-002    -12.632809638977051     
   8.7300000000000003E-002    -15.641074180603027     
   8.7599999999999997E-002    -17.721406936645508     
   8.7900000000000006E-002    -18.685337066650391     
   8.8200000000000014E-002    -18.428613662719727     
   8.8499999999999995E-002    -16.925607681274414     
   8.8800000000000004E-002    -14.247635841369629     
   8.9100000000000013E-002    -10.542084693908691     
   8.9399999999999993E-002    -6.0328259468078613     
   8.9700000000000002E-002   -0.99365675449371338     
   9.0000000000000011E-002     4.2699565887451172     
   9.0299999999999991E-002     9.4467391967773438     
   9.0600000000000000E-002     14.237635612487793     
   9.0900000000000009E-002     18.383398056030273     
   9.1200000000000017E-002     21.671728134155273     
   9.1499999999999998E-002     23.954208374023438     
   9.1800000000000007E-002     25.145141601562500     
   9.2100000000000001E-002     25.226831436157227     
   9.2399999999999996E-002     24.235551834106445     
   9.2700000000000005E-002     22.263347625732422     
   9.3000000000000013E-002     19.435255050659180     
   9.3300000000000008E-002     15.907530784606934     
   9.3600000000000003E-002     11.850308418273926     
   9.3899999999999997E-002     7.4388599395751953     
   9.4200000000000006E-002     2.8478651046752930     
   9.4500000000000001E-002    -1.7599372863769531     
   9.4800000000000009E-002    -6.2335743904113770     
   9.5100000000000004E-002    -10.440443038940430     
   9.5399999999999999E-002    -14.262940406799316     
   9.5699999999999993E-002    -17.609909057617188     
   9.6000000000000002E-002    -20.401260375976562     
   9.6300000000000011E-002    -22.585355758666992     
   9.6600000000000005E-002    -24.123321533203125     
   9.6900000000000000E-002    -25.002872467041016     
   9.7200000000000009E-002    -25.225564956665039     
   9.7499999999999989E-002    -24.814195632934570     
   9.7799999999999998E-002    -23.809072494506836     
   9.8100000000000007E-002    -22.264562606811523     
   9.8400000000000015E-002    -20.249736785888672     
   9.8699999999999996E-002    -17.843332290649414     
   9.9000000000000005E-002    -15.135294914245605     
   9.9300000000000013E-002    -12.216198921203613     
   9.9599999999999994E-002    -9.1806879043579102     
   9.9900000000000003E-002    -6.1223092079162598     
  0.10020000000000001         -3.1242885589599609     
  0.10049999999999999        -0.26696908473968506     
  0.10080000000000000          2.3872172832489014     
  0.10110000000000001          4.7865347862243652     
  0.10140000000000000          6.8962101936340332     
  0.10170000000000000          8.7011632919311523     
  0.10200000000000001          10.194625854492188     
  0.10230000000000002          11.393887519836426     
  0.10260000000000000          12.317513465881348     
  0.10290000000000001          12.999553680419922     
  0.10320000000000000          13.471512794494629     
  0.10350000000000001          13.767889022827148     
  0.10380000000000000          13.917168617248535     
  0.10410000000000001          13.939723968505859     
  0.10440000000000001          13.848160743713379     
  0.10470000000000000          13.645073890686035     
  0.10500000000000000          13.324717521667480     
  0.10530000000000000          12.873381614685059     
  0.10560000000000000          12.276520729064941     
  0.10590000000000001          11.518295288085938     
  0.10620000000000000          10.584627151489258     
  0.10650000000000001          9.4727230072021484     
  0.10679999999999999          8.1851034164428711     
  0.10710000000000000          6.7375698089599609     
  0.10740000000000001          5.1556186676025391     
  0.10770000000000000          3.4779613018035889     
  0.10800000000000000          1.7485964298248291     
  0.10830000000000001          1.9208222627639771E-002
  0.10859999999999999         -1.6536680459976196     
  0.10890000000000000         -3.2187120914459229     
  0.10920000000000001         -4.6255173683166504     
  0.10950000000000001         -5.8325629234313965     
  0.10979999999999999         -6.8091778755187988     
  0.11009999999999999         -7.5359973907470703     
  0.11040000000000001         -8.0093822479248047     
  0.11070000000000001         -8.2357301712036133     
  0.11100000000000000         -8.2374458312988281     
  0.11130000000000000         -8.0459489822387695     
  0.11160000000000002         -7.7001895904541016     
  0.11190000000000001         -7.2450165748596191     
  0.11220000000000001         -6.7264471054077148     
  0.11250000000000000         -6.1879992485046387     
  0.11280000000000000         -5.6665382385253906     
  0.11309999999999999         -5.1943030357360840     
  0.11340000000000001         -4.7888088226318359     
  0.11369999999999998         -4.4606227874755859     
  0.11400000000000000         -4.2052907943725586     
  0.11430000000000000         -4.0116653442382812     
  0.11460000000000002         -3.8577067852020264     
  0.11489999999999999         -3.7150959968566895     
  0.11520000000000001         -3.5547373294830322     
  0.11550000000000001         -3.3442795276641846     
  0.11580000000000000         -3.0579848289489746     
  0.11609999999999999         -2.6730604171752930     
  0.11640000000000002         -2.1779847145080566     
  0.11670000000000001         -1.5685095787048340     
  0.11700000000000001        -0.85352605581283569     
  0.11730000000000000         -5.0375174731016159E-002
  0.11760000000000000         0.81316322088241577     
  0.11789999999999999          1.7020753622055054     
  0.11820000000000001          2.5766646862030029     
  0.11850000000000001          3.3947186470031738     
  0.11880000000000000          4.1154389381408691     
  0.11910000000000000          4.7026472091674805     
  0.11940000000000002          5.1251463890075684     
  0.11970000000000001          5.3626565933227539     
  0.12000000000000001          5.4043354988098145     
  0.12030000000000000          5.2500243186950684     
  0.12060000000000000          4.9133567810058594     
  0.12089999999999999          4.4156107902526855     
  0.12119999999999999          3.7905533313751221     
  0.12150000000000001          3.0774953365325928     
  0.12180000000000001          2.3233993053436279     
  0.12210000000000000          1.5739064216613770     
  0.12239999999999999         0.87905424833297729     
  0.12270000000000002         0.28085708618164062     
  0.12300000000000001        -0.18493366241455078     
  0.12330000000000001        -0.49040952324867249     
  0.12360000000000000        -0.62337815761566162     
  0.12390000000000000        -0.58370018005371094     
  0.12419999999999999        -0.38513752818107605     
  0.12450000000000001         -5.8614388108253479E-002
  0.12480000000000001         0.35790187120437622     
  0.12509999999999999         0.81148141622543335     
  0.12540000000000001          1.2518244981765747     
  0.12570000000000003          1.6210197210311890     
  0.12600000000000000          1.8729647397994995     
  0.12630000000000002          1.9660688638687134     
  0.12659999999999999          1.8764364719390869     
  0.12690000000000001          1.5944292545318604     
  0.12719999999999998          1.1278148889541626     
  0.12750000000000000         0.50479763746261597     
  0.12780000000000002        -0.23717594146728516     
  0.12809999999999999         -1.0426882505416870     
  0.12840000000000001         -1.8554140329360962     
  0.12869999999999998         -2.6131994724273682     
  0.12900000000000000         -3.2607848644256592     
  0.12930000000000003         -3.7500171661376953     
  0.12959999999999999         -4.0447564125061035     
  0.12990000000000002         -4.1273303031921387     
  0.13019999999999998         -3.9910199642181396     
  0.13050000000000000         -3.6508703231811523     
  0.13080000000000003         -3.1326284408569336     
  0.13109999999999999         -2.4761791229248047     
  0.13140000000000002         -1.7281491756439209     
  0.13169999999999998        -0.94063699245452881     
  0.13200000000000001        -0.16701212525367737     
  0.13229999999999997         0.54577821493148804     
  0.13260000000000000          1.1530450582504272     
  0.13290000000000002          1.6241002082824707     
  0.13319999999999999          1.9353740215301514     
  0.13350000000000001          2.0795433521270752     
  0.13380000000000003          2.0563514232635498     
  0.13410000000000000          1.8833595514297485     
  0.13440000000000002          1.5815287828445435     
  0.13469999999999999          1.1852357387542725     
  0.13500000000000001         0.72859960794448853     
  0.13529999999999998         0.25318914651870728     
  0.13560000000000000        -0.20465911924839020     
  0.13590000000000002        -0.60856097936630249     
  0.13619999999999999        -0.92962515354156494     
  0.13650000000000001         -1.1463836431503296     
  0.13680000000000003         -1.2449610233306885     
  0.13710000000000000         -1.2223774194717407     
  0.13740000000000002         -1.0848196744918823     
  0.13769999999999999        -0.84410578012466431     
  0.13800000000000001        -0.52534925937652588     
  0.13829999999999998        -0.15210273861885071     
  0.13860000000000000         0.24325938522815704     
  0.13890000000000002         0.63024425506591797     
  0.13919999999999999         0.97758555412292480     
  0.13950000000000001          1.2604042291641235     
  0.13979999999999998          1.4568247795104980     
  0.14010000000000000          1.5525547266006470     
  0.14040000000000002          1.5433253049850464     
  0.14069999999999999          1.4297027587890625     
  0.14100000000000001          1.2247244119644165     
  0.14130000000000004         0.94426029920578003     
  0.14160000000000000         0.61401212215423584     
  0.14189999999999997         0.25901910662651062     
  0.14219999999999999         -9.0938016772270203E-002
  0.14250000000000002        -0.40911281108856201     
  0.14279999999999998        -0.67125350236892700     
  0.14310000000000000        -0.85801750421524048     
  0.14339999999999997        -0.95711392164230347     
  0.14369999999999999        -0.96397852897644043     
  0.14400000000000002        -0.87854999303817749     
  0.14429999999999998        -0.71320152282714844     
  0.14460000000000001        -0.48014122247695923     
  0.14490000000000003        -0.20187357068061829     
  0.14520000000000000         0.10048741847276688     
  0.14550000000000002         0.39936494827270508     
  0.14579999999999999         0.67368626594543457     
  0.14610000000000001         0.89880591630935669     
  0.14640000000000003          1.0573259592056274     
  0.14670000000000000          1.1353195905685425     
  0.14699999999999996          1.1259294748306274     
  0.14729999999999999          1.0267083644866943     
  0.14760000000000001         0.84501260519027710     
  0.14789999999999998         0.59088873863220215     
  0.14820000000000000         0.28413254022598267     