  -1.4999999999999999E-002     0.0000000000000000     
  -1.4700000000000000E-002     0.0000000000000000     
  -1.4400000000000000E-002     0.0000000000000000     
  -1.4100000000000000E-002     0.0000000000000000     
  -1.3800000000000000E-002     0.0000000000000000     
  -1.3500000000000000E-002     0.0000000000000000     
  -1.3200000000000000E-002     0.0000000000000000     
  -1.2899999999999998E-002     0.0000000000000000     
  -1.2600000000000000E-002     0.0000000000000000     
  -1.2299999999999998E-002     0.0000000000000000     
  -1.2000000000000000E-002     0.0000000000000000     
  -1.1699999999999999E-002     0.0000000000000000     
  -1.1399999999999999E-002     0.0000000000000000     
  -1.1099999999999999E-002     0.0000000000000000     
  -1.0799999999999999E-002     0.0000000000000000     
  -1.0499999999999999E-002     0.0000000000000000     
  -1.0199999999999999E-002     0.0000000000000000     
  -9.8999999999999991E-003     0.0000000000000000     
  -9.5999999999999992E-003     0.0000000000000000     
  -9.2999999999999992E-003     0.0000000000000000     
  -8.9999999999999993E-003     0.0000000000000000     
  -8.6999999999999994E-003     0.0000000000000000     
  -8.3999999999999995E-003     0.0000000000000000     
  -8.0999999999999996E-003     0.0000000000000000     
  -7.7999999999999988E-003     0.0000000000000000     
  -7.4999999999999997E-003     0.0000000000000000     
  -7.1999999999999998E-003     0.0000000000000000     
  -6.8999999999999981E-003     0.0000000000000000     
  -6.5999999999999982E-003     0.0000000000000000     
  -6.3000000000000000E-003     0.0000000000000000     
  -6.0000000000000001E-003     0.0000000000000000     
  -5.6999999999999985E-003     0.0000000000000000     
  -5.3999999999999986E-003     0.0000000000000000     
  -5.1000000000000004E-003     0.0000000000000000     
  -4.7999999999999987E-003     0.0000000000000000     
  -4.5000000000000005E-003     0.0000000000000000     
  -4.1999999999999989E-003     0.0000000000000000     
  -3.8999999999999990E-003     0.0000000000000000     
  -3.5999999999999990E-003     0.0000000000000000     
  -3.2999999999999991E-003     0.0000000000000000     
  -2.9999999999999992E-003     0.0000000000000000     
  -2.6999999999999993E-003     0.0000000000000000     
  -2.3999999999999994E-003     0.0000000000000000     
  -2.0999999999999977E-003     0.0000000000000000     
  -1.7999999999999995E-003     0.0000000000000000     
  -1.4999999999999979E-003     0.0000000000000000     
  -1.1999999999999997E-003     0.0000000000000000     
  -8.9999999999999976E-004     0.0000000000000000     
  -5.9999999999999810E-004     0.0000000000000000     
  -2.9999999999999992E-004     0.0000000000000000     
   0.0000000000000000          0.0000000000000000     
   3.0000000000000165E-004     0.0000000000000000     
   5.9999999999999984E-004     0.0000000000000000     
   9.0000000000000149E-004     0.0000000000000000     
   1.2000000000000031E-003     0.0000000000000000     
   1.5000000000000013E-003     0.0000000000000000     
   1.8000000000000030E-003     0.0000000000000000     
   2.1000000000000012E-003     0.0000000000000000     
   2.3999999999999994E-003     0.0000000000000000     
   2.7000000000000010E-003     0.0000000000000000     
   2.9999999999999992E-003     0.0000000000000000     
   3.3000000000000008E-003     0.0000000000000000     
   3.6000000000000025E-003     0.0000000000000000     
   3.9000000000000007E-003     0.0000000000000000     
   4.2000000000000023E-003     0.0000000000000000     
   4.5000000000000005E-003     0.0000000000000000     
   4.7999999999999987E-003     0.0000000000000000     
   5.1000000000000004E-003     0.0000000000000000     
   5.4000000000000020E-003     0.0000000000000000     
   5.7000000000000037E-003     0.0000000000000000     
   5.9999999999999984E-003     0.0000000000000000     
   6.3000000000000000E-003     0.0000000000000000     
   6.6000000000000017E-003     0.0000000000000000     
   6.9000000000000034E-003     0.0000000000000000     
   7.2000000000000015E-003     0.0000000000000000     
   7.5000000000000032E-003     0.0000000000000000     
   7.8000000000000014E-003     0.0000000000000000     
   8.0999999999999996E-003     0.0000000000000000     
   8.4000000000000012E-003     0.0000000000000000     
   8.7000000000000029E-003     0.0000000000000000     
   9.0000000000000011E-003     0.0000000000000000     
   9.2999999999999992E-003     0.0000000000000000     
   9.6000000000000009E-003     0.0000000000000000     
   9.8999999999999991E-003     0.0000000000000000     
   1.0200000000000001E-002     0.0000000000000000     
   1.0500000000000002E-002     0.0000000000000000     
   1.0800000000000004E-002     0.0000000000000000     
   1.1099999999999999E-002     0.0000000000000000     
   1.1400000000000000E-002     0.0000000000000000     
   1.1700000000000002E-002     0.0000000000000000     
   1.2000000000000004E-002     0.0000000000000000     
   1.2300000000000002E-002     0.0000000000000000     
   1.2600000000000000E-002     0.0000000000000000     
   1.2900000000000002E-002     0.0000000000000000     
   1.3200000000000000E-002     0.0000000000000000     
   1.3500000000000002E-002     0.0000000000000000     
   1.3800000000000003E-002     0.0000000000000000     
   1.4100000000000001E-002     0.0000000000000000     
   1.4400000000000000E-002     0.0000000000000000     
   1.4700000000000001E-002     0.0000000000000000     
   1.4999999999999999E-002     0.0000000000000000     
   1.5300000000000001E-002     0.0000000000000000     
   1.5600000000000003E-002     0.0000000000000000     
   1.5899999999999997E-002     0.0000000000000000     
   1.6199999999999999E-002     0.0000000000000000     
   1.6500000000000001E-002     0.0000000000000000     
   1.6800000000000002E-002     0.0000000000000000     
   1.7100000000000004E-002     0.0000000000000000     
   1.7400000000000006E-002     0.0000000000000000     
   1.7700000000000000E-002     0.0000000000000000     
   1.8000000000000002E-002     0.0000000000000000     
   1.8300000000000004E-002     0.0000000000000000     
   1.8600000000000005E-002     0.0000000000000000     
   1.8900000000000000E-002     0.0000000000000000     
   1.9200000000000002E-002     0.0000000000000000     
   1.9500000000000003E-002     0.0000000000000000     
   1.9799999999999998E-002     0.0000000000000000     
   2.0100000000000000E-002     0.0000000000000000     
   2.0400000000000001E-002     0.0000000000000000     
   2.0700000000000003E-002     0.0000000000000000     
   2.0999999999999998E-002     0.0000000000000000     
   2.1299999999999999E-002     0.0000000000000000     
   2.1600000000000001E-002     0.0000000000000000     
   2.1900000000000003E-002     0.0000000000000000     
   2.2200000000000004E-002     0.0000000000000000     
   2.2500000000000006E-002     0.0000000000000000     
   2.2800000000000001E-002     0.0000000000000000     
   2.3100000000000002E-002     0.0000000000000000     
   2.3400000000000004E-002     0.0000000000000000     
   2.3699999999999999E-002     0.0000000000000000     
   2.4000000000000000E-002     0.0000000000000000     
   2.4300000000000002E-002     0.0000000000000000     
   2.4599999999999997E-002     0.0000000000000000     
   2.4900000000000005E-002     0.0000000000000000     
   2.5200000000000000E-002     0.0000000000000000     
   2.5499999999999995E-002     0.0000000000000000     
   2.5800000000000003E-002     0.0000000000000000     
   2.6099999999999998E-002     0.0000000000000000     
   2.6400000000000007E-002     0.0000000000000000     
   2.6700000000000002E-002     0.0000000000000000     
   2.6999999999999996E-002     0.0000000000000000     
   2.7300000000000005E-002     0.0000000000000000     
   2.7600000000000000E-002     0.0000000000000000     
   2.7900000000000008E-002     0.0000000000000000     
   2.8200000000000003E-002     0.0000000000000000     
   2.8499999999999998E-002     0.0000000000000000     
   2.8800000000000006E-002     0.0000000000000000     
   2.9100000000000001E-002     0.0000000000000000     
   2.9400000000000003E-002     0.0000000000000000     
   2.9700000000000004E-002     0.0000000000000000     
   3.0000000000000006E-002     0.0000000000000000     
   3.0300000000000001E-002     0.0000000000000000     
   3.0600000000000002E-002     0.0000000000000000     
   3.0900000000000004E-002     2.5046120433536104E-037
   3.1199999999999999E-002    -8.7742646381562488E-036
   3.1500000000000007E-002     5.4297702665101245E-035
   3.1800000000000002E-002    -3.1862828191356516E-034
   3.2099999999999997E-002     3.0316201345798342E-034
   3.2400000000000005E-002     8.4705696803551865E-033
   3.2700000000000000E-002    -4.0041331331064031E-032
   3.3000000000000002E-002     1.2856250059576066E-031
   3.3300000000000003E-002    -3.1311903982599155E-031
   3.3599999999999998E-002     3.0165827553400546E-031
   3.3900000000000000E-002     2.6111051008600689E-030
   3.4200000000000001E-002    -2.2914354871087529E-029
   3.4500000000000003E-002     1.2088107721889993E-028
   3.4799999999999998E-002    -5.0226644798115548E-028
   3.5099999999999999E-002     1.7358606885476373E-027
   3.5400000000000001E-002    -4.9700139847708798E-027
   3.5699999999999996E-002     1.1053639181985347E-026
   3.6000000000000004E-002    -1.4219775565920632E-026
   3.6299999999999999E-002    -2.0735617190882505E-026
   3.6600000000000008E-002     2.1074426478550317E-025
   3.6900000000000002E-002    -7.9473939807910563E-025
   3.7199999999999997E-002     1.8444654619964198E-024
   3.7500000000000006E-002    -1.5432006655838732E-024
   3.7800000000000000E-002    -9.1664382897842270E-024
   3.8100000000000009E-002     5.5703494312460251E-023
   3.8400000000000004E-002    -1.7410882143728189E-022
   3.8699999999999998E-002     3.0709569965881114E-022
   3.9000000000000007E-002     1.0605738834959301E-022
   3.9300000000000002E-002    -3.0726819387761294E-021
   3.9600000000000003E-002     1.2920185544069662E-020
   3.9900000000000005E-002    -3.3176492153617210E-020
   4.0200000000000000E-002     4.8664208352753824E-020
   4.0500000000000001E-002     2.1898653520932411E-020
   4.0800000000000003E-002    -3.9092752204651569E-019
   4.1100000000000005E-002     1.3663389003690459E-018
   4.1399999999999999E-002    -2.9128623467753647E-018
   4.1700000000000008E-002     3.5110582726680942E-018
   4.2000000000000003E-002     1.1009012946917250E-018
   4.2299999999999997E-002    -1.6605278565726382E-017
   4.2600000000000006E-002     4.3373400707675218E-017
   4.2900000000000001E-002    -7.4667291024336461E-017
   4.3200000000000002E-002     1.4893770740821488E-016
   4.3500000000000004E-002    -5.2756017751635605E-016
   4.3799999999999999E-002     1.8310698738369579E-015
   4.4100000000000000E-002    -3.8979956483204022E-015
   4.4400000000000002E-002     2.8223561318986914E-017
   4.4700000000000004E-002     3.5941274912840160E-014
   4.4999999999999998E-002    -1.5194961987870931E-013
   4.5300000000000000E-002     3.2246856010095803E-013
   4.5600000000000002E-002    -8.4509215760291551E-014
   4.5899999999999996E-002    -2.0021983203333260E-012
   4.6200000000000005E-002     7.4186490284233741E-012
   4.6500000000000000E-002    -1.0672625110064171E-011
   4.6799999999999994E-002    -1.5408202491684619E-011
   4.7100000000000003E-002     1.1249177978012170E-010
   4.7399999999999998E-002    -2.1379090164863612E-010
   4.7700000000000006E-002    -1.2642153990327643E-010
   4.8000000000000001E-002     1.5591916646684467E-009
   4.8300000000000010E-002    -2.7398705526593403E-009
   4.8600000000000004E-002    -3.1413169843119704E-009
   4.8899999999999999E-002     2.0753599727640903E-008
   4.9200000000000008E-002    -1.7167993249245228E-008
   4.9500000000000002E-002    -8.4322948623594129E-008
   4.9800000000000011E-002     1.8174074511989602E-007
   5.0100000000000006E-002     2.3440605900759692E-007
   5.0400000000000000E-002    -1.0821694331752951E-006
   5.0700000000000009E-002    -6.9455848006327869E-007
   5.1000000000000004E-002     7.7481772677856497E-006
   5.1299999999999998E-002     2.3679303922108375E-005
   5.1600000000000007E-002     4.2155275878030807E-005
   5.1900000000000002E-002     6.6586035245563835E-005
   5.2200000000000010E-002     1.0058846237370744E-004
   5.2500000000000005E-002     1.4021644892636687E-004
   5.2800000000000000E-002     1.9448266539257020E-004
   5.3099999999999994E-002     2.8687191661447287E-004
   5.3400000000000003E-002     4.3036701390519738E-004
   5.3699999999999998E-002     6.3594477251172066E-004
   5.4000000000000006E-002     9.3150150496512651E-004
   5.4300000000000001E-002     1.3465570518746972E-003
   5.4599999999999996E-002     1.9045774824917316E-003
   5.4900000000000004E-002     2.6367530226707458E-003
   5.5199999999999999E-002     3.5833306610584259E-003
   5.5499999999999994E-002     4.7824671491980553E-003
   5.5800000000000002E-002     6.2545239925384521E-003
   5.6099999999999997E-002     7.9912198707461357E-003
   5.6400000000000006E-002     9.9495891481637955E-003
   5.6700000000000000E-002     1.2033183127641678E-002
   5.6999999999999995E-002     1.4071969315409660E-002
   5.7300000000000004E-002     1.5799291431903839E-002
   5.7599999999999998E-002     1.6820490360260010E-002
   5.7900000000000007E-002     1.6606343910098076E-002
   5.8200000000000002E-002     1.4483225531876087E-002
   5.8499999999999996E-002     9.6054309979081154E-003
   5.8800000000000005E-002     1.0036528110504150E-003
   5.9100000000000000E-002    -1.2337070889770985E-002
   5.9400000000000008E-002    -3.1423401087522507E-002
   5.9700000000000003E-002    -5.7148423045873642E-002
   6.0000000000000012E-002    -9.0135857462882996E-002
   6.0300000000000006E-002   -0.13055242598056793     
   6.0600000000000001E-002   -0.17790029942989349     
   6.0900000000000010E-002   -0.23083542287349701     
   6.1200000000000004E-002   -0.28702163696289062     
   6.1500000000000013E-002   -0.34301486611366272     
   6.1800000000000008E-002   -0.39423346519470215     
   6.2100000000000002E-002   -0.43505573272705078     
   6.2399999999999997E-002   -0.45906788110733032     
   6.2700000000000006E-002   -0.45950534939765930     
   6.3000000000000000E-002   -0.42973685264587402     
   6.3300000000000009E-002   -0.36386233568191528     
   6.3600000000000004E-002   -0.25755783915519714     
   6.3899999999999998E-002   -0.10877693444490433     
   6.4199999999999993E-002     8.1608921289443970E-002
   6.4500000000000002E-002    0.30935209989547729     
   6.4800000000000010E-002    0.56648272275924683     
   6.5100000000000005E-002    0.84143465757369995     
   6.5400000000000000E-002     1.1194875240325928     
   6.5700000000000008E-002     1.3834550380706787     
   6.5999999999999989E-002     1.6148465871810913     
   6.6299999999999998E-002     1.7953187227249146     
   6.6600000000000006E-002     1.9080322980880737     
   6.6900000000000001E-002     1.9391781091690063     
   6.7199999999999996E-002     1.8794159889221191     
   6.7500000000000004E-002     1.7247490882873535     
   6.7800000000000013E-002     1.4773511886596680     
   6.8099999999999994E-002     1.1455323696136475     
   6.8400000000000002E-002    0.74342268705368042     
   6.8700000000000011E-002    0.29005271196365356     
   6.8999999999999992E-002   -0.19189563393592834     
   6.9300000000000000E-002   -0.67782419919967651     
   6.9600000000000009E-002    -1.1426775455474854     
   6.9900000000000004E-002    -1.5631730556488037     
   7.0199999999999999E-002    -1.9187470674514771     
   7.0500000000000007E-002    -2.1932101249694824     
   7.0800000000000016E-002    -2.3757679462432861     
   7.1099999999999997E-002    -2.4609022140502930     
   7.1400000000000005E-002    -2.4490580558776855     
   7.1700000000000000E-002    -2.3460943698883057     
   7.1999999999999995E-002    -2.1620008945465088     
   7.2300000000000003E-002    -1.9110137224197388     
   7.2600000000000012E-002    -1.6100276708602905     
   7.2900000000000006E-002    -1.2769742012023926     
   7.3200000000000001E-002   -0.93080079555511475     
   7.3499999999999996E-002   -0.58949029445648193     
   7.3800000000000004E-002   -0.26923888921737671     
   7.4099999999999999E-002     1.5675935894250870E-002
   7.4400000000000008E-002    0.25426778197288513     
   7.4700000000000003E-002    0.43935683369636536     
   7.5000000000000011E-002    0.56696265935897827     
   7.5299999999999992E-002    0.63713866472244263     
   7.5600000000000001E-002    0.65373378992080688     
   7.5900000000000009E-002    0.62348270416259766     
   7.6200000000000004E-002    0.55594134330749512     
   7.6499999999999999E-002    0.46252456307411194     
   7.6800000000000007E-002    0.35551461577415466     
   7.7099999999999988E-002    0.24736429750919342     
   7.7399999999999997E-002    0.14965121448040009     
   7.7700000000000005E-002     7.2168715298175812E-002
   7.8000000000000014E-002     2.2556433454155922E-002
   7.8299999999999995E-002     5.4995738901197910E-003
   7.8600000000000003E-002     2.2729268297553062E-002
   7.8900000000000012E-002     7.3296673595905304E-002
   7.9199999999999993E-002    0.15336638689041138     
   7.9500000000000001E-002    0.25718563795089722     
   7.9800000000000010E-002    0.37778067588806152     
   8.0100000000000018E-002    0.50705933570861816     
   8.0399999999999999E-002    0.63724166154861450     
   8.0700000000000008E-002    0.76111418008804321     
   8.1000000000000003E-002    0.87212163209915161     
   8.1299999999999997E-002    0.96540766954421997     
   8.1600000000000006E-002     1.0374004840850830     
   8.1900000000000014E-002     1.0855685472488403     
   8.2199999999999995E-002     1.1089333295822144     
   8.2500000000000004E-002     1.1071499586105347     
   8.2799999999999999E-002     1.0803372859954834     
   8.3100000000000007E-002     1.0294541120529175     
   8.3400000000000002E-002    0.95526593923568726     
   8.3700000000000011E-002    0.85883826017379761     
   8.4000000000000005E-002    0.74179458618164062     
   8.4300000000000000E-002    0.60594594478607178     
   8.4599999999999995E-002    0.45384931564331055     
   8.4900000000000003E-002    0.28908309340476990     
   8.5199999999999998E-002    0.11610666662454605     
   8.5500000000000007E-002    -5.9389762580394745E-002
   8.5800000000000001E-002   -0.23085582256317139     
   8.6100000000000010E-002   -0.39095234870910645     
   8.6399999999999991E-002   -0.53217250108718872     
   8.6699999999999999E-002   -0.64744353294372559     
   8.7000000000000008E-002   -0.73056960105895996     
   8.7300000000000003E-002   -0.77725791931152344     
   8.7599999999999997E-002   -0.78554284572601318     
   8.7900000000000006E-002   -0.75593489408493042     
   8.8200000000000014E-002   -0.69210726022720337     
   8.8499999999999995E-002   -0.60047829151153564     
   8.8800000000000004E-002   -0.48961657285690308     
   8.9100000000000013E-002   -0.37007343769073486     
   8.9399999999999993E-002   -0.25323393940925598     
   8.9700000000000002E-002   -0.15004388988018036     
   9.0000000000000011E-002    -7.0415824651718140E-002
   9.0299999999999991E-002    -2.2325979545712471E-002
   9.0600000000000000E-002    -1.0605229064822197E-002
   9.0900000000000009E-002    -3.6778368055820465E-002
   9.1200000000000017E-002    -9.9016577005386353E-002
   9.1499999999999998E-002   -0.19219510257244110     
   9.1800000000000007E-002   -0.30813258886337280     
   9.2100000000000001E-002   -0.43693381547927856     
   9.2399999999999996E-002   -0.56744331121444702     
   9.2700000000000005E-002   -0.68818324804306030     
   9.3000000000000013E-002   -0.78891408443450928     
   9.3300000000000008E-002   -0.86079561710357666     
   9.3600000000000003E-002   -0.89736425876617432     
   9.3899999999999997E-002   -0.89536082744598389     
   9.4200000000000006E-002   -0.85377770662307739     
   9.4500000000000001E-002   -0.77452015876770020     
   9.4800000000000009E-002   -0.66226011514663696     
   9.5100000000000004E-002   -0.52260577678680420     
   9.5399999999999999E-002   -0.36258289217948914     
   9.5699999999999993E-002   -0.18977047502994537     
   9.6000000000000002E-002    -1.0745213367044926E-002
   9.6300000000000011E-002    0.16830164194107056     
   9.6600000000000005E-002    0.34237283468246460     
   9.6900000000000000E-002    0.50815618038177490     
   9.7200000000000009E-002    0.66322201490402222     
   9.7499999999999989E-002    0.80611860752105713     
   9.7799999999999998E-002    0.93597650527954102     
   9.8100000000000007E-002     1.0518716573715210     
   9.8400000000000015E-002     1.1526809930801392     
   9.8699999999999996E-002     1.2362045049667358     
   9.9000000000000005E-002     1.2994983196258545     
   9.9300000000000013E-002     1.3389639854431152     
   9.9599999999999994E-002     1.3499891757965088     
   9.9900000000000003E-002     1.3280143737792969     
  0.10020000000000001          1.2690358161926270     
  0.10049999999999999          1.1696535348892212     
  0.10080000000000000          1.0286271572113037     
  0.10110000000000001         0.84678685665130615     
  0.10140000000000000         0.62712717056274414     
  0.10170000000000000         0.37574741244316101     
  0.10200000000000001         0.10101676732301712     
  0.10230000000000002        -0.18683663010597229     
  0.10260000000000000        -0.47602236270904541     
  0.10290000000000001        -0.75407159328460693     
  0.10320000000000000         -1.0088450908660889     
  0.10350000000000001         -1.2289909124374390     
  0.10380000000000000         -1.4048594236373901     
  0.10410000000000001         -1.5291565656661987     
  0.10440000000000001         -1.5969811677932739     
  0.10470000000000000         -1.6059985160827637     
  0.10500000000000000         -1.5568096637725830     
  0.10530000000000000         -1.4521163702011108     
  0.10560000000000000         -1.2964981794357300     
  0.10590000000000001         -1.0967189073562622     
  0.10620000000000000        -0.86039161682128906     
  0.10650000000000001        -0.59578877687454224     
  0.10679999999999999        -0.31211999058723450     
  0.10710000000000000         -1.8667584285140038E-002
  0.10740000000000001         0.27535724639892578     
  0.10770000000000000         0.56048536300659180     
  0.10800000000000000         0.82751464843750000     
  0.10830000000000001          1.0676176548004150     
  0.10859999999999999          1.2722772359848022     
  0.10890000000000000          1.4337002038955688     
  0.10920000000000001          1.5449891090393066     
  0.10950000000000001          1.6006910800933838     
  0.10979999999999999          1.5972257852554321     
  0.11009999999999999          1.5332186222076416     
  0.11040000000000001          1.4100434780120850     
  0.11070000000000001          1.2318612337112427     
  0.11100000000000000          1.0059146881103516     
  0.11130000000000000         0.74260544776916504     
  0.11160000000000002         0.45432880520820618     
  0.11190000000000001         0.15554293990135193     
  0.11220000000000001        -0.13815203309059143     
  0.11250000000000000        -0.41210517287254333     
  0.11280000000000000        -0.65252399444580078     
  0.11309999999999999        -0.84788697957992554     
  0.11340000000000001        -0.99076437950134277     
  0.11369999999999998         -1.0775438547134399     
  0.11400000000000000         -1.1087470054626465     
  0.11430000000000000         -1.0895688533782959     
  0.11460000000000002         -1.0285731554031372     
  0.11489999999999999        -0.93693196773529053     
  0.11520000000000001        -0.82766884565353394     
  0.11550000000000001        -0.71347117424011230     
  0.11580000000000000        -0.60594749450683594     
  0.11609999999999999        -0.51441299915313721     
  0.11640000000000002        -0.44440397620201111     
  0.11670000000000001        -0.39832162857055664     
  0.11700000000000001        -0.37506878376007080     
  0.11730000000000000        -0.36995115876197815     
  0.11760000000000000        -0.37664419412612915     
  0.11789999999999999        -0.38796538114547729     
  0.11820000000000001        -0.39669829607009888     
  0.11850000000000001        -0.39737221598625183     
  0.11880000000000000        -0.38668704032897949     
  0.11910000000000000        -0.36402302980422974     
  0.11940000000000002        -0.33160606026649475     
  0.11970000000000001        -0.29381138086318970     
  0.12000000000000001        -0.25639235973358154     
  0.12030000000000000        -0.22557425498962402     
  0.12060000000000000        -0.20649164915084839     
  0.12089999999999999        -0.20227219164371490     
  0.12119999999999999        -0.21368020772933960     
  0.12150000000000001        -0.23807758092880249     
  0.12180000000000001        -0.26967683434486389     
  0.12210000000000000        -0.30079355835914612     
  0.12239999999999999        -0.32203379273414612     
  0.12270000000000002        -0.32363069057464600     
  0.12300000000000001        -0.29743215441703796     
  0.12330000000000001        -0.23733477294445038     
  0.12360000000000000        -0.14050720632076263     
  0.12390000000000000         -8.2339793443679810E-003
  0.12419999999999999         0.15449248254299164     
  0.12450000000000001         0.33917069435119629     
  0.12480000000000001         0.53462189435958862     
  0.12509999999999999         0.72835302352905273     
  0.12540000000000001         0.90750700235366821     
  0.12570000000000003          1.0603398084640503     
  0.12600000000000000          1.1772739887237549     
  0.12630000000000002          1.2513307332992554     
  0.12659999999999999          1.2791815996170044     
  0.12690000000000001          1.2607358694076538     
  0.12719999999999998          1.1987011432647705     
  0.12750000000000000          1.0985666513442993     
  0.12780000000000002         0.96751427650451660     
  0.12809999999999999         0.81362521648406982     
  0.12840000000000001         0.64580935239791870     
  0.12869999999999998         0.47264629602432251     
  0.12900000000000000         0.30215689539909363     
  0.12930000000000003         0.14216567575931549     
  0.12959999999999999         -4.9720052629709244E-004
  0.12990000000000002        -0.11987872421741486     
  0.13019999999999998        -0.21055218577384949     
  0.13050000000000000        -0.26781877875328064     
  0.13080000000000003        -0.28853571414947510     
  0.13109999999999999        -0.27048090100288391     
  0.13140000000000002        -0.21310302615165710     
  0.13169999999999998        -0.11808388680219650     
  0.13200000000000001          1.0904990136623383E-002
  0.13229999999999997         0.16761305928230286     
  0.13260000000000000         0.34317663311958313     
  0.13290000000000002         0.52701395750045776     
  0.13319999999999999         0.70673358440399170     
  0.13350000000000001         0.86901581287384033     
  0.13380000000000003          1.0007615089416504     
  0.13410000000000000          1.0898208618164062     
  0.13440000000000002          1.1258405447006226     
  0.13469999999999999          1.1016837358474731     
  0.13500000000000001          1.0136033296585083     
  0.13529999999999998         0.86181521415710449     
  0.13560000000000000         0.65099346637725830     
  0.13590000000000002         0.38949140906333923     
  0.13619999999999999          8.9538007974624634E-002
  0.13650000000000001        -0.23374715447425842     
  0.13680000000000003        -0.56363445520401001     
  0.13710000000000000        -0.88222491741180420     
  0.13740000000000002         -1.1721839904785156     
  0.13769999999999999         -1.4178831577301025     
  0.13800000000000001         -1.6055846214294434     
  0.13829999999999998         -1.7258967161178589     
  0.13860000000000000         -1.7734104394912720     
  0.13890000000000002         -1.7467577457427979     
  0.13919999999999999         -1.6497014760971069     
  0.13950000000000001         -1.4901081323623657     
  0.13979999999999998         -1.2789969444274902     
  0.14010000000000000         -1.0308233499526978     
  0.14040000000000002        -0.76115351915359497     
  0.14069999999999999        -0.48636007308959961     
  0.14100000000000001        -0.22242479026317596     
  0.14130000000000004          1.6644563525915146E-002
  0.14160000000000000         0.21930050849914551     
  0.14189999999999997         0.37628266215324402     
  0.14219999999999999         0.48227295279502869     
  0.14250000000000002         0.53548741340637207     
  0.14279999999999998         0.53674721717834473     
  0.14310000000000000         0.49028286337852478     
  0.14339999999999997         0.40314179658889771     
  0.14369999999999999         0.28359529376029968     
  0.14400000000000002         0.14182275533676147     
  0.14429999999999998         -1.0748150758445263E-002
  0.14460000000000001        -0.16331349313259125     
  0.14490000000000003        -0.30448752641677856     
  0.14520000000000000        -0.42390272021293640     
  0.14550000000000002        -0.51320666074752808     
  0.14579999999999999        -0.56536495685577393     
  0.14610000000000001        -0.57582390308380127     
  0.14640000000000003        -0.54405480623245239     
  0.14670000000000000        -0.47153207659721375     
  0.14699999999999996        -0.36358016729354858     
  0.14729999999999999        -0.22939302027225494     
  0.14760000000000001         -7.9749614000320435E-002
  0.14789999999999998          7.2013780474662781E-002
  0.14820000000000000         0.21114316582679749     