  -1.4999999999999999E-002     0.0000000000000000     
  -1.4700000000000000E-002     0.0000000000000000     
  -1.4400000000000000E-002     0.0000000000000000     
  -1.4100000000000000E-002     0.0000000000000000     
  -1.3800000000000000E-002     0.0000000000000000     
  -1.3500000000000000E-002     0.0000000000000000     
  -1.3200000000000000E-002     0.0000000000000000     
  -1.2899999999999998E-002     0.0000000000000000     
  -1.2600000000000000E-002     0.0000000000000000     
  -1.2299999999999998E-002     0.0000000000000000     
  -1.2000000000000000E-002     0.0000000000000000     
  -1.1699999999999999E-002     0.0000000000000000     
  -1.1399999999999999E-002     0.0000000000000000     
  -1.1099999999999999E-002     0.0000000000000000     
  -1.0799999999999999E-002     0.0000000000000000     
  -1.0499999999999999E-002     0.0000000000000000     
  -1.0199999999999999E-002     0.0000000000000000     
  -9.8999999999999991E-003     0.0000000000000000     
  -9.5999999999999992E-003     0.0000000000000000     
  -9.2999999999999992E-003     0.0000000000000000     
  -8.9999999999999993E-003     0.0000000000000000     
  -8.6999999999999994E-003     0.0000000000000000     
  -8.3999999999999995E-003     0.0000000000000000     
  -8.0999999999999996E-003     0.0000000000000000     
  -7.7999999999999988E-003     0.0000000000000000     
  -7.4999999999999997E-003     0.0000000000000000     
  -7.1999999999999998E-003     0.0000000000000000     
  -6.8999999999999981E-003     0.0000000000000000     
  -6.5999999999999982E-003     0.0000000000000000     
  -6.3000000000000000E-003     0.0000000000000000     
  -6.0000000000000001E-003     0.0000000000000000     
  -5.6999999999999985E-003     0.0000000000000000     
  -5.3999999999999986E-003     0.0000000000000000     
  -5.1000000000000004E-003     0.0000000000000000     
  -4.7999999999999987E-003     0.0000000000000000     
  -4.5000000000000005E-003     0.0000000000000000     
  -4.1999999999999989E-003     0.0000000000000000     
  -3.8999999999999990E-003     0.0000000000000000     
  -3.5999999999999990E-003     0.0000000000000000     
  -3.2999999999999991E-003     0.0000000000000000     
  -2.9999999999999992E-003     0.0000000000000000     
  -2.6999999999999993E-003     0.0000000000000000     
  -2.3999999999999994E-003     0.0000000000000000     
  -2.0999999999999977E-003     0.0000000000000000     
  -1.7999999999999995E-003     0.0000000000000000     
  -1.4999999999999979E-003     0.0000000000000000     
  -1.1999999999999997E-003     0.0000000000000000     
  -8.9999999999999976E-004     0.0000000000000000     
  -5.9999999999999810E-004     0.0000000000000000     
  -2.9999999999999992E-004     0.0000000000000000     
   0.0000000000000000          0.0000000000000000     
   3.0000000000000165E-004     0.0000000000000000     
   5.9999999999999984E-004     0.0000000000000000     
   9.0000000000000149E-004     0.0000000000000000     
   1.2000000000000031E-003     0.0000000000000000     
   1.5000000000000013E-003     0.0000000000000000     
   1.8000000000000030E-003     0.0000000000000000     
   2.1000000000000012E-003     0.0000000000000000     
   2.3999999999999994E-003     0.0000000000000000     
   2.7000000000000010E-003     0.0000000000000000     
   2.9999999999999992E-003     0.0000000000000000     
   3.3000000000000008E-003     0.0000000000000000     
   3.6000000000000025E-003     0.0000000000000000     
   3.9000000000000007E-003     0.0000000000000000     
   4.2000000000000023E-003     0.0000000000000000     
   4.5000000000000005E-003     0.0000000000000000     
   4.7999999999999987E-003     0.0000000000000000     
   5.1000000000000004E-003     0.0000000000000000     
   5.4000000000000020E-003     0.0000000000000000     
   5.7000000000000037E-003     0.0000000000000000     
   5.9999999999999984E-003     0.0000000000000000     
   6.3000000000000000E-003     0.0000000000000000     
   6.6000000000000017E-003     0.0000000000000000     
   6.9000000000000034E-003     0.0000000000000000     
   7.2000000000000015E-003     0.0000000000000000     
   7.5000000000000032E-003     0.0000000000000000     
   7.8000000000000014E-003     0.0000000000000000     
   8.0999999999999996E-003     0.0000000000000000     
   8.4000000000000012E-003     0.0000000000000000     
   8.7000000000000029E-003     0.0000000000000000     
   9.0000000000000011E-003     0.0000000000000000     
   9.2999999999999992E-003     0.0000000000000000     
   9.6000000000000009E-003     0.0000000000000000     
   9.8999999999999991E-003     0.0000000000000000     
   1.0200000000000001E-002     0.0000000000000000     
   1.0500000000000002E-002     0.0000000000000000     
   1.0800000000000004E-002     0.0000000000000000     
   1.1099999999999999E-002     0.0000000000000000     
   1.1400000000000000E-002     0.0000000000000000     
   1.1700000000000002E-002     0.0000000000000000     
   1.2000000000000004E-002     0.0000000000000000     
   1.2300000000000002E-002     0.0000000000000000     
   1.2600000000000000E-002     0.0000000000000000     
   1.2900000000000002E-002     0.0000000000000000     
   1.3200000000000000E-002     0.0000000000000000     
   1.3500000000000002E-002     0.0000000000000000     
   1.3800000000000003E-002     0.0000000000000000     
   1.4100000000000001E-002     0.0000000000000000     
   1.4400000000000000E-002     0.0000000000000000     
   1.4700000000000001E-002     0.0000000000000000     
   1.4999999999999999E-002     0.0000000000000000     
   1.5300000000000001E-002     0.0000000000000000     
   1.5600000000000003E-002     0.0000000000000000     
   1.5899999999999997E-002     0.0000000000000000     
   1.6199999999999999E-002     0.0000000000000000     
   1.6500000000000001E-002     0.0000000000000000     
   1.6800000000000002E-002     0.0000000000000000     
   1.7100000000000004E-002     0.0000000000000000     
   1.7400000000000006E-002     0.0000000000000000     
   1.7700000000000000E-002     0.0000000000000000     
   1.8000000000000002E-002     0.0000000000000000     
   1.8300000000000004E-002     0.0000000000000000     
   1.8600000000000005E-002     0.0000000000000000     
   1.8900000000000000E-002     0.0000000000000000     
   1.9200000000000002E-002     0.0000000000000000     
   1.9500000000000003E-002     0.0000000000000000     
   1.9799999999999998E-002     0.0000000000000000     
   2.0100000000000000E-002     0.0000000000000000     
   2.0400000000000001E-002     0.0000000000000000     
   2.0700000000000003E-002     0.0000000000000000     
   2.0999999999999998E-002     0.0000000000000000     
   2.1299999999999999E-002     0.0000000000000000     
   2.1600000000000001E-002     0.0000000000000000     
   2.1900000000000003E-002     0.0000000000000000     
   2.2200000000000004E-002     0.0000000000000000     
   2.2500000000000006E-002     0.0000000000000000     
   2.2800000000000001E-002     0.0000000000000000     
   2.3100000000000002E-002     0.0000000000000000     
   2.3400000000000004E-002     0.0000000000000000     
   2.3699999999999999E-002     0.0000000000000000     
   2.4000000000000000E-002     0.0000000000000000     
   2.4300000000000002E-002     0.0000000000000000     
   2.4599999999999997E-002     0.0000000000000000     
   2.4900000000000005E-002     0.0000000000000000     
   2.5200000000000000E-002     0.0000000000000000     
   2.5499999999999995E-002     0.0000000000000000     
   2.5800000000000003E-002     0.0000000000000000     
   2.6099999999999998E-002     0.0000000000000000     
   2.6400000000000007E-002     0.0000000000000000     
   2.6700000000000002E-002     0.0000000000000000     
   2.6999999999999996E-002     0.0000000000000000     
   2.7300000000000005E-002     0.0000000000000000     
   2.7600000000000000E-002     0.0000000000000000     
   2.7900000000000008E-002     0.0000000000000000     
   2.8200000000000003E-002     0.0000000000000000     
   2.8499999999999998E-002     0.0000000000000000     
   2.8800000000000006E-002     0.0000000000000000     
   2.9100000000000001E-002     0.0000000000000000     
   2.9400000000000003E-002     0.0000000000000000     
   2.9700000000000004E-002     0.0000000000000000     
   3.0000000000000006E-002     0.0000000000000000     
   3.0300000000000001E-002     0.0000000000000000     
   3.0600000000000002E-002     0.0000000000000000     
   3.0900000000000004E-002     0.0000000000000000     
   3.1199999999999999E-002     0.0000000000000000     
   3.1500000000000007E-002     0.0000000000000000     
   3.1800000000000002E-002     0.0000000000000000     
   3.2099999999999997E-002     0.0000000000000000     
   3.2400000000000005E-002     0.0000000000000000     
   3.2700000000000000E-002     0.0000000000000000     
   3.3000000000000002E-002     0.0000000000000000     
   3.3300000000000003E-002     0.0000000000000000     
   3.3599999999999998E-002     0.0000000000000000     
   3.3900000000000000E-002    -1.6963842088331931E-036
   3.4200000000000001E-002     5.7059513871484525E-036
   3.4500000000000003E-002    -1.3878454250954478E-035
   3.4799999999999998E-002    -8.6036738903524192E-035
   3.5099999999999999E-002     2.7556779785120871E-033
   3.5400000000000001E-002     3.4856125832567101E-034
   3.5699999999999996E-002    -1.8142641524044604E-032
   3.6000000000000004E-002     1.0106707647296493E-031
   3.6299999999999999E-002    -5.5030457703236773E-031
   3.6600000000000008E-002     2.5649220907258667E-030
   3.6900000000000002E-002    -1.0326138212199518E-029
   3.7199999999999997E-002     3.5298720873158764E-029
   3.7500000000000006E-002    -9.3161522622667936E-029
   3.7800000000000000E-002     1.1501526035021757E-028
   3.8100000000000009E-002     6.2872016738295341E-028
   3.8400000000000004E-002    -6.2057048889713188E-027
   3.8699999999999998E-002     3.4113784482265248E-026
   3.9000000000000007E-002    -1.4681081085473667E-025
   3.9300000000000002E-002     5.3070824474731190E-025
   3.9600000000000003E-002    -1.6327794698534058E-024
   3.9900000000000005E-002     4.1870906691831194E-024
   4.0200000000000000E-002    -8.2772571543853539E-024
   4.0500000000000001E-002     9.0218661182670879E-024
   4.0800000000000003E-002     1.4344282246800667E-023
   4.1100000000000005E-002    -1.0812913903509512E-022
   4.1399999999999999E-002     2.8454927243757664E-022
   4.1700000000000008E-002    -1.4525784310507003E-022
   4.2000000000000003E-002    -2.3519081357774969E-021
   4.2299999999999997E-002     1.3312017930620477E-020
   4.2600000000000006E-002    -4.3499576951308284E-020
   4.2900000000000001E-002     9.1153843012574611E-020
   4.3200000000000002E-002    -6.0138066172393817E-020
   4.3500000000000004E-002    -4.7421442506931352E-019
   4.3799999999999999E-002     2.7127392324579605E-018
   4.4100000000000000E-002    -9.0390773550385388E-018
   4.4400000000000002E-002     2.2175282854448180E-017
   4.4700000000000004E-002    -4.0184857674299712E-017
   4.4999999999999998E-002     4.3064409044217260E-017
   4.5300000000000000E-002     3.1854844503425303E-017
   4.5600000000000002E-002    -3.2635877702220733E-016
   4.5899999999999996E-002     1.1436279923616164E-015
   4.6200000000000005E-002    -3.3307804587080336E-015
   4.6500000000000000E-002     1.0005144702638323E-014
   4.6799999999999994E-002    -3.2331725323278895E-014
   4.7100000000000003E-002     1.0200312952146975E-013
   4.7399999999999998E-002    -2.7492507511002462E-013
   4.7700000000000006E-002     5.2074761603543296E-013
   4.8000000000000001E-002    -1.3787056349010007E-013
   4.8300000000000010E-002    -4.0095578766885520E-012
   4.8600000000000004E-002     2.0376086234952240E-011
   4.8899999999999999E-002    -6.0390588363379294E-011
   4.9200000000000008E-002     1.0468816091790956E-010
   4.9500000000000002E-002     1.5340662767870938E-011
   4.9800000000000011E-002    -8.1233619830811676E-010
   5.0100000000000006E-002     2.9431550530034656E-009
   5.0400000000000000E-002    -4.9791073486460391E-009
   5.0700000000000009E-002    -2.6192623625576061E-009
   5.1000000000000004E-002     3.9714262101142594E-008
   5.1299999999999998E-002    -9.7246264374462044E-008
   5.1600000000000007E-002     1.3885854244222173E-008
   5.1900000000000002E-002     5.1693882596737240E-007
   5.2200000000000010E-002    -1.1005588476109551E-006
   5.2500000000000005E-002    -1.2447339940990787E-006
   5.2800000000000000E-002     8.3136774264858104E-006
   5.3099999999999994E-002     2.1064739485154860E-005
   5.3400000000000003E-002     4.0754130168352276E-005
   5.3699999999999998E-002     8.4998784586787224E-005
   5.4000000000000006E-002     1.2308111763559282E-004
   5.4300000000000001E-002     1.3766120537184179E-004
   5.4599999999999996E-002     1.9168913422618061E-004
   5.4900000000000004E-002     3.1061808113008738E-004
   5.5199999999999999E-002     4.7224358422681689E-004
   5.5499999999999994E-002     6.9900747621431947E-004
   5.5800000000000002E-002     1.0213240748271346E-003
   5.6099999999999997E-002     1.4628589851781726E-003
   5.6400000000000006E-002     2.0745992660522461E-003
   5.6700000000000000E-002     2.8988395351916552E-003
   5.6999999999999995E-002     3.9547421038150787E-003
   5.7300000000000004E-002     5.2911811508238316E-003
   5.7599999999999998E-002     6.9417888298630714E-003
   5.7900000000000007E-002     8.8950460776686668E-003
   5.8200000000000002E-002     1.1136950924992561E-002
   5.8499999999999996E-002     1.3562939129769802E-002
   5.8800000000000005E-002     1.5999183058738708E-002
   5.9100000000000000E-002     1.8201619386672974E-002
   5.9400000000000008E-002     1.9735140725970268E-002
   5.9700000000000003E-002     2.0050544291734695E-002
   6.0000000000000012E-002     1.8465908244252205E-002
   6.0300000000000006E-002     1.4099964872002602E-002
   6.0600000000000001E-002     5.9422925114631653E-003
   6.0900000000000010E-002    -7.0763779804110527E-003
   6.1200000000000004E-002    -2.6023019105195999E-002
   6.1500000000000013E-002    -5.1854033023118973E-002
   6.1800000000000008E-002    -8.5204578936100006E-002
   6.2100000000000002E-002   -0.12624755501747131     
   6.2399999999999997E-002   -0.17451658844947815     
   6.2700000000000006E-002   -0.22866173088550568     
   6.3000000000000000E-002   -0.28627356886863708     
   6.3300000000000009E-002   -0.34380355477333069     
   6.3600000000000004E-002   -0.39658793807029724     
   6.3899999999999998E-002   -0.43889793753623962     
   6.4199999999999993E-002   -0.46423146128654480     
   6.4500000000000002E-002   -0.46578273177146912     
   6.4800000000000010E-002   -0.43690121173858643     
   6.5100000000000005E-002   -0.37179067730903625     
   6.5400000000000000E-002   -0.26634484529495239     
   6.5700000000000008E-002   -0.11875477433204651     
   6.5999999999999989E-002     6.9766134023666382E-002
   6.6299999999999998E-002    0.29451909661293030     
   6.6600000000000006E-002    0.54719740152359009     
   6.6900000000000001E-002    0.81592309474945068     
   6.7199999999999996E-002     1.0857663154602051     
   6.7500000000000004E-002     1.3397002220153809     
   6.7800000000000013E-002     1.5596458911895752     
   6.8099999999999994E-002     1.7278904914855957     
   6.8400000000000002E-002     1.8286975622177124     
   6.8700000000000011E-002     1.8496483564376831     
   6.8999999999999992E-002     1.7829101085662842     
   6.9300000000000000E-002     1.6261941194534302     
   6.9600000000000009E-002     1.3831729888916016     
   6.9900000000000004E-002     1.0634490251541138     
   7.0199999999999999E-002    0.68208229541778564     
   7.0500000000000007E-002    0.25814360380172729     
   7.0800000000000016E-002   -0.18627752363681793     
   7.1099999999999997E-002   -0.62774372100830078     
   7.1400000000000005E-002    -1.0436670780181885     
   7.1700000000000000E-002    -1.4136211872100830     
   7.1999999999999995E-002    -1.7205805778503418     
   7.2300000000000003E-002    -1.9521987438201904     
   7.2600000000000012E-002    -2.1012797355651855     
   7.2900000000000006E-002    -2.1659963130950928     
   7.3200000000000001E-002    -2.1495592594146729     
   7.3499999999999996E-002    -2.0594928264617920     
   7.3800000000000004E-002    -1.9066877365112305     
   7.4099999999999999E-002    -1.7043671607971191     
   7.4400000000000008E-002    -1.4671714305877686     
   7.4700000000000003E-002    -1.2099459171295166     
   7.5000000000000011E-002   -0.94669055938720703     
   7.5299999999999992E-002   -0.68989968299865723     
   7.5600000000000001E-002   -0.45017069578170776     
   7.5900000000000009E-002   -0.23587377369403839     
   7.6200000000000004E-002    -5.2760865539312363E-002
   7.6499999999999999E-002     9.5850214362144470E-002
   7.6800000000000007E-002    0.20915320515632629     
   7.7099999999999988E-002    0.28837484121322632     
   7.7399999999999997E-002    0.33656245470046997     
   7.7700000000000005E-002    0.35826694965362549     
   7.8000000000000014E-002    0.35925370454788208     
   7.8299999999999995E-002    0.34606540203094482     
   7.8600000000000003E-002    0.32536679506301880     
   7.8900000000000012E-002    0.30353528261184692     
   7.9199999999999993E-002    0.28646478056907654     
   7.9500000000000001E-002    0.27893385291099548     
   7.9800000000000010E-002    0.28460869193077087     
   8.0100000000000018E-002    0.30540296435356140     
   8.0399999999999999E-002    0.34144878387451172     
   8.0700000000000008E-002    0.39161765575408936     
   8.1000000000000003E-002    0.45316538214683533     
   8.1299999999999997E-002    0.52234083414077759     
   8.1600000000000006E-002    0.59450519084930420     
   8.1900000000000014E-002    0.66478055715560913     
   8.2199999999999995E-002    0.72863519191741943     
   8.2500000000000004E-002    0.78189456462860107     
   8.2799999999999999E-002    0.82132279872894287     
   8.3100000000000007E-002    0.84483289718627930     
   8.3400000000000002E-002    0.85162007808685303     
   8.3700000000000011E-002    0.84193891286849976     
   8.4000000000000005E-002    0.81685167551040649     
   8.4300000000000000E-002    0.77815395593643188     
   8.4599999999999995E-002    0.72804021835327148     
   8.4900000000000003E-002    0.66886323690414429     
   8.5199999999999998E-002    0.60240626335144043     
   8.5500000000000007E-002    0.53014761209487915     
   8.5800000000000001E-002    0.45304945111274719     
   8.6100000000000010E-002    0.37155607342720032     
   8.6399999999999991E-002    0.28589889407157898     
   8.6699999999999999E-002    0.19610530138015747     
   8.7000000000000008E-002    0.10239314287900925     
   8.7300000000000003E-002     5.4747136309742928E-003
   8.7599999999999997E-002    -9.3186542391777039E-002
   8.7900000000000006E-002   -0.19122762978076935     
   8.8200000000000014E-002   -0.28549009561538696     
   8.8499999999999995E-002   -0.37236911058425903     
   8.8800000000000004E-002   -0.44762456417083740     
   8.9100000000000013E-002   -0.50719064474105835     
   8.9399999999999993E-002   -0.54736751317977905     
   8.9700000000000002E-002   -0.56564307212829590     
   9.0000000000000011E-002   -0.56092947721481323     
   9.0299999999999991E-002   -0.53381884098052979     
   9.0600000000000000E-002   -0.48676818609237671     
   9.0900000000000009E-002   -0.42378476262092590     
   9.1200000000000017E-002   -0.35052797198295593     
   9.1499999999999998E-002   -0.27357608079910278     
   9.1800000000000007E-002   -0.19989694654941559     
   9.2100000000000001E-002   -0.13590750098228455     
   9.2399999999999996E-002    -8.7205074727535248E-002
   9.2700000000000005E-002    -5.7937119156122208E-002
   9.3000000000000013E-002    -5.0299223512411118E-002
   9.3300000000000008E-002    -6.4239919185638428E-002
   9.3600000000000003E-002    -9.7828574478626251E-002
   9.3899999999999997E-002   -0.14752990007400513     
   9.4200000000000006E-002   -0.20826117694377899     
   9.4500000000000001E-002   -0.27427473664283752     
   9.4800000000000009E-002   -0.33961099386215210     
   9.5100000000000004E-002   -0.39877539873123169     
   9.5399999999999999E-002   -0.44733351469039917     
   9.5699999999999993E-002   -0.48191049695014954     
   9.6000000000000002E-002   -0.50024920701980591     
   9.6300000000000011E-002   -0.50177168846130371     
   9.6600000000000005E-002   -0.48741769790649414     
   9.6900000000000000E-002   -0.45857304334640503     
   9.7200000000000009E-002   -0.41744139790534973     
   9.7499999999999989E-002   -0.36646696925163269     
   9.7799999999999998E-002   -0.30797949433326721     
   9.8100000000000007E-002   -0.24415570497512817     
   9.8400000000000015E-002   -0.17664319276809692     
   9.8699999999999996E-002   -0.10612787306308746     
   9.9000000000000005E-002    -3.2891437411308289E-002
   9.9300000000000013E-002     4.3194476515054703E-002
   9.9599999999999994E-002    0.12264765053987503     
   9.9900000000000003E-002    0.20602750778198242     
  0.10020000000000001         0.29394045472145081     
  0.10049999999999999         0.38635241985321045     
  0.10080000000000000         0.48260352015495300     
  0.10110000000000001         0.58111661672592163     
  0.10140000000000000         0.67960917949676514     
  0.10170000000000000         0.77483791112899780     
  0.10200000000000001         0.86257880926132202     
  0.10230000000000002         0.93814700841903687     
  0.10260000000000000         0.99679386615753174     
  0.10290000000000001          1.0336582660675049     
  0.10320000000000000          1.0443042516708374     
  0.10350000000000001          1.0253349542617798     
  0.10380000000000000         0.97455078363418579     
  0.10410000000000001         0.89138084650039673     
  0.10440000000000001         0.77652674913406372     
  0.10470000000000000         0.63213509321212769     
  0.10500000000000000         0.46226188540458679     
  0.10530000000000000         0.27192336320877075     
  0.10560000000000000          6.7003719508647919E-002
  0.10590000000000001        -0.14617075026035309     
  0.10620000000000000        -0.36095663905143738     
  0.10650000000000001        -0.57064628601074219     
  0.10679999999999999        -0.76862275600433350     
  0.10710000000000000        -0.94901621341705322     
  0.10740000000000001         -1.1060894727706909     
  0.10770000000000000         -1.2344992160797119     
  0.10800000000000000         -1.3291403055191040     
  0.10830000000000001         -1.3853570222854614     
  0.10859999999999999         -1.3992404937744141     
  0.10890000000000000         -1.3672893047332764     
  0.10920000000000001         -1.2871663570404053     
  0.10950000000000001         -1.1578056812286377     
  0.10979999999999999        -0.98011279106140137     
  0.11009999999999999        -0.75697153806686401     
  0.11040000000000001        -0.49395495653152466     
  0.11070000000000001        -0.19932436943054199     
  0.11100000000000000         0.11608986556529999     
  0.11130000000000000         0.43944483995437622     
  0.11160000000000002         0.75602144002914429     
  0.11190000000000001          1.0502259731292725     
  0.11220000000000001          1.3064094781875610     
  0.11250000000000000          1.5105099678039551     
  0.11280000000000000          1.6510601043701172     
  0.11309999999999999          1.7193052768707275     
  0.11340000000000001          1.7108389139175415     
  0.11369999999999998          1.6258362531661987     
  0.11400000000000000          1.4692605733871460     
  0.11430000000000000          1.2504429817199707     
  0.11460000000000002         0.98219990730285645     
  0.11489999999999999         0.68014049530029297     
  0.11520000000000001         0.36162170767784119     
  0.11550000000000001          4.4348306953907013E-002
  0.11580000000000000        -0.25544467568397522     
  0.11609999999999999        -0.52361518144607544     
  0.11640000000000002        -0.74906444549560547     
  0.11670000000000001        -0.92453700304031372     
  0.11700000000000001         -1.0470829010009766     
  0.11730000000000000         -1.1177095174789429     
  0.11760000000000000         -1.1410903930664062     
  0.11789999999999999         -1.1243146657943726     
  0.11820000000000001         -1.0766351222991943     
  0.11850000000000001         -1.0081335306167603     
  0.11880000000000000        -0.92819446325302124     
  0.11910000000000000        -0.84554266929626465     
  0.11940000000000002        -0.76643574237823486     
  0.11970000000000001        -0.69494247436523438     
  0.12000000000000001        -0.63280695676803589     
  0.12030000000000000        -0.57917970418930054     
  0.12060000000000000        -0.53153240680694580     
  0.12089999999999999        -0.48626840114593506     
  0.12119999999999999        -0.43930482864379883     
  0.12150000000000001        -0.38704714179039001     
  0.12180000000000001        -0.32709017395973206     
  0.12210000000000000        -0.25870078802108765     
  0.12239999999999999        -0.18326087296009064     
  0.12270000000000002        -0.10339996963739395     
  0.12300000000000001         -2.3902308195829391E-002
  0.12330000000000001          4.9709241837263107E-002
  0.12360000000000000         0.11181242763996124     
  0.12390000000000000         0.15715144574642181     
  0.12419999999999999         0.18195794522762299     
  0.12450000000000001         0.18464289605617523     
  0.12480000000000001         0.16549670696258545     
  0.12509999999999999         0.12743970751762390     
  0.12540000000000001          7.5735591351985931E-002
  0.12570000000000003          1.7176421359181404E-002
  0.12600000000000000         -4.0263205766677856E-002
  0.12630000000000002         -8.8635668158531189E-002
  0.12659999999999999        -0.12057374417781830     
  0.12690000000000001        -0.13033734261989594     
  0.12719999999999998        -0.11419700831174850     
  0.12750000000000000         -7.0834487676620483E-002
  0.12780000000000002         -1.3970891013741493E-003
  0.12809999999999999          9.0487964451313019E-002
  0.12840000000000001         0.19924212992191315     
  0.12869999999999998         0.31859475374221802     
  0.12900000000000000         0.44136825203895569     
  0.12930000000000003         0.56051105260848999     
  0.12959999999999999         0.66972392797470093     
  0.12990000000000002         0.76354241371154785     
  0.13019999999999998         0.83827292919158936     
  0.13050000000000000         0.89121729135513306     
  0.13080000000000003         0.92094939947128296     
  0.13109999999999999         0.92674607038497925     
  0.13140000000000002         0.90864247083663940     
  0.13169999999999998         0.86764711141586304     
  0.13200000000000001         0.80523973703384399     
  0.13229999999999997         0.72307115793228149     
  0.13260000000000000         0.62349021434783936     
  0.13290000000000002         0.50991123914718628     
  0.13319999999999999         0.38702568411827087     
  0.13350000000000001         0.26057299971580505     
  0.13380000000000003         0.13716502487659454     
  0.13410000000000000          2.4005673825740814E-002
  0.13440000000000002         -7.1188218891620636E-002
  0.13469999999999999        -0.14071863889694214     
  0.13500000000000001        -0.17830522358417511     
  0.13529999999999998        -0.17991787195205688     
  0.13560000000000000        -0.14400960505008698     
  0.13590000000000002         -7.1929648518562317E-002
  0.13619999999999999          3.1865231692790985E-002
  0.13650000000000001         0.15964850783348083     
  0.13680000000000003         0.30109444260597229     
  0.13710000000000000         0.44417718052864075     
  0.13740000000000002         0.57613706588745117     
  0.13769999999999999         0.68497717380523682     
  0.13800000000000001         0.75979280471801758     
  0.13829999999999998         0.79227197170257568     
  0.13860000000000000         0.77708905935287476     
  0.13890000000000002         0.71244096755981445     
  0.13919999999999999         0.60021823644638062     
  0.13950000000000001         0.44539630413055420     
  0.13979999999999998         0.25587895512580872     
  0.14010000000000000          4.1170183569192886E-002
  0.14040000000000002        -0.18789069354534149     
  0.14069999999999999        -0.41974690556526184     
  0.14100000000000001        -0.64343243837356567     
  0.14130000000000004        -0.84910356998443604     
  0.14160000000000000         -1.0284638404846191     
  0.14189999999999997         -1.1750464439392090     
  0.14219999999999999         -1.2841635942459106     
  0.14250000000000002         -1.3529940843582153     
  0.14279999999999998         -1.3809691667556763     
  0.14310000000000000         -1.3690155744552612     
  0.14339999999999997         -1.3194844722747803     
  0.14369999999999999         -1.2358311414718628     
  0.14400000000000002         -1.1225447654724121     
  0.14429999999999998        -0.98503798246383667     
  0.14460000000000001        -0.82924264669418335     
  0.14490000000000003        -0.66148883104324341     
  0.14520000000000000        -0.48856103420257568     
  0.14550000000000002        -0.31747189164161682     
  0.14579999999999999        -0.15514464676380157     
  0.14610000000000001         -8.1734424456954002E-003
  0.14640000000000003         0.11706765741109848     
  0.14670000000000000         0.21503639221191406     
  0.14699999999999996         0.28163650631904602     
  0.14729999999999999         0.31417664885520935     
  0.14760000000000001         0.31186285614967346     
  0.14789999999999998         0.27601635456085205     
  0.14820000000000000         0.21001799404621124     