  -1.4999999999999999E-002     0.0000000000000000     
  -1.4700000000000000E-002     0.0000000000000000     
  -1.4400000000000000E-002     0.0000000000000000     
  -1.4100000000000000E-002     0.0000000000000000     
  -1.3800000000000000E-002     0.0000000000000000     
  -1.3500000000000000E-002     0.0000000000000000     
  -1.3200000000000000E-002     0.0000000000000000     
  -1.2899999999999998E-002     0.0000000000000000     
  -1.2600000000000000E-002     0.0000000000000000     
  -1.2299999999999998E-002     0.0000000000000000     
  -1.2000000000000000E-002     0.0000000000000000     
  -1.1699999999999999E-002     0.0000000000000000     
  -1.1399999999999999E-002     0.0000000000000000     
  -1.1099999999999999E-002     0.0000000000000000     
  -1.0799999999999999E-002     0.0000000000000000     
  -1.0499999999999999E-002     0.0000000000000000     
  -1.0199999999999999E-002     0.0000000000000000     
  -9.8999999999999991E-003     0.0000000000000000     
  -9.5999999999999992E-003     0.0000000000000000     
  -9.2999999999999992E-003     0.0000000000000000     
  -8.9999999999999993E-003     0.0000000000000000     
  -8.6999999999999994E-003     0.0000000000000000     
  -8.3999999999999995E-003     0.0000000000000000     
  -8.0999999999999996E-003     0.0000000000000000     
  -7.7999999999999988E-003     0.0000000000000000     
  -7.4999999999999997E-003     0.0000000000000000     
  -7.1999999999999998E-003     0.0000000000000000     
  -6.8999999999999981E-003     0.0000000000000000     
  -6.5999999999999982E-003     0.0000000000000000     
  -6.3000000000000000E-003     0.0000000000000000     
  -6.0000000000000001E-003     0.0000000000000000     
  -5.6999999999999985E-003     0.0000000000000000     
  -5.3999999999999986E-003     0.0000000000000000     
  -5.1000000000000004E-003     4.5362364452137429E-038
  -4.7999999999999987E-003     7.0335732552262410E-037
  -4.5000000000000005E-003     4.1253877025625919E-036
  -4.1999999999999989E-003    -3.4606507232361455E-036
  -3.8999999999999990E-003    -1.7104450020618177E-035
  -3.5999999999999990E-003     9.1893275362754176E-035
  -3.2999999999999991E-003    -1.2182532698364103E-034
  -2.9999999999999992E-003     1.5729547054761901E-035
  -2.6999999999999993E-003    -4.0245534703385238E-034
  -2.3999999999999994E-003     1.4606955496850611E-033
  -2.0999999999999977E-003     1.4148843916330657E-033
  -1.7999999999999995E-003    -9.3990189168570799E-033
  -1.4999999999999979E-003     2.1382808228879918E-032
  -1.1999999999999997E-003    -6.6780566030627079E-032
  -8.9999999999999976E-004     1.1182635795443912E-031
  -5.9999999999999810E-004     1.0999419742379132E-031
  -2.9999999999999992E-004    -6.8450938344535073E-031
   0.0000000000000000          1.1420070637965402E-030
   3.0000000000000165E-004    -1.4378838754355076E-030
   5.9999999999999984E-004     5.9051484387580864E-031
   9.0000000000000149E-004     5.6184883406759733E-030
   1.2000000000000031E-003    -1.3758566134979046E-029
   1.5000000000000013E-003     8.9196643120470408E-030
   1.8000000000000030E-003     1.0207701760996801E-029
   2.1000000000000012E-003    -6.6397347141637882E-029
   2.3999999999999994E-003     2.0401378387070568E-028
   2.7000000000000010E-003    -1.4204307204113246E-028
   2.9999999999999992E-003    -7.2349481569811069E-028
   3.3000000000000008E-003     2.0328409244554386E-027
   3.6000000000000025E-003    -1.4915016961441892E-027
   3.9000000000000007E-003    -4.2858039845633164E-027
   4.2000000000000023E-003     1.4828858488581021E-026
   4.5000000000000005E-003    -1.1803642183346556E-026
   4.7999999999999987E-003    -3.5016489039484380E-026
   5.1000000000000004E-003     9.3163334244472140E-026
   5.4000000000000020E-003    -2.2319532244239433E-026
   5.7000000000000037E-003    -2.4319040138436414E-025
   5.9999999999999984E-003     3.9617712892054255E-025
   6.3000000000000000E-003     1.6769118125553042E-025
   6.6000000000000017E-003    -1.3803506762285001E-024
   6.9000000000000034E-003     1.1710495495984162E-024
   7.2000000000000015E-003     2.7609214221538041E-024
   7.5000000000000032E-003    -6.4197649737941681E-024
   7.8000000000000014E-003    -9.0295832322129484E-025
   8.0999999999999996E-003     1.8942928129999639E-023
   8.4000000000000012E-003    -1.8922124343500021E-023
   8.7000000000000029E-003    -3.1756112735262639E-023
   9.0000000000000011E-003     9.2554598390896384E-023
   9.2999999999999992E-003    -1.5994116777305735E-023
   9.6000000000000009E-003    -2.5941439557949690E-022
   9.8999999999999991E-003     3.7174464956541314E-022
   1.0200000000000001E-002     2.9447394954727441E-022
   1.0500000000000002E-002    -1.5128573621809148E-021
   1.0800000000000004E-002     1.2967837259865399E-021
   1.1099999999999999E-002     2.5556724522455849E-021
   1.1400000000000000E-002    -7.6836100971619549E-021
   1.1700000000000002E-002     4.3389310412200280E-021
   1.2000000000000004E-002     1.5027340350150915E-020
   1.2300000000000002E-002    -3.4793696784834210E-020
   1.2600000000000000E-002     1.2920417786656874E-020
   1.2900000000000002E-002     7.1047097941880820E-020
   1.3200000000000000E-002    -1.4050993975638274E-019
   1.3500000000000002E-002     3.3600208827880865E-020
   1.3800000000000003E-002     2.9118510021374709E-019
   1.4100000000000001E-002    -5.0445472115473635E-019
   1.4400000000000000E-002     6.1526896098606255E-020
   1.4700000000000001E-002     1.0384802893923042E-018
   1.4999999999999999E-002    -1.6124165625327370E-018
   1.5300000000000001E-002     6.0465499752169482E-020
   1.5600000000000003E-002     3.2820483405419710E-018
   1.5899999999999997E-002    -4.6831762935155685E-018
   1.6199999999999999E-002    -8.0612733565031093E-020
   1.6500000000000001E-002     9.2864649381104053E-018
   1.6800000000000002E-002    -1.2676035245729743E-017
   1.7100000000000004E-002    -2.1618098658034094E-019
   1.7400000000000006E-002     2.4465642113057294E-017
   1.7700000000000000E-002    -3.3751932284448741E-017
   1.8000000000000002E-002     5.6145223599772689E-019
   1.8300000000000004E-002     6.4921121443100304E-017
   1.8600000000000005E-002    -9.5727010422569343E-017
   1.8900000000000000E-002     1.0372236290079262E-017
   1.9200000000000002E-002     1.8745108404088568E-016
   1.9500000000000003E-002    -3.4049610183868077E-016
   1.9799999999999998E-002     2.0801345409116141E-016
   2.0100000000000000E-002     4.2093870994634437E-016
   2.0400000000000001E-002    -1.7707464503615962E-015
   2.0700000000000003E-002     3.5047909526345238E-015
   2.0999999999999998E-002    -1.6291608696357574E-015
   2.1299999999999999E-002    -1.3377969134027312E-014
   2.1600000000000001E-002     3.8837294644085627E-014
   2.1900000000000003E-002    -2.0479138444975329E-014
   2.2200000000000004E-002    -1.0977077652124966E-013
   2.2500000000000006E-002     2.1153659836091433E-013
   2.2800000000000001E-002     6.3149565558402914E-014
   2.3100000000000002E-002    -2.8187498707922108E-013
   2.3400000000000004E-002    -9.6131823986149198E-013
   2.3699999999999999E-002     6.0376496434941902E-013
   2.4000000000000000E-002     1.1674119669941879E-011
   2.4300000000000002E-002    -2.1007989063241896E-011
   2.4599999999999997E-002    -5.0712553157519738E-011
   2.4900000000000005E-002     1.8360845675680195E-010
   2.5200000000000000E-002     7.0229029792035726E-011
   2.5499999999999995E-002    -9.6249108962227971E-010
   2.5800000000000003E-002     4.3355211114321831E-010
   2.6099999999999998E-002     4.0565286099507576E-009
   2.6400000000000007E-002    -4.0819208745657672E-009
   2.6700000000000002E-002    -1.6472386029212222E-008
   2.6999999999999996E-002     2.2148235056993803E-008
   2.7300000000000005E-002     6.6538510641974166E-008
   2.7600000000000000E-002    -1.0806843264174405E-007
   2.7900000000000008E-002    -2.7918491252536045E-007
   2.8200000000000003E-002     7.6289867749883560E-007
   2.8499999999999998E-002     3.6962305054601374E-006
   2.8800000000000006E-002     7.1889439402200283E-006
   2.9100000000000001E-002     1.0851071592559770E-005
   2.9400000000000003E-002     1.7659589030206610E-005
   2.9700000000000004E-002     2.8848740211764542E-005
   3.0000000000000006E-002     4.1641729194134142E-005
   3.0300000000000001E-002     5.7863233780855363E-005
   3.0600000000000002E-002     8.5752149139108318E-005
   3.0900000000000004E-002     1.2957269411642070E-004
   3.1199999999999999E-002     1.9026734114635166E-004
   3.1500000000000007E-002     2.7549031182432827E-004
   3.1800000000000002E-002     3.9677387385335210E-004
   3.2099999999999997E-002     5.6338158272946359E-004
   3.2400000000000005E-002     7.8446099934440308E-004
   3.2700000000000000E-002     1.0685311323548885E-003
   3.3000000000000002E-002     1.4247999334345493E-003
   3.3300000000000003E-002     1.8644654910314404E-003
   3.3599999999999998E-002     2.3862099114037583E-003
   3.3900000000000000E-002     2.9720812263717700E-003
   3.4200000000000001E-002     3.6043469606869133E-003
   3.4500000000000003E-002     4.2526896818663729E-003
   3.4799999999999998E-002     4.8405538566620998E-003
   3.5099999999999999E-002     5.2446587679605694E-003
   3.5400000000000001E-002     5.3068109273390757E-003
   3.5699999999999996E-002     4.8246547420692718E-003
   3.6000000000000004E-002     3.5432151740739104E-003
   3.6299999999999999E-002     1.1509616905531067E-003
   3.6600000000000008E-002    -2.7190452649899499E-003
   3.6900000000000002E-002    -8.4801716761360724E-003
   3.7199999999999997E-002    -1.6579230276521972E-002
   3.7500000000000006E-002    -2.7459956028498822E-002
   3.7800000000000000E-002    -4.1522699518224515E-002
   3.8100000000000009E-002    -5.9111151949618135E-002
   3.8400000000000004E-002    -8.0486198699001754E-002
   3.8699999999999998E-002   -0.10577283426157447     
   3.9000000000000007E-002   -0.13491422514496065     
   3.9300000000000002E-002   -0.16766456001377694     
   3.9600000000000003E-002   -0.20361392975196146     
   3.9900000000000005E-002   -0.24218743495780704     
   4.0200000000000000E-002   -0.28261825669570761     
   4.0500000000000001E-002   -0.32400319372498565     
   4.0800000000000003E-002   -0.36536958694537525     
   4.1100000000000005E-002   -0.40570695029891546     
   4.1399999999999999E-002   -0.44398234613357523     
   4.1700000000000008E-002   -0.47912769359898277     
   4.2000000000000003E-002   -0.51004563744219311     
   4.2299999999999997E-002   -0.53554681394896519     
   4.2600000000000006E-002   -0.55434887622615747     
   4.2900000000000001E-002   -0.56491199022513428     
   4.3200000000000002E-002   -0.56541555866131077     
   4.3500000000000004E-002   -0.55370380094636218     
   4.3799999999999999E-002   -0.52731091507228101     
   4.4100000000000000E-002   -0.48352482537863573     
   4.4400000000000002E-002   -0.41957434378915970     
   4.4700000000000004E-002   -0.33288470202887144     
   4.4999999999999998E-002   -0.22145426975620852     
   4.5300000000000000E-002    -8.4146165615473389E-002
   4.5600000000000002E-002     7.8688837183632732E-002
   4.5899999999999996E-002    0.26507830761962925     
   4.6200000000000005E-002    0.47089688830930854     
   4.6500000000000000E-002    0.69002729238463445     
   4.6799999999999994E-002    0.91404944258663789     
   4.7100000000000003E-002     1.1330974465632764     
   4.7399999999999998E-002     1.3357560232133423     
   4.7700000000000006E-002     1.5103970809338492     
   4.8000000000000001E-002     1.6456650464492455     
   4.8300000000000010E-002     1.7316022834955831     
   4.8600000000000004E-002     1.7607143251765862     
   4.8899999999999999E-002     1.7284958931083665     
   4.9200000000000008E-002     1.6343021586543074     
   4.9500000000000002E-002     1.4814945910046617     
   4.9800000000000011E-002     1.2773960711787851     
   5.0100000000000006E-002     1.0329026916775916     
   5.0400000000000000E-002    0.76184139328486644     
   5.0700000000000009E-002    0.47992081449046098     
   5.1000000000000004E-002    0.20352476304271505     
   5.1299999999999998E-002    -5.1250677822787638E-002
   5.1600000000000007E-002   -0.27004176029597549     
   5.1900000000000002E-002   -0.44089629201550018     
   5.2200000000000010E-002   -0.55535905941763275     
   5.2500000000000005E-002   -0.60867456722672131     
   5.2800000000000000E-002   -0.60011940329442126     
   5.3099999999999994E-002   -0.53288321857421650     
   5.3400000000000003E-002   -0.41365931063137573     
   5.3699999999999998E-002   -0.25213388995056896     
   5.4000000000000006E-002    -6.0374224453514813E-002
   5.4300000000000001E-002    0.14794884290308019     
   5.4599999999999996E-002    0.35831334466382714     
   5.4900000000000004E-002    0.55621338930621533     
   5.5199999999999999E-002    0.72759219716797929     
   5.5499999999999994E-002    0.85986046560431006     
   5.5800000000000002E-002    0.94206406774636164     
   5.6099999999999997E-002    0.96589400121175117     
   5.6400000000000006E-002    0.92565647836079279     
   5.6700000000000000E-002    0.81907525936014913     
   5.6999999999999995E-002    0.64709611535634171     
   5.7300000000000004E-002    0.41413766568101273     
   5.7599999999999998E-002    0.12798172709530675     
   5.7900000000000007E-002   -0.20060366025858123     
   5.8200000000000002E-002   -0.55847845298556642     
   5.8499999999999996E-002   -0.93080593370032361     
   5.8800000000000005E-002    -1.3018492596708029     
   5.9100000000000000E-002    -1.6562441948119684     
   5.9400000000000008E-002    -1.9792665903578097     
   5.9700000000000003E-002    -2.2585941846397617     
   6.0000000000000012E-002    -2.4838531800240133     
   6.0300000000000006E-002    -2.6482822425202102     
   6.0600000000000001E-002    -2.7475341346996913     
   6.0900000000000010E-002    -2.7810290000646489     
   6.1200000000000004E-002    -2.7504213285574792     
   6.1500000000000013E-002    -2.6599520256159224     
   6.1800000000000008E-002    -2.5154665066064155     
   6.2100000000000002E-002    -2.3242254770180466     
   6.2399999999999997E-002    -2.0942741814564769     
   6.2700000000000006E-002    -1.8339927647319882     
   6.3000000000000000E-002    -1.5521756936715576     
   6.3300000000000009E-002    -1.2576641774335187     
   6.3600000000000004E-002   -0.95935028861906702     
   6.3899999999999998E-002   -0.66614939247645921     
   6.4199999999999993E-002   -0.38652340425745946     
   6.4500000000000002E-002   -0.12867960690925440     
   6.4800000000000010E-002    0.10044610541989174     
   6.5100000000000005E-002    0.29518982010159167     
   6.5400000000000000E-002    0.45231002726760039     
   6.5700000000000008E-002    0.57096977009769034     
   6.5999999999999989E-002    0.65371547155567811     
   6.6299999999999998E-002    0.70602365566217529     
   6.6600000000000006E-002    0.73661462159242319     
   6.6900000000000001E-002    0.75666580065363220     
   6.7199999999999996E-002    0.77877434702195103     
   6.7500000000000004E-002    0.81600958935424828     
   6.7800000000000013E-002    0.88015681372626275     
   6.8099999999999994E-002    0.98071102202997551     
   6.8400000000000002E-002     1.1232739722209324     
   6.8700000000000011E-002     1.3087685706057570     
   6.8999999999999992E-002     1.5329173352589009     
   6.9300000000000000E-002     1.7863504327537569     
   6.9600000000000009E-002     2.0551807638547501     
   6.9900000000000004E-002     2.3219801805261824     
   7.0199999999999999E-002     2.5674089848368311     
   7.0500000000000007E-002     2.7718446922237092     
   7.0800000000000016E-002     2.9170890511522316     
   7.1099999999999997E-002     2.9880664166900885     
   7.1400000000000005E-002     2.9738200132797701     
   7.1700000000000000E-002     2.8688689050405642     
   7.1999999999999995E-002     2.6731391366005468     
   7.2300000000000003E-002     2.3922609493032247     
   7.2600000000000012E-002     2.0368314304456945     
   7.2900000000000006E-002     1.6218151627848485     
   7.3200000000000001E-002     1.1649346764564132     
   7.3499999999999996E-002    0.68595140153336942     
   7.3800000000000004E-002    0.20512465500153709     
   7.4099999999999999E-002   -0.25777775097673139     
   7.4400000000000008E-002   -0.68519758185538748     
   7.4700000000000003E-002    -1.0616828695634659     
   7.5000000000000011E-002    -1.3756024732563290     
   7.5299999999999992E-002    -1.6188685467427106     
   7.5600000000000001E-002    -1.7875858885407681     
   7.5900000000000009E-002    -1.8819251102446799     
   7.6200000000000004E-002    -1.9055129635785093     
   7.6499999999999999E-002    -1.8653327093111116     
   7.6800000000000007E-002    -1.7702433066671119     
   7.7099999999999988E-002    -1.6309503217652406     
   7.7399999999999997E-002    -1.4575971211840333     
   7.7700000000000005E-002    -1.2599591826932119     
   7.8000000000000014E-002    -1.0454121969537660     
   7.8299999999999995E-002   -0.81888734428567655     
   7.8600000000000003E-002   -0.58217837353376645     
   7.8900000000000012E-002   -0.33429380193414637     
   7.9199999999999993E-002    -7.1658276129453746E-002
   7.9500000000000001E-002    0.21005216990106579     
   7.9800000000000010E-002    0.51530300194760592     
   8.0100000000000018E-002    0.84630803512143515     
   8.0399999999999999E-002     1.2020025215670280     
   8.0700000000000008E-002     1.5762692758952923     
   8.1000000000000003E-002     1.9575278065015951     
   8.1299999999999997E-002     2.3279719414367719     
   8.1600000000000006E-002     2.6647009633842060     
   8.1900000000000014E-002     2.9413017599157598     
   8.2199999999999995E-002     3.1293670406682281     
   8.2500000000000004E-002     3.2022527976904627     
   8.2799999999999999E-002     3.1368174847236716     
   8.3100000000000007E-002     2.9176678205743958     
   8.3400000000000002E-002     2.5384422896426759     
   8.3700000000000011E-002     2.0045035749591378     
   8.4000000000000005E-002     1.3326464506175029     
   8.4300000000000000E-002    0.55142128309762484     
   8.4599999999999995E-002   -0.30100666117297425     
   8.4900000000000003E-002    -1.1800303841547084     
   8.5199999999999998E-002    -2.0373106228858617     
   8.5500000000000007E-002    -2.8259456659531423     
   8.5800000000000001E-002    -3.5035750329472961     
   8.6100000000000010E-002    -4.0371933589274107     
   8.6399999999999991E-002    -4.4050182838402634     
   8.6699999999999999E-002    -4.5991037037906040     
   8.7000000000000008E-002    -4.6251961755596369     
   8.7300000000000003E-002    -4.5020894554492088     
   8.7599999999999997E-002    -4.2593644090597280     
   8.7900000000000006E-002    -3.9339678738676440     
   8.8200000000000014E-002    -3.5662798239100653     
   8.8499999999999995E-002    -3.1960600354664876     
   8.8800000000000004E-002    -2.8582320063546334     
   8.9100000000000013E-002    -2.5801357050682512     
   8.9399999999999993E-002    -2.3780899734458103     
   8.9700000000000002E-002    -2.2573525848845861     
   9.0000000000000011E-002    -2.2114747912645214     
   9.0299999999999991E-002    -2.2235814039586330     
   9.0600000000000000E-002    -2.2690277214224039     
   9.0900000000000009E-002    -2.3181644120600708     
   9.1200000000000017E-002    -2.3393213864352873     
   9.1499999999999998E-002    -2.3034520124309523     
   9.1800000000000007E-002    -2.1855641612140246     
   9.2100000000000001E-002    -1.9690025043799295     
   9.2399999999999996E-002    -1.6457809690003473     
   9.2700000000000005E-002    -1.2184865809634182     
   9.3000000000000013E-002   -0.69907386836899832     
   9.3300000000000008E-002   -0.10891127096405562     
   9.3600000000000003E-002    0.52410703267613101     
   9.3899999999999997E-002     1.1671627286343984     
   9.4200000000000006E-002     1.7856631416087154     
   9.4500000000000001E-002     2.3464801495873928     
   9.4800000000000009E-002     2.8194432808314929     
   9.5100000000000004E-002     3.1815835792084926     
   9.5399999999999999E-002     3.4167024580330434     
   9.5699999999999993E-002     3.5186896977116504     
   9.6000000000000002E-002     3.4898353152213133     
   9.6300000000000011E-002     3.3421090518598362     
   9.6600000000000005E-002     3.0952900652818016     
   9.6900000000000000E-002     2.7745700858072126     
   9.7200000000000009E-002     2.4101177042053550     
   9.7499999999999989E-002     2.0323668736081828     
   9.7799999999999998E-002     1.6724613203418102     
   9.8100000000000007E-002     1.3566843022923152     
   9.8400000000000015E-002     1.1072863453328523     
   9.8699999999999996E-002    0.93901939087848874     
   9.9000000000000005E-002    0.85985473325337480     
   9.9300000000000013E-002    0.86929175965101280     
   9.9599999999999994E-002    0.95912706937535575     
   9.9900000000000003E-002     1.1150066167886834     
  0.10020000000000001          1.3159341905507702     
  0.10049999999999999          1.5384643093458124     
  0.10080000000000000          1.7551372942458627     
  0.10110000000000001          1.9396411372639548     
  0.10140000000000000          2.0652632782891303     
  0.10170000000000000          2.1097455777261516     
  0.10200000000000001          2.0535848755171591     
  0.10230000000000002          1.8833241711765680     
  0.10260000000000000          1.5908380181503148     
  0.10290000000000001          1.1757920913276649     
  0.10320000000000000         0.64446932635054210     
  0.10350000000000001          1.2376373368324423E-002
  0.10380000000000000        -0.69710856935643939     
  0.10410000000000001         -1.4503652612643911     
  0.10440000000000001         -2.2061985997214109     
  0.10470000000000000         -2.9127268573408855     
  0.10500000000000000         -3.5137397773871193     
  0.10530000000000000         -3.9453281212154714     
  0.10560000000000000         -4.1457632247082614     
  0.10590000000000001         -4.0555019411610260     
  0.10620000000000000         -3.6259247147350209     
  0.10650000000000001         -2.8269125776383959     
  0.10679999999999999         -1.6499234275971162     
  0.10710000000000000        -0.11975682639715046     
  0.10740000000000001          1.7074824026619608     
  0.10770000000000000          3.7363377275952985     
  0.10800000000000000          5.8402809990828501     
  0.10830000000000001          7.8617430233117318     
  0.10859999999999999          9.6267241153026646     
  0.10890000000000000          10.955852930006849     
  0.10920000000000001          11.680279380707219     
  0.10950000000000001          11.661540853848351     
  0.10979999999999999          10.804362620738459     
  0.11009999999999999          9.0754289324605111     
  0.11040000000000001          6.5086039367459989     
  0.11070000000000001          3.2125698461165655     
  0.11100000000000000        -0.63395593580435161     
  0.11130000000000000         -4.7927935656302338     
  0.11160000000000002         -8.9804169109067971     
  0.11190000000000001         -12.892824278749288     
  0.11220000000000001         -16.228339907549469     
  0.11250000000000000         -18.714928662290930     
  0.11280000000000000         -20.133762325614619     
  0.11309999999999999         -20.340211477154213     
  0.11340000000000001         -19.275879842442976     
  0.11369999999999998         -16.977603325059590     
  0.11400000000000000         -13.571430030271472     
  0.11430000000000000         -9.2667909918195051     
  0.11460000000000002         -4.3334952419112938     
  0.11489999999999999         0.91304206528189980     
  0.11520000000000001          6.1451081331761443     
  0.11550000000000001          11.039487047722702     
  0.11580000000000000          15.309265975025937     
  0.11609999999999999          18.714841864388120     
  0.11640000000000002          21.083929100821649     
  0.11670000000000001          22.315045915556794     
  0.11700000000000001          22.379337665174624     
  0.11730000000000000          21.317873229297476     
  0.11760000000000000          19.228185019784860     
  0.11789999999999999          16.258044341126777     
  0.11820000000000001          12.584260121850548     
  0.11850000000000001          8.4071680515213529     
  0.11880000000000000          3.9287033493083641     
  0.11910000000000000        -0.64947129202950293     
  0.11940000000000002         -5.1424001634554628     
  0.11970000000000001         -9.3823090532123672     
  0.12000000000000001         -13.225472859604849     
  0.12030000000000000         -16.553887313411678     
  0.12060000000000000         -19.273432407171754     
  0.12089999999999999         -21.318279603392625     
  0.12119999999999999         -22.644789705281482     
  0.12150000000000001         -23.235098459164192     
  0.12180000000000001         -23.092991249503797     
  0.12210000000000000         -22.245008277244622     
  0.12239999999999999         -20.736808139169177     
  0.12270000000000002         -18.633266944194162     
  0.12300000000000001         -16.016659979354074     
  0.12330000000000001         -12.981523276025371     
  0.12360000000000000         -9.6362234774119884     
  0.12390000000000000         -6.0921597481420804     
  0.12419999999999999         -2.4681615070435328     
  0.12450000000000001          1.1227503107373451     
  0.12480000000000001          4.5704318373422836     
  0.12509999999999999          7.7775949641948898     
  0.12540000000000001          10.660027045018694     
  0.12570000000000003          13.151004237644997     
  0.12600000000000000          15.205155737154200     
  0.12630000000000002          16.794257563482461     
  0.12659999999999999          17.913808782233502     
  0.12690000000000001          18.574963755095951     
  0.12719999999999998          18.806663249036660     
  0.12750000000000000          18.649380389327916     
  0.12780000000000002          18.151676112188852     
  0.12809999999999999          17.367785459858311     
  0.12840000000000001          16.348404883184713     
  0.12869999999999998          15.145158061105022     
  0.12900000000000000          13.798349105397151     
  0.12930000000000003          12.343278103947993     
  0.12959999999999999          10.805534166290322     
  0.12990000000000002          9.2003055709982675     
  0.13019999999999998          7.5390114409564148     
  0.13050000000000000          5.8242222438433942     
  0.13080000000000003          4.0592883974522351     
  0.13109999999999999          2.2464827636769940     
  0.13140000000000002         0.39159552778926354     
  0.13169999999999998         -1.4934194877663192     
  0.13200000000000001         -3.3915837363792178     
  0.13229999999999997         -5.2748513504103016     
  0.13260000000000000         -7.1117026785142343     
  0.13290000000000002         -8.8595366630603962     
  0.13319999999999999         -10.473858060097598     
  0.13350000000000001         -11.908480899009646     
  0.13380000000000003         -13.113673526424066     
  0.13410000000000000         -14.050472311466990     
  0.13440000000000002         -14.678967888145223     
  0.13469999999999999         -14.978204075496308     
  0.13500000000000001         -14.929887524783851     
  0.13529999999999998         -14.539189050568865     
  0.13560000000000000         -13.818104801969952     
  0.13590000000000002         -12.798403301335995     
  0.13619999999999999         -11.522059270670610     
  0.13650000000000001         -10.042239770680432     
  0.13680000000000003         -8.4209577193548952     
  0.13710000000000000         -6.7221332976599939     
  0.13740000000000002         -5.0127137094220018     
  0.13769999999999999         -3.3520868824461161     
  0.13800000000000001         -1.7959433600168779     
  0.13829999999999998        -0.38695569935754293     
  0.13860000000000000         0.84456513505045727     
  0.13890000000000002          1.8800983903532220     
  0.13919999999999999          2.7183943458462423     
  0.13950000000000001          3.3679141004991635     
  0.13979999999999998          3.8500652891088549     
  0.14010000000000000          4.1939285248271858     
  0.14040000000000002          4.4343806483414880     
  0.14069999999999999          4.6077620419857226     
  0.14100000000000001          4.7492408725163102     
  0.14130000000000004          4.8892404944791110     
  0.14160000000000000          5.0520202075833254     
  0.14189999999999997          5.2532389058196713     
  0.14219999999999999          5.4983586960540833     
  0.14250000000000002          5.7836437737822450     
  0.14279999999999998          6.0961264131072710     
  0.14310000000000000          6.4146663222361440     
  0.14339999999999997          6.7117375138465718     
  0.14369999999999999          6.9558865301186472     
  0.14400000000000002          7.1125435244301229     
  0.14429999999999998          7.1506034419113575     
  0.14460000000000001          7.0386099851085220     
  0.14490000000000003          6.7558940088760835     
  0.14520000000000000          6.2841175507429199     
  0.14550000000000002          5.6218936733677616     
  0.14579999999999999          4.7727538378397441     
  0.14610000000000001          3.7595465308768610     
  0.14640000000000003          2.6111172059686396     
  0.14670000000000000          1.3726940656081155     
  0.14699999999999996          9.5374905730110981E-002
  0.14729999999999999         -1.1620048240589398     
  0.14760000000000001         -2.3385614101756573     
  0.14789999999999998         -3.3765377547643993     
  0.14820000000000000         -4.2229538447030706     