  -1.4999999999999999E-002     0.0000000000000000     
  -1.4700000000000000E-002    -1.0344358431842667E-008
  -1.4400000000000000E-002     5.7738358203230957E-008
  -1.4100000000000000E-002     1.5450789318492424E-007
  -1.3800000000000000E-002    -8.0421089785957486E-008
  -1.3500000000000000E-002    -6.1579111434984647E-007
  -1.3200000000000000E-002    -8.1882269266466362E-007
  -1.2899999999999998E-002     6.3931175512877054E-007
  -1.2600000000000000E-002     2.7643242854788132E-006
  -1.2299999999999998E-002     2.5716166398681816E-006
  -1.2000000000000000E-002    -1.6076669551459916E-006
  -1.1699999999999999E-002    -7.6978714184305018E-006
  -1.1399999999999999E-002    -8.2141195605878092E-006
  -1.1099999999999999E-002     1.6684732947504222E-006
  -1.0799999999999999E-002     1.4674333613323872E-005
  -1.0499999999999999E-002     1.8187385262774937E-005
  -1.0199999999999999E-002     6.4608142494413257E-006
  -9.8999999999999991E-003    -1.5260291958153955E-005
  -9.5999999999999992E-003    -3.0608068228065872E-005
  -9.2999999999999992E-003    -2.6040318225004143E-005
  -8.9999999999999993E-003     2.0421599110886620E-006
  -8.6999999999999994E-003     2.4928236493231752E-005
  -8.3999999999999995E-003     3.4755993832210540E-005
  -8.0999999999999996E-003     3.7686848208393162E-005
  -7.7999999999999988E-003     4.3978441616180980E-005
  -7.4999999999999997E-003     4.8061822731991109E-005
  -7.1999999999999998E-003     4.4996361134799854E-005
  -6.8999999999999981E-003     3.3523312112990547E-005
  -6.5999999999999982E-003     2.2508080412616312E-005
  -6.3000000000000000E-003     6.9078666181645904E-005
  -6.0000000000000001E-003     2.5030156368729267E-004
  -5.6999999999999985E-003     5.9823353853543162E-004
  -5.3999999999999986E-003     1.1064181433609981E-003
  -5.1000000000000004E-003     1.8145881950650186E-003
  -4.7999999999999987E-003     2.7778051569502318E-003
  -4.5000000000000005E-003     4.1183910651130806E-003
  -4.1999999999999989E-003     6.0219498752387413E-003
  -3.8999999999999990E-003     8.7846923569941116E-003
  -3.5999999999999990E-003     1.2732120088174925E-002
  -3.2999999999999991E-003     1.8385837448195996E-002
  -2.9999999999999992E-003     2.6442603397505926E-002
  -2.6999999999999993E-003     3.7845437894747369E-002
  -2.3999999999999994E-003     5.3707799030056735E-002
  -2.0999999999999977E-003     7.5397798729105237E-002
  -1.7999999999999995E-003    0.10444008444395525     
  -1.4999999999999979E-003    0.14263005868444090     
  -1.1999999999999997E-003    0.19202655877744146     
  -8.9999999999999976E-004    0.25473848921830644     
  -5.9999999999999810E-004    0.33292817209080283     
  -2.9999999999999992E-004    0.42820151814964547     
   0.0000000000000000         0.54109347885097669     
   3.0000000000000165E-004    0.67067361450347107     
   5.9999999999999984E-004    0.81401834923600802     
   9.0000000000000149E-004    0.96488508788062521     
   1.2000000000000031E-003     1.1132820099269765     
   1.5000000000000013E-003     1.2441913496136650     
   1.8000000000000030E-003     1.3367917247724748     
   2.1000000000000012E-003     1.3643449355921362     
   2.3999999999999994E-003     1.2942015448377830     
   2.7000000000000010E-003     1.0884957611756931     
   2.9999999999999992E-003    0.70576973715265012     
   3.3000000000000008E-003    0.10399043304408906     
   3.6000000000000025E-003   -0.75528376785620033     
   3.9000000000000007E-003    -1.9021746068282859     
   4.2000000000000023E-003    -3.3520489379480551     
   4.5000000000000005E-003    -5.0994405402062597     
   4.7999999999999987E-003    -7.1118281179406040     
   5.1000000000000004E-003    -9.3240454295518020     
   5.4000000000000020E-003    -11.635498153201070     
   5.7000000000000037E-003    -13.909487591258824     
   5.9999999999999984E-003    -15.975975334229815     
   6.3000000000000000E-003    -17.639328360088967     
   6.6000000000000017E-003    -18.689971575094916     
   6.9000000000000034E-003    -18.919411067342310     
   7.2000000000000015E-003    -18.140461489118366     
   7.5000000000000032E-003    -16.205619760518971     
   7.8000000000000014E-003    -13.027311794174807     
   8.0999999999999996E-003    -8.5972212824194116     
   8.4000000000000012E-003    -2.9965409738738344     
   8.7000000000000029E-003     3.5971157588341782     
   9.0000000000000011E-003     10.911067324521383     
   9.2999999999999992E-003     18.590511599624733     
   9.6000000000000009E-003     26.217919856839899     
   9.8999999999999991E-003     33.339438450401985     
   1.0200000000000001E-002     39.499639119220888     
   1.0500000000000002E-002     44.275662533823947     
   1.0800000000000004E-002     47.310194553379176     
   1.1099999999999999E-002     48.345326054600861     
   1.1400000000000000E-002     47.242165207805300     
   1.1700000000000002E-002     43.994857770545821     
   1.2000000000000004E-002     38.735377903695280     
   1.2300000000000002E-002     31.720887569853630     
   1.2600000000000000E-002     23.318332622674120     
   1.2900000000000002E-002     13.974641225535379     
   1.3200000000000000E-002     4.1855653197060860     
   1.3500000000000002E-002    -5.5426516374502626     
   1.3800000000000003E-002    -14.725718102746043     
   1.4100000000000001E-002    -22.934164889623275     
   1.4400000000000000E-002    -29.818007905954005     
   1.4700000000000001E-002    -35.129218158090794     
   1.4999999999999999E-002    -38.721580281506931     
   1.5300000000000001E-002    -40.559328032898975     
   1.5600000000000003E-002    -40.712561994138127     
   1.5899999999999997E-002    -39.329419543777590     
   1.6199999999999999E-002    -36.636657055475894     
   1.6500000000000001E-002    -32.906358826517845     
   1.6800000000000002E-002    -28.432225677730976     
   1.7100000000000004E-002    -23.523335565332673     
   1.7400000000000006E-002    -18.466665638909774     
   1.7700000000000000E-002    -13.520420870536441     
   1.8000000000000002E-002    -8.9091182152438364     
   1.8300000000000004E-002    -4.7981780512472483     
   1.8600000000000005E-002    -1.3047220723478858     
   1.8900000000000000E-002     1.5032057808999610     
   1.9200000000000002E-002     3.6174820032852892     
   1.9500000000000003E-002     5.0651253881451339     
   1.9799999999999998E-002     5.9123486293523797     
   2.0100000000000000E-002     6.2594867264795653     
   2.0400000000000001E-002     6.2151207052645816     
   2.0700000000000003E-002     5.9043743484338762     
   2.0999999999999998E-002     5.4528593231618316     
   2.1299999999999999E-002     4.9684899122695754     
   2.1600000000000001E-002     4.5542265092500145     
   2.1900000000000003E-002     4.2860056132165028     
   2.2200000000000004E-002     4.2109072194885186     
   2.2500000000000006E-002     4.3571700138485738     
   2.2800000000000001E-002     4.7192937689252972     
   2.3100000000000002E-002     5.2666704598063632     
   2.3400000000000004E-002     5.9537489172991513     
   2.3699999999999999E-002     6.7129864248987303     
   2.4000000000000000E-002     7.4711967705843847     
   2.4300000000000002E-002     8.1550922579578469     
   2.4599999999999997E-002     8.6922078092209460     
   2.4900000000000005E-002     9.0243773169547694     
   2.5200000000000000E-002     9.1088395903529715     
   2.5499999999999995E-002     8.9191103588948408     
   2.5800000000000003E-002     8.4527852979208831     
   2.6099999999999998E-002     7.7252425088162369     
   2.6400000000000007E-002     6.7697069970709620     
   2.6700000000000002E-002     5.6360320396269472     
   2.6999999999999996E-002     4.3829462868444224     
   2.7300000000000005E-002     3.0759329909692639     
   2.7600000000000000E-002     1.7822604507094013     
   2.7900000000000008E-002    0.56445744006133225     
   2.8200000000000003E-002   -0.52131266267759102     
   2.8499999999999998E-002    -1.4297870099754206     
   2.8800000000000006E-002    -2.1294094961149312     
   2.9100000000000001E-002    -2.6040728108320934     
   2.9400000000000003E-002    -2.8514260822517343     
   2.9700000000000004E-002    -2.8845908369501885     
   3.0000000000000006E-002    -2.7321022318962633     
   3.0300000000000001E-002    -2.4298303436470334     
   3.0600000000000002E-002    -2.0242666413650188     
   3.0900000000000004E-002    -1.5672934934340828     
   3.1199999999999999E-002    -1.1067222248252255     
   3.1500000000000007E-002   -0.69160460876395646     
   3.1800000000000002E-002   -0.36448878906252702     
   3.2099999999999997E-002   -0.15282054752484431     
   3.2400000000000005E-002    -7.9999481565372399E-002
   3.2700000000000000E-002   -0.15346899025484628     
   3.3000000000000002E-002   -0.36518357243445365     
   3.3300000000000003E-002   -0.70282603419312650     
   3.3599999999999998E-002    -1.1386720131105434     
   3.3900000000000000E-002    -1.6376738257614960     
   3.4200000000000001E-002    -2.1655203727747079     
   3.4500000000000003E-002    -2.6795846757538442     
   3.4799999999999998E-002    -3.1412678935647023     
   3.5099999999999999E-002    -3.5173604159055287     
   3.5400000000000001E-002    -3.7754019644451091     
   3.5699999999999996E-002    -3.8956877544923998     
   3.6000000000000004E-002    -3.8648777299855794     
   3.6299999999999999E-002    -3.6773267595326189     
   3.6600000000000008E-002    -3.3424533685201965     
   3.6900000000000002E-002    -2.8737759205266080     
   3.7199999999999997E-002    -2.2952740385293318     
   3.7500000000000006E-002    -1.6409296986982618     
   3.7800000000000000E-002   -0.94254246525042618     
   3.8100000000000009E-002   -0.24059224740403806     
   3.8400000000000004E-002    0.42559184461295985     
   3.8699999999999998E-002     1.0259602636390746     
   3.9000000000000007E-002     1.5263719076812876     
   3.9300000000000002E-002     1.9058076159387909     
   3.9600000000000003E-002     2.1552281382753478     
   3.9900000000000005E-002     2.2644330680402192     
   4.0200000000000000E-002     2.2416901183120075     
   4.0500000000000001E-002     2.1027481393868328     
   4.0800000000000003E-002     1.8613039449444564     
   4.1100000000000005E-002     1.5468327256447232     
   4.1399999999999999E-002     1.1872763028403117     
   4.1700000000000008E-002    0.80607821911359601     
   4.2000000000000003E-002    0.43662765839680739     
   4.2299999999999997E-002    0.10274198373449028     
   4.2600000000000006E-002   -0.17607063830907732     
   4.2900000000000001E-002   -0.37658713061119919     
   4.3200000000000002E-002   -0.48949482112143805     
   4.3500000000000004E-002   -0.50833683620473558     
   4.3799999999999999E-002   -0.42824894002042768     
   4.4100000000000000E-002   -0.25874708698315452     
   4.4400000000000002E-002    -1.0823056579341461E-002
   4.4700000000000004E-002    0.29831267164186936     
   4.4999999999999998E-002    0.64077808342024412     
   4.5300000000000000E-002    0.98973482178451633     
   4.5600000000000002E-002     1.3134571421195425     
   4.5899999999999996E-002     1.5780852981786957     
   4.6200000000000005E-002     1.7564832357533895     
   4.6500000000000000E-002     1.8226872167921915     
   4.6799999999999994E-002     1.7605414052257196     
   4.7100000000000003E-002     1.5660243016658093     
   4.7399999999999998E-002     1.2426009684733721     
   4.7700000000000006E-002    0.80929417724917130     
   4.8000000000000001E-002    0.29534207714281635     
   4.8300000000000010E-002   -0.26390437013421675     
   4.8600000000000004E-002   -0.82309254489571870     
   4.8899999999999999E-002    -1.3376967520886147     
   4.9200000000000008E-002    -1.7661904477572961     
   4.9500000000000002E-002    -2.0697480260706769     
   4.9800000000000011E-002    -2.2239076965813971     
   5.0100000000000006E-002    -2.2145739919267591     
   5.0400000000000000E-002    -2.0403564537147361     
   5.0700000000000009E-002    -1.7171463815097781     
   5.1000000000000004E-002    -1.2707529169666998     
   5.1299999999999998E-002   -0.73718880643758666     
   5.1600000000000007E-002   -0.16146720509328105     
   5.1900000000000002E-002    0.41256128546265336     
   5.2200000000000010E-002    0.93966156090205644     
   5.2500000000000005E-002     1.3808335355657420     
   5.2800000000000000E-002     1.7081698610775531     
   5.3099999999999994E-002     1.9000522772160142     
   5.3400000000000003E-002     1.9502609605767081     
   5.3699999999999998E-002     1.8644612902293041     
   5.4000000000000006E-002     1.6545040752207534     
   5.4300000000000001E-002     1.3450838654982284     
   5.4599999999999996E-002    0.96490702338707734     
   5.4900000000000004E-002    0.54230994436170832     
   5.5199999999999999E-002    0.11075886570973026     
   5.5499999999999994E-002   -0.30235623454496852     
   5.5800000000000002E-002   -0.67517228223635328     
   5.6099999999999997E-002   -0.98699822511400725     
   5.6400000000000006E-002    -1.2265896703987949     
   5.6700000000000000E-002    -1.3884763555540047     
   5.6999999999999995E-002    -1.4688958689023544     
   5.7300000000000004E-002    -1.4723449597315073     
   5.7599999999999998E-002    -1.4058407973069764     
   5.7900000000000007E-002    -1.2764296379629467     
   5.8200000000000002E-002    -1.0957726415986642     
   5.8499999999999996E-002   -0.87666619809292357     
   5.8800000000000005E-002   -0.62985068699914493     
   5.9100000000000000E-002   -0.36957825089986684     
   5.9400000000000008E-002   -0.10994064489699085     
   5.9700000000000003E-002    0.13885177516381075     
   6.0000000000000012E-002    0.36440758428815379     
   6.0300000000000006E-002    0.55583112849627625     
   6.0600000000000001E-002    0.70788294950594022     
   6.0900000000000010E-002    0.81441732355062513     
   6.1200000000000004E-002    0.87260457565262328     
   6.1500000000000013E-002    0.88634650116597058     
   6.1800000000000008E-002    0.85693831167763079     
   6.2100000000000002E-002    0.79025280181756763     
   6.2399999999999997E-002    0.69653343855358330     
   6.2700000000000006E-002    0.58098785452140633     
   6.3000000000000000E-002    0.45324403656942858     
   6.3300000000000009E-002    0.32328257777728453     
   6.3600000000000004E-002    0.19455608339479724     
   6.3899999999999998E-002     7.5655667898454126E-002
   6.4199999999999993E-002    -2.8169671544726382E-002
   6.4500000000000002E-002   -0.11677669003503599     
   6.4800000000000010E-002   -0.18423894159998611     
   6.5100000000000005E-002   -0.23069005078422222     
   6.5400000000000000E-002   -0.25806407790577701     
   6.5700000000000008E-002   -0.26289017414091376     
   6.5999999999999989E-002   -0.24983655649445602     
   6.6299999999999998E-002   -0.22203314554849651     
   6.6600000000000006E-002   -0.17974563056394555     
   6.6900000000000001E-002   -0.13122430865810308     
   6.7199999999999996E-002    -7.9408451106953493E-002
   6.7500000000000004E-002    -2.7587478381357888E-002
   6.7800000000000013E-002     1.5811435994726786E-002
   6.8099999999999994E-002     4.9963539110622124E-002
   6.8400000000000002E-002     7.1296385850464050E-002
   6.8700000000000011E-002     7.5989064546624352E-002
   6.8999999999999992E-002     6.7181888055299011E-002
   6.9300000000000000E-002     4.3924779195823493E-002
   6.9600000000000009E-002     8.0789969944836670E-003
   6.9900000000000004E-002    -3.4557315297397473E-002
   7.0199999999999999E-002    -8.3543510483106598E-002
   7.0500000000000007E-002   -0.13347980455894870     
   7.0800000000000016E-002   -0.17899154602321765     
   7.1099999999999997E-002   -0.22013595186072354     
   7.1400000000000005E-002   -0.25131524626222213     
   7.1700000000000000E-002   -0.27088977224766264     
   7.1999999999999995E-002   -0.27937889568373153     
   7.2300000000000003E-002   -0.27318136947134497     
   7.2600000000000012E-002   -0.25427779999482286     
   7.2900000000000006E-002   -0.22432771860674983     
   7.3200000000000001E-002   -0.18189079768186556     
   7.3499999999999996E-002   -0.13208034940841529     
   7.3800000000000004E-002    -7.7565238234932554E-002
   7.4099999999999999E-002    -1.8791819513395591E-002
   7.4400000000000008E-002     3.7658296382556022E-002
   7.4700000000000003E-002     8.9509049789279871E-002
   7.5000000000000011E-002    0.13577623246400128     
   7.5299999999999992E-002    0.17106089773414723     
   7.5600000000000001E-002    0.19492960742207988     
   7.5900000000000009E-002    0.20807653669697146     
   7.6200000000000004E-002    0.20783986848159985     
   7.6499999999999999E-002    0.19628434881476897     
   7.6800000000000007E-002    0.17628573521523694     
   7.7099999999999988E-002    0.14729707580278181     
   7.7399999999999997E-002    0.11271999493655138     
   7.7700000000000005E-002     7.6538575977326495E-002
   7.8000000000000014E-002     3.8473133675884341E-002
   7.8299999999999995E-002     2.3893139707166222E-003
   7.8600000000000003E-002    -2.8233645246173222E-002
   7.8900000000000012E-002    -5.4281571316814770E-002
   7.9199999999999993E-002    -7.2771949989564710E-002
   7.9500000000000001E-002    -8.1542374723597266E-002
   7.9800000000000010E-002    -8.2855870525532449E-002
   8.0100000000000018E-002    -7.4522555781964872E-002
   8.0399999999999999E-002    -5.7322160555294488E-002
   8.0700000000000008E-002    -3.5070245550098189E-002
   8.1000000000000003E-002    -7.1496146361531010E-003
   8.1299999999999997E-002     2.2995178882695311E-002
   8.1600000000000006E-002     5.1756475927833501E-002
   8.1900000000000014E-002     7.8681113122694324E-002
   8.2199999999999995E-002    0.10008645890910017     
   8.2500000000000004E-002    0.11399804206348163     
   8.2799999999999999E-002    0.12101236865607090     
   8.3100000000000007E-002    0.11940405830765566     
   8.3400000000000002E-002    0.11029147750082430     
   8.3700000000000011E-002     9.5184766489907702E-002
   8.4000000000000005E-002     7.4647321632903996E-002
   8.4300000000000000E-002     5.1125621730190973E-002
   8.4599999999999995E-002     2.5942002697617150E-002
   8.4900000000000003E-002     1.0471691071173295E-003
   8.5199999999999998E-002    -2.2226930109520870E-002
   8.5500000000000007E-002    -4.3442718341762276E-002
   8.5800000000000001E-002    -6.0434636232517214E-002
   8.6100000000000010E-002    -7.3829688799542659E-002
   8.6399999999999991E-002    -8.2901733141471201E-002
   8.6699999999999999E-002    -8.6325053780874406E-002
   8.7000000000000008E-002    -8.6059650225979750E-002
   8.7300000000000003E-002    -8.0817164960340970E-002
   8.7599999999999997E-002    -7.0630487076075887E-002
   8.7900000000000006E-002    -5.8529368240504365E-002
   8.8200000000000014E-002    -4.2710056929282647E-002
   8.8499999999999995E-002    -2.5562381274808699E-002
   8.8800000000000004E-002    -1.0305329028813315E-002
   8.9100000000000013E-002     5.6400865641103859E-003
   8.9399999999999993E-002     1.8154966960702179E-002
   8.9700000000000002E-002     2.5986518562525762E-002
   9.0000000000000011E-002     3.1993121880586006E-002
   9.0299999999999991E-002     3.1958511388292921E-002
   9.0600000000000000E-002     2.7808754608243003E-002
   9.0900000000000009E-002     2.2547738388392746E-002
   9.1200000000000017E-002     1.2603464925440844E-002
   9.1499999999999998E-002     1.9283401464160188E-003
   9.1800000000000007E-002    -8.1080917932427332E-003
   9.2100000000000001E-002    -1.9918313901283957E-002
   9.2399999999999996E-002    -2.9194352732437423E-002
   9.2700000000000005E-002    -3.6619186670979298E-002
   9.3000000000000013E-002    -4.3468329483637325E-002
   9.3300000000000008E-002    -4.6289989157225486E-002
   9.3600000000000003E-002    -4.7553559863974693E-002
   9.3899999999999997E-002    -4.6559794869106996E-002
   9.4200000000000006E-002    -4.1718020332700112E-002
   9.4500000000000001E-002    -3.5907840247782263E-002
   9.4800000000000009E-002    -2.7300770305650257E-002
   9.5100000000000004E-002    -1.6999434338495045E-002
   9.5399999999999999E-002    -7.0775881608230451E-003
   9.5699999999999993E-002     4.2563209460543816E-003
   9.6000000000000002E-002     1.4242819221865100E-002
   9.6300000000000011E-002     2.2341839911498296E-002
   9.6600000000000005E-002     3.0130173662674897E-002
   9.6900000000000000E-002     3.4550316400849823E-002
   9.7200000000000009E-002     3.7334695751139346E-002
   9.7499999999999989E-002     3.9667385596678872E-002
   9.7799999999999998E-002     3.9269221706320231E-002
   9.8100000000000007E-002     3.9344255300534453E-002
   9.8400000000000015E-002     3.9686787283850333E-002
   9.8699999999999996E-002     3.8830979867067517E-002
   9.9000000000000005E-002     3.9207247100772724E-002
   9.9300000000000013E-002     3.9148157964687513E-002
   9.9599999999999994E-002     3.8078869487566669E-002
   9.9900000000000003E-002     3.7057483633668453E-002
  0.10020000000000001          3.4227014489958574E-002
  0.10049999999999999          2.9966317791696756E-002
  0.10080000000000000          2.5017816446034763E-002
  0.10110000000000001          1.8187082219259576E-002
  0.10140000000000000          1.1309602472024421E-002
  0.10170000000000000          4.4593893103735405E-003
  0.10200000000000001         -2.6642635833202255E-003
  0.10230000000000002         -8.3161536405673697E-003
  0.10260000000000000         -1.3377611004696921E-002
  0.10290000000000001         -1.8183842942886996E-002
  0.10320000000000000         -2.1744974461396338E-002
  0.10350000000000001         -2.5081359732666453E-002
  0.10380000000000000         -2.8558370088749729E-002
  0.10410000000000001         -3.1346989201926648E-002
  0.10440000000000001         -3.4150022129032231E-002
  0.10470000000000000         -3.6870619877418020E-002
  0.10500000000000000         -3.7761261018753656E-002
  0.10530000000000000         -3.7391797006043892E-002
  0.10560000000000000         -3.6374677995679283E-002
  0.10590000000000001         -3.2264599955902362E-002
  0.10620000000000000         -2.6844941886154605E-002
  0.10650000000000001         -2.1761054353922282E-002
  0.10679999999999999         -1.4321468371431251E-002
  0.10710000000000000         -7.9872330781030065E-003
  0.10740000000000001         -4.2588078192105014E-003
  0.10770000000000000          3.2742822146154121E-004
  0.10800000000000000          1.6558471482788495E-003
  0.10830000000000001          1.1604047589486299E-005
  0.10859999999999999         -5.3646994291234318E-004
  0.10890000000000000         -3.8998453400039268E-003
  0.10920000000000001         -7.6695918041665978E-003
  0.10950000000000001         -8.5103778127866292E-003
  0.10979999999999999         -1.1102147370719129E-002
  0.11009999999999999         -1.1845766921461665E-002
  0.11040000000000001         -9.5665623623809593E-003
  0.11070000000000001         -8.4535499711092532E-003
  0.11100000000000000         -5.4688736953444339E-003
  0.11130000000000000         -1.0312395138285559E-003
  0.11160000000000002          1.9560981149955303E-003
  0.11190000000000001          6.3875169361498618E-003
  0.11220000000000001          1.1108285575236243E-002
  0.11250000000000000          1.5034510750026153E-002
  0.11280000000000000          2.0094859189956557E-002
  0.11309999999999999          2.4732137496679393E-002
  0.11340000000000001          2.9379007022248493E-002
  0.11369999999999998          3.3844381350267239E-002
  0.11400000000000000          3.7156971500735658E-002
  0.11430000000000000          3.9891259334802642E-002
  0.11460000000000002          4.0682442125339779E-002
  0.11489999999999999          3.9661796174909503E-002
  0.11520000000000001          3.7619103798140853E-002
  0.11550000000000001          3.2917956663954057E-002
  0.11580000000000000          2.7444479427074120E-002
  0.11609999999999999          2.1792520726267139E-002
  0.11640000000000002          1.4555104874452413E-002
  0.11670000000000001          8.5673339266166045E-003
  0.11700000000000001          3.1070620092397971E-003
  0.11730000000000000         -3.0971575946187602E-003
  0.11760000000000000         -7.2901596534853952E-003
  0.11789999999999999         -1.1363206544026783E-002
  0.11820000000000001         -1.5784807066403839E-002
  0.11850000000000001         -1.8702170294485065E-002
  0.11880000000000000         -2.2047290875659264E-002
  0.11910000000000000         -2.5015616643885005E-002
  0.11940000000000002         -2.6175434057530395E-002
  0.11970000000000001         -2.7162729953353726E-002
  0.12000000000000001         -2.6173832021092691E-002
  0.12030000000000000         -2.3323209008906387E-002
  0.12060000000000000         -1.9960017733024138E-002
  0.12089999999999999         -1.4587370140773326E-002
  0.12119999999999999         -8.6427264573430626E-003
  0.12150000000000001         -3.1322381731822974E-003
  0.12180000000000001          2.9110966776622615E-003
  0.12210000000000000          7.2382812666459406E-003
  0.12239999999999999          9.9611679613225146E-003
  0.12270000000000002          1.2160599331445476E-002
  0.12300000000000001          1.1952434366382270E-002
  0.12330000000000001          1.0597341700300300E-002
  0.12360000000000000          9.1526177017347693E-003
  0.12390000000000000          5.8556659989409954E-003
  0.12419999999999999          2.3819131300839846E-003
  0.12450000000000001         -5.3467030563569828E-004
  0.12480000000000001         -4.8532952973266430E-003
  0.12509999999999999         -8.7194300808349778E-003
  0.12540000000000001         -1.1936581318446993E-002
  0.12570000000000003         -1.6326340294337549E-002
  0.12600000000000000         -1.9948232067107274E-002
  0.12630000000000002         -2.2200295311714635E-002
  0.12659999999999999         -2.4422735706505883E-002
  0.12690000000000001         -2.4425187922256453E-002
  0.12719999999999998         -2.2445333870718759E-002
  0.12750000000000000         -1.9097855939661235E-002
  0.12780000000000002         -1.3033446896863449E-002
  0.12809999999999999         -5.3436467772108726E-003
  0.12840000000000001          2.8240668600579832E-003
  0.12869999999999998          1.1981398550628630E-002
  0.12900000000000000          2.0376337234601749E-002
  0.12930000000000003          2.7173071071451949E-002
  0.12959999999999999          3.2499852887634129E-002
  0.12990000000000002          3.5099311422765012E-002
  0.13019999999999998          3.5314359862449851E-002
  0.13050000000000000          3.3454063433002112E-002
  0.13080000000000003          2.9075918444289472E-002
  0.13109999999999999          2.3432180373483602E-002
  0.13140000000000002          1.6507127974767249E-002
  0.13169999999999998          8.7103119905466500E-003
  0.13200000000000001          1.1160423035136979E-003
  0.13229999999999997         -6.7281889468595590E-003
  0.13260000000000000         -1.4114622705985180E-002
  0.13290000000000002         -2.0206675910213190E-002
  0.13319999999999999         -2.5767552104545732E-002
  0.13350000000000001         -2.9888791504906420E-002
  0.13380000000000003         -3.2062653392456120E-002
  0.13410000000000000         -3.2899020673200829E-002
  0.13440000000000002         -3.1412993326150607E-002
  0.13469999999999999         -2.7916352176875603E-002
  0.13500000000000001         -2.2850054951210175E-002
  0.13529999999999998         -1.6460175519208864E-002
  0.13560000000000000         -8.8356725149377549E-003
  0.13590000000000002         -7.2846486146715961E-004
  0.13619999999999999          6.7870828029327757E-003
  0.13650000000000001          1.3791296970374289E-002
  0.13680000000000003          2.0044921434944629E-002
  0.13710000000000000          2.3287770961289644E-002
  0.13740000000000002          2.5764738418825928E-002
  0.13769999999999999          2.6929282641953989E-002
  0.13800000000000001          2.4498735284539330E-002
  0.13829999999999998          2.2366887876738129E-002
  0.13860000000000000          1.8864468375498933E-002
  0.13890000000000002          1.2356905029769605E-002
  0.13919999999999999          7.5963604268611540E-003
  0.13950000000000001          1.7373212659394510E-003
  0.13979999999999998         -5.9872434605942604E-003
  0.14010000000000000         -1.0760443658630159E-002
  0.14040000000000002         -1.6604063346498554E-002
  0.14069999999999999         -2.2314551843361841E-002
  0.14100000000000001         -2.3888743116062039E-002
  0.14130000000000004         -2.6004165228216081E-002
  0.14160000000000000         -2.6227139422004386E-002
  0.14189999999999997         -2.2531781185468946E-002
  0.14219999999999999         -1.9257623431520821E-002
  0.14250000000000002         -1.3518304300900896E-002
  0.14279999999999998         -5.6979236516636056E-003
  0.14310000000000000          7.7036753154197113E-004
  0.14339999999999997          8.8168211066147473E-003
  0.14369999999999999          1.6266439359908236E-002
  0.14400000000000002          2.1353460296101856E-002
  0.14429999999999998          2.6948040714377397E-002
  0.14460000000000001          2.9902885404402446E-002
  0.14490000000000003          3.0738038014258784E-002
  0.14520000000000000          3.1389189189035160E-002
  0.14550000000000002          2.8643831969505540E-002
  0.14579999999999999          2.5033336960161301E-002
  0.14610000000000001          2.0932692676762343E-002
  0.14640000000000003          1.3535976700393526E-002
  0.14670000000000000          6.8136078804685585E-003
  0.14699999999999996         -5.7075725024730017E-004
  0.14729999999999999         -1.0017476979210516E-002
  0.14760000000000001         -1.7093328488972048E-002
  0.14789999999999998         -2.4216776734929057E-002
  0.14820000000000000         -3.1310088322931917E-002