  -1.4999999999999999E-002     0.0000000000000000     
  -1.4700000000000000E-002     5.8901898115915063E-012
  -1.4400000000000000E-002    -1.0536004013683709E-010
  -1.4100000000000000E-002    -3.0701532427457323E-009
  -1.3800000000000000E-002     8.4028034530447826E-010
  -1.3500000000000000E-002     2.0840163372781717E-008
  -1.3200000000000000E-002     3.6852370044471172E-008
  -1.2899999999999998E-002    -4.9392781420465326E-008
  -1.2600000000000000E-002    -1.4718543184244481E-007
  -1.2299999999999998E-002    -1.4320113450594363E-007
  -1.2000000000000000E-002     3.4251550573571876E-007
  -1.1699999999999999E-002     6.4135792854358442E-007
  -1.1399999999999999E-002     2.1567072394645947E-007
  -1.1099999999999999E-002    -8.9120419488608604E-007
  -1.0799999999999999E-002    -1.8977871150127612E-006
  -1.0499999999999999E-002    -9.9013016097160289E-007
  -1.0199999999999999E-002     2.6784155124914832E-006
  -9.8999999999999991E-003     4.0754557630862109E-006
  -9.5999999999999992E-003     2.6936088488582755E-006
  -9.2999999999999992E-003    -2.3459579097107053E-006
  -8.9999999999999993E-003    -9.4411325335386209E-006
  -8.6999999999999994E-003    -7.0233859332802240E-006
  -8.3999999999999995E-003     1.8650304127731943E-006
  -8.0999999999999996E-003     9.4343849923461676E-006
  -7.7999999999999988E-003     1.5799239918123931E-005
  -7.4999999999999997E-003     7.7866161518613808E-006
  -7.1999999999999998E-003    -5.2920122470823117E-006
  -6.8999999999999981E-003    -1.1609408829826862E-005
  -6.5999999999999982E-003    -1.3807100913254544E-005
  -6.3000000000000000E-003    -8.6031704995548353E-006
  -6.0000000000000001E-003     5.3544308684649877E-006
  -5.6999999999999985E-003     2.3929760573082604E-005
  -5.3999999999999986E-003     5.5710592278046533E-005
  -5.1000000000000004E-003     1.0176123760174960E-004
  -4.7999999999999987E-003     1.4845626719761640E-004
  -4.5000000000000005E-003     1.8681207438930869E-004
  -4.1999999999999989E-003     2.3350263654720038E-004
  -3.8999999999999990E-003     3.1434150878340006E-004
  -3.5999999999999990E-003     4.9488071817904711E-004
  -3.2999999999999991E-003     8.5074786329641938E-004
  -2.9999999999999992E-003     1.4421476516872644E-003
  -2.6999999999999993E-003     2.3529506288468838E-003
  -2.3999999999999994E-003     3.6434000357985497E-003
  -2.0999999999999977E-003     5.4038609378039837E-003
  -1.7999999999999995E-003     7.8428788110613823E-003
  -1.4999999999999979E-003     1.1216676793992519E-002
  -1.1999999999999997E-003     1.5848075971007347E-002
  -8.9999999999999976E-004     2.2208362817764282E-002
  -5.9999999999999810E-004     3.0942177399992943E-002
  -2.9999999999999992E-004     4.2805194854736328E-002
   0.0000000000000000          5.8764331042766571E-002
   3.0000000000000165E-004     8.0032981932163239E-002
   5.9999999999999984E-004    0.10796415060758591     
   9.0000000000000149E-004    0.14403115212917328     
   1.2000000000000031E-003    0.18985144793987274     
   1.5000000000000013E-003    0.24703504145145416     
   1.8000000000000030E-003    0.31700417399406433     
   2.1000000000000012E-003    0.40100270509719849     
   2.3999999999999994E-003    0.49968448281288147     
   2.7000000000000010E-003    0.61247467994689941     
   2.9999999999999992E-003    0.73701465129852295     
   3.3000000000000008E-003    0.86876964569091797     
   3.6000000000000025E-003     1.0002133846282959     
   3.9000000000000007E-003     1.1199032068252563     
   4.2000000000000023E-003     1.2117819786071777     
   4.5000000000000005E-003     1.2547216415405273     
   4.7999999999999987E-003     1.2225421667098999     
   5.1000000000000004E-003     1.0843238830566406     
   5.4000000000000020E-003    0.80498111248016357     
   5.7000000000000037E-003    0.34730306267738342     
   5.9999999999999984E-003   -0.32520255446434021     
   6.3000000000000000E-003    -1.2445565462112427     
   6.6000000000000017E-003    -2.4332542419433594     
   6.9000000000000034E-003    -3.8990433216094971     
   7.2000000000000015E-003    -5.6290440559387207     
   7.5000000000000032E-003    -7.5842499732971191     
   7.8000000000000014E-003    -9.6945943832397461     
   8.0999999999999996E-003    -11.856838226318359     
   8.4000000000000012E-003    -13.934368133544922     
   8.7000000000000029E-003    -15.760704994201660     
   9.0000000000000011E-003    -17.147409439086914     
   9.2999999999999992E-003    -17.895376205444336     
   9.6000000000000009E-003    -17.809621810913086     
   9.8999999999999991E-003    -16.718648910522461     
   1.0200000000000001E-002    -14.493509292602539     
   1.0500000000000002E-002    -11.066751480102539     
   1.0800000000000004E-002    -6.4489517211914062     
   1.1099999999999999E-002   -0.73930048942565918     
   1.1400000000000000E-002     5.8677825927734375     
   1.1700000000000002E-002     13.086771011352539     
   1.2000000000000004E-002     20.553138732910156     
   1.2300000000000002E-002     27.846494674682617     
   1.2600000000000000E-002     34.518218994140625     
   1.2900000000000002E-002     40.124309539794922     
   1.3200000000000000E-002     44.259544372558594     
   1.3500000000000002E-002     46.594009399414062     
   1.3800000000000003E-002     46.903835296630859     
   1.4100000000000001E-002     45.091526031494141     
   1.4400000000000000E-002     41.194370269775391     
   1.4700000000000001E-002     35.384071350097656     
   1.4999999999999999E-002     27.960493087768555     
   1.5300000000000001E-002     19.325496673583984     
   1.5600000000000003E-002     9.9498291015625000     
   1.5899999999999997E-002    0.33844280242919922     
   1.6199999999999999E-002    -9.0066814422607422     
   1.6500000000000001E-002    -17.620290756225586     
   1.6800000000000002E-002    -25.108337402343750     
   1.7100000000000004E-002    -31.170009613037109     
   1.7400000000000006E-002    -35.612503051757812     
   1.7700000000000000E-002    -38.357944488525391     
   1.8000000000000002E-002    -39.434234619140625     
   1.8300000000000004E-002    -38.963657379150391     
   1.8600000000000005E-002    -37.148067474365234     
   1.8900000000000000E-002    -34.245849609375000     
   1.9200000000000002E-002    -30.544450759887695     
   1.9500000000000003E-002    -26.335983276367188     
   1.9799999999999998E-002    -21.898380279541016     
   2.0100000000000000E-002    -17.481214523315430     
   2.0400000000000001E-002    -13.289346694946289     
   2.0700000000000003E-002    -9.4727697372436523     
   2.0999999999999998E-002    -6.1271228790283203     
   2.1299999999999999E-002    -3.2981240749359131     
   2.1600000000000001E-002   -0.98555254936218262     
   2.1900000000000003E-002    0.85033404827117920     
   2.2200000000000004E-002     2.2785193920135498     
   2.2500000000000006E-002     3.3831231594085693     
   2.2800000000000001E-002     4.2538995742797852     
   2.3100000000000002E-002     4.9774622917175293     
   2.3400000000000004E-002     5.6309113502502441     
   2.3699999999999999E-002     6.2728457450866699     
   2.4000000000000000E-002     6.9413475990295410     
   2.4300000000000002E-002     7.6512160301208496     
   2.4599999999999997E-002     8.3968143463134766     
   2.4900000000000005E-002     9.1542119979858398     
   2.5200000000000000E-002     9.8822097778320312     
   2.5499999999999995E-002     10.532490730285645     
   2.5800000000000003E-002     11.053735733032227     
   2.6099999999999998E-002     11.395387649536133     
   2.6400000000000007E-002     11.514139175415039     
   2.6700000000000002E-002     11.379096984863281     
   2.6999999999999996E-002     10.977542877197266     
   2.7300000000000005E-002     10.312619209289551     
   2.7600000000000000E-002     9.4022703170776367     
   2.7900000000000008E-002     8.2812614440917969     
   2.8200000000000003E-002     7.0006275177001953     
   2.8499999999999998E-002     5.6217389106750488     
   2.8800000000000006E-002     4.2078819274902344     
   2.9100000000000001E-002     2.8222463130950928     
   2.9400000000000003E-002     1.5265861749649048     
   2.9700000000000004E-002    0.37716606259346008     
   3.0000000000000006E-002   -0.58353662490844727     
   3.0300000000000001E-002    -1.3300482034683228     
   3.0600000000000002E-002    -1.8509224653244019     
   3.0900000000000004E-002    -2.1467883586883545     
   3.1199999999999999E-002    -2.2337749004364014     
   3.1500000000000007E-002    -2.1437592506408691     
   3.1800000000000002E-002    -1.9202505350112915     
   3.2099999999999997E-002    -1.6109961271286011     
   3.2400000000000005E-002    -1.2651875019073486     
   3.2700000000000000E-002   -0.93387317657470703     
   3.3000000000000002E-002   -0.66523957252502441     
   3.3300000000000003E-002   -0.49936446547508240     
   3.3599999999999998E-002   -0.46273130178451538     
   3.3900000000000000E-002   -0.56915795803070068     
   3.4200000000000001E-002   -0.82065540552139282     
   3.4500000000000003E-002    -1.2063421010971069     
   3.4799999999999998E-002    -1.7014545202255249     
   3.5099999999999999E-002    -2.2689354419708252     
   3.5400000000000001E-002    -2.8650839328765869     
   3.5699999999999996E-002    -3.4445202350616455     
   3.6000000000000004E-002    -3.9611287117004395     
   3.6299999999999999E-002    -4.3719496726989746     
   3.6600000000000008E-002    -4.6399631500244141     
   3.6900000000000002E-002    -4.7390155792236328     
   3.7199999999999997E-002    -4.6562170982360840     
   3.7500000000000006E-002    -4.3903727531433105     
   3.7800000000000000E-002    -3.9526975154876709     
   3.8100000000000009E-002    -3.3645102977752686     
   3.8400000000000004E-002    -2.6581866741180420     
   3.8699999999999998E-002    -1.8742388486862183     
   3.9000000000000007E-002    -1.0562325716018677     
   3.9300000000000002E-002   -0.24854791164398193     
   3.9600000000000003E-002    0.50707429647445679     
   3.9900000000000005E-002     1.1716371774673462     
   4.0200000000000000E-002     1.7130101919174194     
   4.0500000000000001E-002     2.1088616847991943     
   4.0800000000000003E-002     2.3472805023193359     
   4.1100000000000005E-002     2.4265608787536621     
   4.1399999999999999E-002     2.3538608551025391     
   4.1700000000000008E-002     2.1462919712066650     
   4.2000000000000003E-002     1.8297120332717896     
   4.2299999999999997E-002     1.4359544515609741     
   4.2600000000000006E-002     1.0000913143157959     
   4.2900000000000001E-002    0.55760717391967773     
   4.3200000000000002E-002    0.14326366782188416     
   4.3500000000000004E-002   -0.21229347586631775     
   4.3799999999999999E-002   -0.48404812812805176     
   4.4100000000000000E-002   -0.65467959642410278     
   4.4400000000000002E-002   -0.71564561128616333     
   4.4700000000000004E-002   -0.66685539484024048     
   4.4999999999999998E-002   -0.51617419719696045     
   4.5300000000000000E-002   -0.27858418226242065     
   4.5600000000000002E-002     2.5531265884637833E-002
   4.5899999999999996E-002    0.37139925360679626     
   4.6200000000000005E-002    0.73276335000991821     
   4.6500000000000000E-002     1.0831212997436523     
   4.6799999999999994E-002     1.3982888460159302     
   4.7100000000000003E-002     1.6571328639984131     
   4.7399999999999998E-002     1.8422452211380005     
   4.7700000000000006E-002     1.9403973817825317     
   4.8000000000000001E-002     1.9435100555419922     
   4.8300000000000010E-002     1.8495794534683228     
   4.8600000000000004E-002     1.6605200767517090     
   4.8899999999999999E-002     1.3821455240249634     
   4.9200000000000008E-002     1.0246766805648804     
   4.9500000000000002E-002    0.60323375463485718     
   4.9800000000000011E-002    0.13752780854701996     
   5.0100000000000006E-002   -0.35049670934677124     
   5.0400000000000000E-002   -0.83629310131072998     
   5.0700000000000009E-002    -1.2928639650344849     
   5.1000000000000004E-002    -1.6912451982498169     
   5.1299999999999998E-002    -2.0036151409149170     
   5.1600000000000007E-002    -2.2065093517303467     
   5.1900000000000002E-002    -2.2818033695220947     
   5.2200000000000010E-002    -2.2173275947570801     
   5.2500000000000005E-002    -2.0091178417205811     
   5.2800000000000000E-002    -1.6650789976119995     
   5.3099999999999994E-002    -1.2045342922210693     
   5.3400000000000003E-002   -0.65583646297454834     
   5.3699999999999998E-002    -5.4073415696620941E-002
   5.4000000000000006E-002    0.55878061056137085     
   5.4300000000000001E-002     1.1376326084136963     
   5.4599999999999996E-002     1.6396206617355347     
   5.4900000000000004E-002     2.0284698009490967     
   5.5199999999999999E-002     2.2772729396820068     
   5.5499999999999994E-002     2.3684897422790527     
   5.5800000000000002E-002     2.2977573871612549     
   5.6099999999999997E-002     2.0751011371612549     
   5.6400000000000006E-002     1.7226531505584717     
   5.6700000000000000E-002     1.2707461118698120     
   5.6999999999999995E-002    0.75543731451034546     
   5.7300000000000004E-002    0.21680174767971039     
   5.7599999999999998E-002   -0.30483439564704895     
   5.7900000000000007E-002   -0.77524727582931519     
   5.8200000000000002E-002    -1.1674672365188599     
   5.8499999999999996E-002    -1.4629528522491455     
   5.8800000000000005E-002    -1.6499207019805908     
   5.9100000000000000E-002    -1.7271857261657715     
   5.9400000000000008E-002    -1.7034548521041870     
   5.9700000000000003E-002    -1.5925709009170532     
   6.0000000000000012E-002    -1.4111951589584351     
   6.0300000000000006E-002    -1.1784646511077881     
   6.0600000000000001E-002   -0.91609871387481689     
   6.0900000000000010E-002   -0.64462715387344360     
   6.1200000000000004E-002   -0.38045021891593933     
   6.1500000000000013E-002   -0.13670156896114349     
   6.1800000000000008E-002     7.5233265757560730E-002
   6.2100000000000002E-002    0.24693110585212708     
   6.2399999999999997E-002    0.37455537915229797     
   6.2700000000000006E-002    0.45829844474792480     
   6.3000000000000000E-002    0.50026541948318481     
   6.3300000000000009E-002    0.50396633148193359     
   6.3600000000000004E-002    0.47529718279838562     
   6.3899999999999998E-002    0.42318069934844971     
   6.4199999999999993E-002    0.35645353794097900     
   6.4500000000000002E-002    0.28333061933517456     
   6.4800000000000010E-002    0.21205122768878937     
   6.5100000000000005E-002    0.15067499876022339     
   6.5400000000000000E-002    0.10519190132617950     
   6.5700000000000008E-002     7.8906066715717316E-002
   6.5999999999999989E-002     7.3120899498462677E-002
   6.6299999999999998E-002     8.7838433682918549E-002
   6.6600000000000006E-002    0.12063552439212799     
   6.6900000000000001E-002    0.16622102260589600     
   6.7199999999999996E-002    0.21904343366622925     
   6.7500000000000004E-002    0.27412176132202148     
   6.7800000000000013E-002    0.32558745145797729     
   6.8099999999999994E-002    0.36716061830520630     
   6.8400000000000002E-002    0.39356428384780884     
   6.8700000000000011E-002    0.40250551700592041     
   6.8999999999999992E-002    0.39254701137542725     
   6.9300000000000000E-002    0.36222270131111145     
   6.9600000000000009E-002    0.31091609597206116     
   6.9900000000000004E-002    0.24137380719184875     
   7.0199999999999999E-002    0.15757711231708527     
   7.0500000000000007E-002     6.3129812479019165E-002
   7.0800000000000016E-002    -3.8343604654073715E-002
   7.1099999999999997E-002   -0.14188788831233978     
   7.1400000000000005E-002   -0.24056324362754822     
   7.1700000000000000E-002   -0.32882475852966309     
   7.1999999999999995E-002   -0.40234056115150452     
   7.2300000000000003E-002   -0.45787304639816284     
   7.2600000000000012E-002   -0.49181464314460754     
   7.2900000000000006E-002   -0.50205284357070923     
   7.3200000000000001E-002   -0.48878255486488342     
   7.3499999999999996E-002   -0.45418387651443481     
   7.3800000000000004E-002   -0.40161848068237305     
   7.4099999999999999E-002   -0.33458772301673889     
   7.4400000000000008E-002   -0.25817236304283142     
   7.4700000000000003E-002   -0.17739395797252655     
   7.5000000000000011E-002    -9.7449846565723419E-002
   7.5299999999999992E-002    -2.3504296317696571E-002
   7.5600000000000001E-002     4.0586490184068680E-002
   7.5900000000000009E-002     9.2408165335655212E-002
   7.6200000000000004E-002    0.13066978752613068     
   7.6499999999999999E-002    0.15398712456226349     
   7.6800000000000007E-002    0.16164262592792511     
   7.7099999999999988E-002    0.15517523884773254     
   7.7399999999999997E-002    0.13746190071105957     
   7.7700000000000005E-002    0.11065582185983658     
   7.8000000000000014E-002     7.6350919902324677E-002
   7.8299999999999995E-002     3.7294510751962662E-002
   7.8600000000000003E-002    -2.0529571920633316E-003
   7.8900000000000012E-002    -3.7420261651277542E-002
   7.9199999999999993E-002    -6.6857576370239258E-002
   7.9500000000000001E-002    -8.8433839380741119E-002
   7.9800000000000010E-002    -9.9375635385513306E-002
   8.0100000000000018E-002    -9.7292393445968628E-002
   8.0399999999999999E-002    -8.2149624824523926E-002
   8.0700000000000008E-002    -5.5168785154819489E-002
   8.1000000000000003E-002    -1.8777083605527878E-002
   8.1299999999999997E-002     2.5296889245510101E-002
   8.1600000000000006E-002     7.3758788406848907E-002
   8.1900000000000014E-002    0.12278456240892410     
   8.2199999999999995E-002    0.16815656423568726     
   8.2500000000000004E-002    0.20591828227043152     
   8.2799999999999999E-002    0.23361462354660034     
   8.3100000000000007E-002    0.24951423704624176     
   8.3400000000000002E-002    0.25291308760643005     
   8.3700000000000011E-002    0.24321296811103821     
   8.4000000000000005E-002    0.22093614935874939     
   8.4300000000000000E-002    0.18799826502799988     
   8.4599999999999995E-002    0.14796990156173706     
   8.4900000000000003E-002    0.10384501516819000     
   8.5199999999999998E-002     5.6845903396606445E-002
   8.5500000000000007E-002     9.0428851544857025E-003
   8.5800000000000001E-002    -3.5400908440351486E-002
   8.6100000000000010E-002    -7.3331370949745178E-002
   8.6399999999999991E-002   -0.10440961271524429     
   8.6699999999999999E-002   -0.12913718819618225     
   8.7000000000000008E-002   -0.14576494693756104     
   8.7300000000000003E-002   -0.15142691135406494     
   8.7599999999999997E-002   -0.14698454737663269     
   8.7900000000000006E-002   -0.13525998592376709     
   8.8200000000000014E-002   -0.11757241934537888     
   8.8499999999999995E-002    -9.3109540641307831E-002
   8.8800000000000004E-002    -6.2869802117347717E-002
   8.9100000000000013E-002    -3.1682617962360382E-002
   8.9399999999999993E-002    -3.2510349992662668E-003
   8.9700000000000002E-002     2.1861502900719643E-002
   9.0000000000000011E-002     4.3354231864213943E-002
   9.0299999999999991E-002     5.8108564466238022E-002
   9.0600000000000000E-002     6.2800802290439606E-002
   9.0900000000000009E-002     5.8192051947116852E-002
   9.1200000000000017E-002     4.7054979950189590E-002
   9.1499999999999998E-002     3.0201438814401627E-002
   9.1800000000000007E-002     7.0673115551471710E-003
   9.2100000000000001E-002    -2.0100189372897148E-002
   9.2399999999999996E-002    -4.6832334250211716E-002
   9.2700000000000005E-002    -7.0550248026847839E-002
   9.3000000000000013E-002    -9.1360650956630707E-002
   9.3300000000000008E-002   -0.10842213034629822     
   9.3600000000000003E-002   -0.11901278048753738     
   9.3899999999999997E-002   -0.12150534242391586     
   9.4200000000000006E-002   -0.11796043068170547     
   9.4500000000000001E-002   -0.10944585502147675     
   9.4800000000000009E-002    -9.5318786799907684E-002
   9.5100000000000004E-002    -7.5097069144248962E-002
   9.5399999999999999E-002    -5.0859909504652023E-002
   9.5699999999999993E-002    -2.5472640991210938E-002
   9.6000000000000002E-002     1.0058262851089239E-003
   9.6300000000000011E-002     2.8830407187342644E-002
   9.6600000000000005E-002     5.6022524833679199E-002
   9.6900000000000000E-002     7.9367563128471375E-002
   9.7200000000000009E-002     9.7940318286418915E-002
   9.7499999999999989E-002    0.11206712573766708     
   9.7799999999999998E-002    0.12116390466690063     
   9.8100000000000007E-002    0.12348730862140656     
   9.8400000000000015E-002    0.11843843013048172     
   9.8699999999999996E-002    0.10766576230525970     
   9.9000000000000005E-002     9.2953465878963470E-002
   9.9300000000000013E-002     7.4679948389530182E-002
   9.9599999999999994E-002     5.3761586546897888E-002
   9.9900000000000003E-002     3.1977683305740356E-002
  0.10020000000000001          1.1364769190549850E-002
  0.10049999999999999         -6.7459251731634140E-003
  0.10080000000000000         -2.1914320066571236E-002
  0.10110000000000001         -3.3535249531269073E-002
  0.10140000000000000         -4.1343312710523605E-002
  0.10170000000000000         -4.5259945094585419E-002
  0.10200000000000001         -4.5675903558731079E-002
  0.10230000000000002         -4.2317867279052734E-002
  0.10260000000000000         -3.5801660269498825E-002
  0.10290000000000001         -2.7817944064736366E-002
  0.10320000000000000         -1.8760694190859795E-002
  0.10350000000000001         -7.8175123780965805E-003
  0.10380000000000000          4.1320146992802620E-003
  0.10410000000000001          1.4818455092608929E-002
  0.10440000000000001          2.2699963301420212E-002
  0.10470000000000000          2.8196530416607857E-002
  0.10500000000000000          3.1946104019880295E-002
  0.10530000000000000          3.2023157924413681E-002
  0.10560000000000000          2.6924746111035347E-002
  0.10590000000000001          1.7454221844673157E-002
  0.10620000000000000          6.1142174527049065E-003
  0.10650000000000001         -6.4837173558771610E-003
  0.10679999999999999         -2.0940653979778290E-002
  0.10710000000000000         -3.6482479423284531E-002
  0.10740000000000001         -5.0232183188199997E-002
  0.10770000000000000         -6.0345008969306946E-002
  0.10800000000000000         -6.7473553121089935E-002
  0.10830000000000001         -7.2339981794357300E-002
  0.10859999999999999         -7.3660001158714294E-002
  0.10890000000000000         -7.0442751049995422E-002
  0.10920000000000001         -6.3471525907516479E-002
  0.10950000000000001         -5.4271120578050613E-002
  0.10979999999999999         -4.3140120804309845E-002
  0.11009999999999999         -2.9547885060310364E-002
  0.11040000000000001         -1.4137098565697670E-002
  0.11070000000000001          1.7461441457271576E-003
  0.11100000000000000          1.7509812489151955E-002
  0.11130000000000000          3.3085469156503677E-002
  0.11160000000000002          4.7475777566432953E-002
  0.11190000000000001          5.9437308460474014E-002
  0.11220000000000001          6.8428792059421539E-002
  0.11250000000000000          7.4089556932449341E-002
  0.11280000000000000          7.5817525386810303E-002
  0.11309999999999999          7.2380132973194122E-002
  0.11340000000000001          6.4723931252956390E-002
  0.11369999999999998          5.4281651973724365E-002
  0.11400000000000000          4.1535016149282455E-002
  0.11430000000000000          2.6625050231814384E-002
  0.11460000000000002          1.0745679028332233E-002
  0.11489999999999999         -3.2503081019967794E-003
  0.11520000000000001         -1.4431991614401340E-002
  0.11550000000000001         -2.3311089724302292E-002
  0.11580000000000000         -3.0327424407005310E-002
  0.11609999999999999         -3.4189466387033463E-002
  0.11640000000000002         -3.3741313964128494E-002
  0.11670000000000001         -3.0448762699961662E-002
  0.11700000000000001         -2.6235276833176613E-002
  0.11730000000000000         -2.1142570301890373E-002
  0.11760000000000000         -1.3997017405927181E-002
  0.11789999999999999         -5.1200333982706070E-003
  0.11820000000000001          3.7412948440760374E-003
  0.11850000000000001          1.1385385878384113E-002
  0.11880000000000000          1.8680736422538757E-002
  0.11910000000000000          2.6035109534859657E-002
  0.11940000000000002          3.2644592225551605E-002
  0.11970000000000001          3.6438059061765671E-002
  0.12000000000000001          3.7139374762773514E-002
  0.12030000000000000          3.5232711583375931E-002
  0.12060000000000000          3.1042870134115219E-002
  0.12089999999999999          2.4059073999524117E-002
  0.12119999999999999          1.3816474005579948E-002
  0.12150000000000001          1.3565211556851864E-003
  0.12180000000000001         -1.1868596076965332E-002
  0.12210000000000000         -2.4204714223742485E-002
  0.12239999999999999         -3.5270273685455322E-002
  0.12270000000000002         -4.4740814715623856E-002
  0.12300000000000001         -5.1771480590105057E-002
  0.12330000000000001         -5.5210769176483154E-002
  0.12360000000000000         -5.4443962872028351E-002
  0.12390000000000000         -5.0366923213005066E-002
  0.12419999999999999         -4.4217120856046677E-002
  0.12450000000000001         -3.6207079887390137E-002
  0.12480000000000001         -2.5950420647859573E-002
  0.12509999999999999         -1.4012878760695457E-002
  0.12540000000000001         -2.0092159975320101E-003
  0.12570000000000003          8.7705850601196289E-003
  0.12600000000000000          1.8615074455738068E-002
  0.12630000000000002          2.7884064242243767E-002
  0.12659999999999999          3.5895120352506638E-002
  0.12690000000000001          4.1222166270017624E-002
  0.12719999999999998          4.3225374072790146E-002
  0.12750000000000000          4.2962923645973206E-002
  0.12780000000000002          4.0672849863767624E-002
  0.12809999999999999          3.6033611744642258E-002
  0.12840000000000001          2.8087183833122253E-002
  0.12869999999999998          1.7971247434616089E-002
  0.12900000000000000          7.0993569679558277E-003
  0.12930000000000003         -3.5228359047323465E-003
  0.12959999999999999         -1.3787273317575455E-002
  0.12990000000000002         -2.3641608655452728E-002
  0.13019999999999998         -3.1338065862655640E-002
  0.13050000000000000         -3.5639747977256775E-002
  0.13080000000000003         -3.6733772605657578E-002
  0.13109999999999999         -3.5710278898477554E-002
  0.13140000000000002         -3.2580342143774033E-002
  0.13169999999999998         -2.6871040463447571E-002
  0.13200000000000001         -1.9102176651358604E-002
  0.13229999999999997         -1.0567552410066128E-002
  0.13260000000000000         -2.3418562486767769E-003
  0.13290000000000002          5.3799129091203213E-003
  0.13319999999999999          1.3103869743645191E-002
  0.13350000000000001          1.9752377644181252E-002
  0.13380000000000003          2.4618817493319511E-002
  0.13410000000000000          2.7579903602600098E-002
  0.13440000000000002          2.9039220884442329E-002
  0.13469999999999999          2.8894957154989243E-002
  0.13500000000000001          2.6664217934012413E-002
  0.13529999999999998          2.2497115656733513E-002
  0.13560000000000000          1.7087925225496292E-002
  0.13590000000000002          1.0553739964962006E-002
  0.13619999999999999          2.8110423590987921E-003
  0.13650000000000001         -5.5275824852287769E-003
  0.13680000000000003         -1.2908791191875935E-002
  0.13710000000000000         -1.9398448988795280E-002
  0.13740000000000002         -2.5278694927692413E-002
  0.13769999999999999         -2.9887923970818520E-002
  0.13800000000000001         -3.1775090843439102E-002
  0.13829999999999998         -3.0730847269296646E-002
  0.13860000000000000         -2.8444537892937660E-002
  0.13890000000000002         -2.5524809956550598E-002
  0.13919999999999999         -2.0776588469743729E-002
  0.13950000000000001         -1.3727460987865925E-002
  0.13979999999999998         -6.3833477906882763E-003
  0.14010000000000000         -4.3285451829433441E-004
  0.14040000000000002          5.0448807887732983E-003
  0.14069999999999999          1.1429923586547375E-002
  0.14100000000000001          1.8205085769295692E-002
  0.14130000000000004          2.2766780108213425E-002
  0.14160000000000000          2.5438658893108368E-002
  0.14189999999999997          2.8083976358175278E-002
  0.14219999999999999          3.0702015385031700E-002
  0.14250000000000002          3.1424898654222488E-002
  0.14279999999999998          2.9186937958002090E-002
  0.14310000000000000          2.5410752743482590E-002
  0.14339999999999997          2.1425649523735046E-002
  0.14369999999999999          1.6392569988965988E-002
  0.14400000000000002          8.9649856090545654E-003
  0.14429999999999998          5.4099294357001781E-004
  0.14460000000000001         -7.2733322158455849E-003
  0.14490000000000003         -1.3985867612063885E-002
  0.14520000000000000         -2.0482309162616730E-002
  0.14550000000000002         -2.5998882949352264E-002
  0.14579999999999999         -2.9461719095706940E-002
  0.14610000000000001         -3.0346391722559929E-002
  0.14640000000000003         -2.9272357001900673E-002
  0.14670000000000000         -2.6680134236812592E-002
  0.14699999999999996         -2.2514510899782181E-002
  0.14729999999999999         -1.6937540844082832E-002
  0.14760000000000001         -1.0371739976108074E-002
  0.14789999999999998         -3.4675390925258398E-003
  0.14820000000000000          3.5500759258866310E-003