  -1.4999999999999999E-002     0.0000000000000000     
  -1.4700000000000000E-002     0.0000000000000000     
  -1.4400000000000000E-002     0.0000000000000000     
  -1.4100000000000000E-002     0.0000000000000000     
  -1.3800000000000000E-002     0.0000000000000000     
  -1.3500000000000000E-002     0.0000000000000000     
  -1.3200000000000000E-002     0.0000000000000000     
  -1.2899999999999998E-002     0.0000000000000000     
  -1.2600000000000000E-002     0.0000000000000000     
  -1.2299999999999998E-002     0.0000000000000000     
  -1.2000000000000000E-002     0.0000000000000000     
  -1.1699999999999999E-002     0.0000000000000000     
  -1.1399999999999999E-002     0.0000000000000000     
  -1.1099999999999999E-002     0.0000000000000000     
  -1.0799999999999999E-002     0.0000000000000000     
  -1.0499999999999999E-002     0.0000000000000000     
  -1.0199999999999999E-002     0.0000000000000000     
  -9.8999999999999991E-003     0.0000000000000000     
  -9.5999999999999992E-003     0.0000000000000000     
  -9.2999999999999992E-003     0.0000000000000000     
  -8.9999999999999993E-003     0.0000000000000000     
  -8.6999999999999994E-003     0.0000000000000000     
  -8.3999999999999995E-003     0.0000000000000000     
  -8.0999999999999996E-003     0.0000000000000000     
  -7.7999999999999988E-003     0.0000000000000000     
  -7.4999999999999997E-003     0.0000000000000000     
  -7.1999999999999998E-003     0.0000000000000000     
  -6.8999999999999981E-003     0.0000000000000000     
  -6.5999999999999982E-003     0.0000000000000000     
  -6.3000000000000000E-003     0.0000000000000000     
  -6.0000000000000001E-003     0.0000000000000000     
  -5.6999999999999985E-003     0.0000000000000000     
  -5.3999999999999986E-003     0.0000000000000000     
  -5.1000000000000004E-003     0.0000000000000000     
  -4.7999999999999987E-003     0.0000000000000000     
  -4.5000000000000005E-003     0.0000000000000000     
  -4.1999999999999989E-003     0.0000000000000000     
  -3.8999999999999990E-003     0.0000000000000000     
  -3.5999999999999990E-003     0.0000000000000000     
  -3.2999999999999991E-003     0.0000000000000000     
  -2.9999999999999992E-003     0.0000000000000000     
  -2.6999999999999993E-003     0.0000000000000000     
  -2.3999999999999994E-003     0.0000000000000000     
  -2.0999999999999977E-003     0.0000000000000000     
  -1.7999999999999995E-003     0.0000000000000000     
  -1.4999999999999979E-003     0.0000000000000000     
  -1.1999999999999997E-003     0.0000000000000000     
  -8.9999999999999976E-004     0.0000000000000000     
  -5.9999999999999810E-004     0.0000000000000000     
  -2.9999999999999992E-004     0.0000000000000000     
   0.0000000000000000          0.0000000000000000     
   3.0000000000000165E-004     0.0000000000000000     
   5.9999999999999984E-004     0.0000000000000000     
   9.0000000000000149E-004     0.0000000000000000     
   1.2000000000000031E-003     0.0000000000000000     
   1.5000000000000013E-003     0.0000000000000000     
   1.8000000000000030E-003     0.0000000000000000     
   2.1000000000000012E-003     0.0000000000000000     
   2.3999999999999994E-003     0.0000000000000000     
   2.7000000000000010E-003     0.0000000000000000     
   2.9999999999999992E-003     0.0000000000000000     
   3.3000000000000008E-003     0.0000000000000000     
   3.6000000000000025E-003     0.0000000000000000     
   3.9000000000000007E-003     0.0000000000000000     
   4.2000000000000023E-003     0.0000000000000000     
   4.5000000000000005E-003     0.0000000000000000     
   4.7999999999999987E-003     0.0000000000000000     
   5.1000000000000004E-003     0.0000000000000000     
   5.4000000000000020E-003     0.0000000000000000     
   5.7000000000000037E-003     0.0000000000000000     
   5.9999999999999984E-003     0.0000000000000000     
   6.3000000000000000E-003     0.0000000000000000     
   6.6000000000000017E-003     0.0000000000000000     
   6.9000000000000034E-003     0.0000000000000000     
   7.2000000000000015E-003     0.0000000000000000     
   7.5000000000000032E-003     0.0000000000000000     
   7.8000000000000014E-003     0.0000000000000000     
   8.0999999999999996E-003     0.0000000000000000     
   8.4000000000000012E-003     0.0000000000000000     
   8.7000000000000029E-003     0.0000000000000000     
   9.0000000000000011E-003     0.0000000000000000     
   9.2999999999999992E-003     0.0000000000000000     
   9.6000000000000009E-003     0.0000000000000000     
   9.8999999999999991E-003     0.0000000000000000     
   1.0200000000000001E-002    -6.5230080297758282E-037
   1.0500000000000002E-002    -1.9921587195627540E-036
   1.0800000000000004E-002     4.5648219507349666E-035
   1.1099999999999999E-002    -1.8806941896615835E-034
   1.1400000000000000E-002     3.7167003085377270E-034
   1.1700000000000002E-002    -9.3534875280196376E-034
   1.2000000000000004E-002    -7.0640423841253404E-034
   1.2300000000000002E-002     7.7402982230106559E-033
   1.2600000000000000E-002    -1.5032324614071110E-032
   1.2900000000000002E-002     8.7064238056400473E-034
   1.3200000000000000E-002     5.7853153479956718E-032
   1.3500000000000002E-002    -1.1826306594766945E-031
   1.3800000000000003E-002     1.4961260103092148E-032
   1.4100000000000001E-002     4.0430831971956172E-031
   1.4400000000000000E-002    -8.3279956750107599E-031
   1.4700000000000001E-002     1.9401899839064961E-031
   1.4999999999999999E-002     2.4268404368771472E-030
   1.5300000000000001E-002    -5.1635660110717387E-030
   1.5600000000000003E-002     1.8128458832053627E-030
   1.5899999999999997E-002     1.2592946471997527E-029
   1.6199999999999999E-002    -2.7860027111550733E-029
   1.6500000000000001E-002     1.2586171862954868E-029
   1.6800000000000002E-002     5.6013902984366349E-029
   1.7100000000000004E-002    -1.2968191502633121E-028
   1.7400000000000006E-002     7.2861607118656697E-029
   1.7700000000000000E-002     2.0413099999430447E-028
   1.8000000000000002E-002    -5.1508832658591350E-028
   1.8300000000000004E-002     3.8133990677850586E-028
   1.8600000000000005E-002     5.1134557062848856E-028
   1.8900000000000000E-002    -1.7088416247648343E-027
   1.9200000000000002E-002     1.9889398240057753E-027
   1.9500000000000003E-002    -5.6980659631137979E-029
   1.9799999999999998E-002    -4.7324959780774018E-027
   2.0100000000000000E-002     1.0860024674304121E-026
   2.0400000000000001E-002    -1.0321764232702820E-026
   2.0700000000000003E-002    -1.2587378915473388E-026
   2.0999999999999998E-002     5.9742735142368845E-026
   2.1299999999999999E-002    -7.4031274111023879E-026
   2.1600000000000001E-002    -5.1972861982346133E-026
   2.1900000000000003E-002     3.0482529545635833E-025
   2.2200000000000004E-002    -3.3299524721086449E-025
   2.2500000000000006E-002    -3.2399703133975115E-025
   2.2800000000000001E-002     1.3030444861562066E-024
   2.3100000000000002E-002    -9.1431010231946212E-025
   2.3400000000000004E-002    -1.8991043348747427E-024
   2.3699999999999999E-002     4.0795141019685826E-024
   2.4000000000000000E-002     2.7431499061128773E-025
   2.4300000000000002E-002    -1.2428984766909226E-023
   2.4599999999999997E-002     3.3013522805468118E-023
   2.4900000000000005E-002    -6.6824773312731933E-023
   2.5200000000000000E-002    -5.7241608994572938E-023
   2.5499999999999995E-002     1.2169164718750292E-021
   2.5800000000000003E-002    -4.3189171771892792E-021
   2.6099999999999998E-002     3.1025963520956771E-021
   2.6400000000000007E-002     2.9219431355399719E-020
   2.6700000000000002E-002    -1.1703509653313709E-019
   2.6999999999999996E-002     1.2671966252142258E-019
   2.7300000000000005E-002     4.5538422711121498E-019
   2.7600000000000000E-002    -2.0699301474077960E-018
   2.7900000000000008E-002     2.7612479987102140E-018
   2.8200000000000003E-002     4.6326576942374273E-018
   2.8499999999999998E-002    -2.7408649449279273E-017
   2.8800000000000006E-002     4.8797846024006060E-017
   2.9100000000000001E-002     1.0190931321102305E-017
   2.9400000000000003E-002    -2.9665748731739648E-016
   2.9700000000000004E-002     8.4908684333271441E-016
   3.0000000000000006E-002    -8.4106994118474847E-016
   3.0300000000000001E-002    -2.8409343172890568E-015
   3.0600000000000002E-002     1.3990057789808278E-014
   3.0900000000000004E-002    -2.1548558835730869E-014
   3.1199999999999999E-002    -2.8012917777531926E-014
   3.1500000000000007E-002     1.9326828006906160E-013
   3.1800000000000002E-002    -2.9688857166969285E-013
   3.2099999999999997E-002    -3.2962871256321524E-013
   3.2400000000000005E-002     2.0692328059346288E-012
   3.2700000000000000E-002    -2.5187191741993242E-012
   3.3000000000000002E-002    -3.8957261895566919E-012
   3.3300000000000003E-002     1.6025404961372836E-011
   3.3599999999999998E-002    -1.1457668147585309E-011
   3.3900000000000000E-002    -3.4575509122447556E-011
   3.4200000000000001E-002     7.7751353966259984E-011
   3.4500000000000003E-002     2.9956202449166192E-012
   3.4799999999999998E-002    -1.8092752296361425E-010
   3.5099999999999999E-002     7.6047945718471510E-011
   3.5400000000000001E-002     4.3926184911668997E-010
   3.5699999999999996E-002     3.5114591789842109E-011
   3.6000000000000004E-002    -3.0982376664212552E-009
   3.6299999999999999E-002     2.6917335027576428E-009
   3.6600000000000008E-002     1.8045934524479890E-008
   3.6900000000000002E-002    -4.2034752567587930E-008
   3.7199999999999997E-002    -6.7894006861024536E-008
   3.7500000000000006E-002     3.0113105253803951E-007
   3.7800000000000000E-002     1.2771205604167335E-007
   3.8100000000000009E-002    -1.6771481341493200E-006
   3.8400000000000004E-002     1.3457671457217657E-006
   3.8699999999999998E-002     2.1109181034262292E-005
   3.9000000000000007E-002     5.3038427722640336E-005
   3.9300000000000002E-002     7.3858165706042200E-005
   3.9600000000000003E-002     7.9518242273479700E-005
   3.9900000000000005E-002     9.7636650025378913E-005
   4.0200000000000000E-002     1.4881721290294081E-004
   4.0500000000000001E-002     2.3380768834613264E-004
   4.0800000000000003E-002     3.5704541369341314E-004
   4.1100000000000005E-002     5.2520813187584281E-004
   4.1399999999999999E-002     7.4622692773118615E-004
   4.1700000000000008E-002     1.0507319821044803E-003
   4.2000000000000003E-002     1.4732707059010863E-003
   4.2299999999999997E-002     2.0161506254225969E-003
   4.2600000000000006E-002     2.6762008201330900E-003
   4.2900000000000001E-002     3.4778243862092495E-003
   4.3200000000000002E-002     4.4269007630646229E-003
   4.3500000000000004E-002     5.4581100121140480E-003
   4.3799999999999999E-002     6.4647826366126537E-003
   4.4100000000000000E-002     7.3234885931015015E-003
   4.4400000000000002E-002     7.8277681022882462E-003
   4.4700000000000004E-002     7.6422984711825848E-003
   4.4999999999999998E-002     6.3329292461276054E-003
   4.5300000000000000E-002     3.3661948982626200E-003
   4.5600000000000002E-002    -1.9214912317693233E-003
   4.5899999999999996E-002    -1.0311566293239594E-002
   4.6200000000000005E-002    -2.2664358839392662E-002
   4.6500000000000000E-002    -3.9823096245527267E-002
   4.6799999999999994E-002    -6.2485784292221069E-002
   4.7100000000000003E-002    -9.1158300638198853E-002
   4.7399999999999998E-002   -0.12605465948581696     
   4.7700000000000006E-002   -0.16682137548923492     
   4.8000000000000001E-002   -0.21232618391513824     
   4.8300000000000010E-002   -0.26061075925827026     
   4.8600000000000004E-002   -0.30880102515220642     
   4.8899999999999999E-002   -0.35296818614006042     
   4.9200000000000008E-002   -0.38819277286529541     
   4.9500000000000002E-002   -0.40883591771125793     
   4.9800000000000011E-002   -0.40881448984146118     
   5.0100000000000006E-002   -0.38197964429855347     
   5.0400000000000000E-002   -0.32278144359588623     
   5.0700000000000009E-002   -0.22691079974174500     
   5.1000000000000004E-002    -9.1894328594207764E-002
   5.1299999999999998E-002     8.2100205123424530E-002
   5.1600000000000007E-002    0.29183471202850342     
   5.1900000000000002E-002    0.53068649768829346     
   5.2200000000000010E-002    0.78853297233581543     
   5.2500000000000005E-002     1.0520621538162231     
   5.2800000000000000E-002     1.3054723739624023     
   5.3099999999999994E-002     1.5313420295715332     
   5.3400000000000003E-002     1.7119290828704834     
   5.3699999999999998E-002     1.8306131362915039     
   5.4000000000000006E-002     1.8733099699020386     
   5.4300000000000001E-002     1.8300004005432129     
   5.4599999999999996E-002     1.6958522796630859     
   5.4900000000000004E-002     1.4718924760818481     
   5.5199999999999999E-002     1.1655303239822388     
   5.5499999999999994E-002    0.79019558429718018     
   5.5800000000000002E-002    0.36449337005615234     
   5.6099999999999997E-002    -8.8918522000312805E-002
   5.6400000000000006E-002   -0.54509645700454712     
   5.6700000000000000E-002   -0.97867000102996826     
   5.6999999999999995E-002    -1.3658841848373413     
   5.7300000000000004E-002    -1.6863257884979248     
   5.7599999999999998E-002    -1.9244817495346069     
   5.7900000000000007E-002    -2.0709705352783203     
   5.8200000000000002E-002    -2.1229197978973389     
   5.8499999999999996E-002    -2.0842046737670898     
   5.8800000000000005E-002    -1.9647600650787354     
   5.9100000000000000E-002    -1.7794048786163330     
   5.9400000000000008E-002    -1.5467092990875244     
   5.9700000000000003E-002    -1.2873741388320923     
   6.0000000000000012E-002    -1.0221747159957886     
   6.0300000000000006E-002   -0.77081674337387085     
   6.0600000000000001E-002   -0.55024963617324829     
   6.0900000000000010E-002   -0.37357646226882935     
   6.1200000000000004E-002   -0.24951618909835815     
   6.1500000000000013E-002   -0.18191300332546234     
   6.1800000000000008E-002   -0.16977250576019287     
   6.2100000000000002E-002   -0.20789425075054169     
   6.2399999999999997E-002   -0.28701066970825195     
   6.2700000000000006E-002   -0.39500066637992859     
   6.3000000000000000E-002   -0.51773345470428467     
   6.3300000000000009E-002   -0.63988190889358521     
   6.3600000000000004E-002   -0.74608510732650757     
   6.3899999999999998E-002   -0.82180327177047729     
   6.4199999999999993E-002   -0.85404539108276367     
   6.4500000000000002E-002   -0.83235293626785278     
   6.4800000000000010E-002   -0.74939203262329102     
   6.5100000000000005E-002   -0.60112726688385010     
   6.5400000000000000E-002   -0.38768330216407776     
   6.5700000000000008E-002   -0.11338986456394196     
   6.5999999999999989E-002    0.21373154222965240     
   6.6299999999999998E-002    0.58164495229721069     
   6.6600000000000006E-002    0.97499853372573853     
   6.6900000000000001E-002     1.3764314651489258     
   6.7199999999999996E-002     1.7666783332824707     
   6.7500000000000004E-002     2.1261365413665771     
   6.7800000000000013E-002     2.4363474845886230     
   6.8099999999999994E-002     2.6805508136749268     
   6.8400000000000002E-002     2.8448989391326904     
   6.8700000000000011E-002     2.9196202754974365     
   6.8999999999999992E-002     2.8992407321929932     
   6.9300000000000000E-002     2.7826583385467529     
   6.9600000000000009E-002     2.5735526084899902     
   6.9900000000000004E-002     2.2797579765319824     
   7.0199999999999999E-002     1.9123549461364746     
   7.0500000000000007E-002     1.4856220483779907     
   7.0800000000000016E-002     1.0157053470611572     
   7.1099999999999997E-002    0.51964479684829712     
   7.1400000000000005E-002     1.5268908813595772E-002
   7.1700000000000000E-002   -0.47981655597686768     
   7.1999999999999995E-002   -0.94955891370773315     
   7.2300000000000003E-002    -1.3786617517471313     
   7.2600000000000012E-002    -1.7532612085342407     
   7.2900000000000006E-002    -2.0626709461212158     
   7.3200000000000001E-002    -2.2979452610015869     
   7.3499999999999996E-002    -2.4525086879730225     
   7.3800000000000004E-002    -2.5237994194030762     
   7.4099999999999999E-002    -2.5116367340087891     
   7.4400000000000008E-002    -2.4188947677612305     
   7.4700000000000003E-002    -2.2525982856750488     
   7.5000000000000011E-002    -2.0216426849365234     
   7.5299999999999992E-002    -1.7375044822692871     
   7.5600000000000001E-002    -1.4141876697540283     
   7.5900000000000009E-002    -1.0659539699554443     
   7.6200000000000004E-002   -0.70729494094848633     
   7.6499999999999999E-002   -0.35267278552055359     
   7.6800000000000007E-002    -1.4350172132253647E-002
   7.7099999999999988E-002    0.29739898443222046     
   7.7399999999999997E-002    0.57428669929504395     
   7.7700000000000005E-002    0.81081509590148926     
   7.8000000000000014E-002     1.0040860176086426     
   7.8299999999999995E-002     1.1528582572937012     
   7.8600000000000003E-002     1.2571977376937866     
   7.8900000000000012E-002     1.3183386325836182     
   7.9199999999999993E-002     1.3378815650939941     
   7.9500000000000001E-002     1.3169589042663574     
   7.9800000000000010E-002     1.2567708492279053     
   8.0100000000000018E-002     1.1587929725646973     
   8.0399999999999999E-002     1.0241791009902954     
   8.0700000000000008E-002    0.85515266656875610     
   8.1000000000000003E-002    0.65572375059127808     
   8.1299999999999997E-002    0.43118149042129517     
   8.1600000000000006E-002    0.18955361843109131     
   8.1900000000000014E-002    -5.8386091142892838E-002
   8.2199999999999995E-002   -0.30057758092880249     
   8.2500000000000004E-002   -0.52276188135147095     
   8.2799999999999999E-002   -0.70997959375381470     
   8.3100000000000007E-002   -0.84868216514587402     
   8.3400000000000002E-002   -0.92685765027999878     
   8.3700000000000011E-002   -0.93547654151916504     
   8.4000000000000005E-002   -0.87086713314056396     
   8.4300000000000000E-002   -0.73404395580291748     
   8.4599999999999995E-002   -0.53108799457550049     
   8.4900000000000003E-002   -0.27412655949592590     
   8.5199999999999998E-002     2.0312227308750153E-002
   8.5500000000000007E-002    0.33292081952095032     
   8.5800000000000001E-002    0.64188373088836670     
   8.6100000000000010E-002    0.92537063360214233     
   8.6399999999999991E-002     1.1638119220733643     
   8.6699999999999999E-002     1.3401728868484497     
   8.7000000000000008E-002     1.4420235157012939     
   8.7300000000000003E-002     1.4629563093185425     
   8.7599999999999997E-002     1.4020357131958008     
   8.7900000000000006E-002     1.2639935016632080     
   8.8200000000000014E-002     1.0594569444656372     
   8.8499999999999995E-002    0.80288302898406982     
   8.8800000000000004E-002    0.51182353496551514     
   8.9100000000000013E-002    0.20606432855129242     
   8.9399999999999993E-002    -9.4792746007442474E-002
   8.9700000000000002E-002   -0.37225243449211121     
   9.0000000000000011E-002   -0.60994571447372437     
   9.0299999999999991E-002   -0.79523330926895142     
   9.0600000000000000E-002   -0.91931247711181641     
   9.0900000000000009E-002   -0.97766768932342529     
   9.1200000000000017E-002   -0.97053253650665283     
   9.1499999999999998E-002   -0.90208667516708374     
   9.1800000000000007E-002   -0.78043699264526367     
   9.2100000000000001E-002   -0.61670094728469849     
   9.2399999999999996E-002   -0.42402523756027222     
   9.2700000000000005E-002   -0.21727076172828674     
   9.3000000000000013E-002    -1.1633297428488731E-002
   9.3300000000000008E-002    0.17809638381004333     
   9.3600000000000003E-002    0.33781507611274719     
   9.3899999999999997E-002    0.45565518736839294     
   9.4200000000000006E-002    0.52201759815216064     
   9.4500000000000001E-002    0.52969497442245483     
   9.4800000000000009E-002    0.47510576248168945     
   9.5100000000000004E-002    0.35800021886825562     
   9.5399999999999999E-002    0.18121711909770966     
   9.5699999999999993E-002    -4.8652898520231247E-002
   9.6000000000000002E-002   -0.32173281908035278     
   9.6300000000000011E-002   -0.62571376562118530     
   9.6600000000000005E-002   -0.94602334499359131     
   9.6900000000000000E-002    -1.2662281990051270     
   9.7200000000000009E-002    -1.5695543289184570     
   9.7499999999999989E-002    -1.8397951126098633     
   9.7799999999999998E-002    -2.0614199638366699     
   9.8100000000000007E-002    -2.2218627929687500     
   9.8400000000000015E-002    -2.3118774890899658     
   9.8699999999999996E-002    -2.3250842094421387     
   9.9000000000000005E-002    -2.2602598667144775     
   9.9300000000000013E-002    -2.1206967830657959     
   9.9599999999999994E-002    -1.9124592542648315     
   9.9900000000000003E-002    -1.6462557315826416     
  0.10020000000000001         -1.3355270624160767     
  0.10049999999999999        -0.99363225698471069     
  0.10080000000000000        -0.63570815324783325     
  0.10110000000000001        -0.27578911185264587     
  0.10140000000000000          7.5215809047222137E-002
  0.10170000000000000         0.40751114487648010     
  0.10200000000000001         0.71484094858169556     
  0.10230000000000002         0.99494224786758423     
  0.10260000000000000          1.2465864419937134     
  0.10290000000000001          1.4711823463439941     
  0.10320000000000000          1.6712768077850342     
  0.10350000000000001          1.8482935428619385     
  0.10380000000000000          2.0029780864715576     
  0.10410000000000001          2.1341114044189453     
  0.10440000000000001          2.2375569343566895     
  0.10470000000000000          2.3072333335876465     
  0.10500000000000000          2.3350141048431396     
  0.10530000000000000          2.3119385242462158     
  0.10560000000000000          2.2294282913208008     
  0.10590000000000001          2.0805113315582275     
  0.10620000000000000          1.8619040250778198     
  0.10650000000000001          1.5741450786590576     
  0.10679999999999999          1.2231156826019287     
  0.10710000000000000         0.82027053833007812     
  0.10740000000000001         0.38175725936889648     
  0.10770000000000000         -7.2050482034683228E-002
  0.10800000000000000        -0.51785129308700562     
  0.10830000000000001        -0.93202227354049683     
  0.10859999999999999         -1.2914234399795532     
  0.10890000000000000         -1.5755530595779419     
  0.10920000000000001         -1.7689771652221680     
  0.10950000000000001         -1.8613274097442627     
  0.10979999999999999         -1.8482478857040405     
  0.11009999999999999         -1.7322460412979126     
  0.11040000000000001         -1.5214693546295166     
  0.11070000000000001         -1.2285885810852051     
  0.11100000000000000        -0.87014526128768921     
  0.11130000000000000        -0.46513101458549500     
  0.11160000000000002         -3.2907888293266296E-002
  0.11190000000000001         0.40783220529556274     
  0.11220000000000001         0.83956480026245117     
  0.11250000000000000          1.2479215860366821     
  0.11280000000000000          1.6217081546783447     
  0.11309999999999999          1.9521222114562988     
  0.11340000000000001          2.2341895103454590     
  0.11369999999999998          2.4656193256378174     
  0.11400000000000000          2.6453649997711182     
  0.11430000000000000          2.7749698162078857     
  0.11460000000000002          2.8564174175262451     
  0.11489999999999999          2.8910696506500244     
  0.11520000000000001          2.8809406757354736     
  0.11550000000000001          2.8265361785888672     
  0.11580000000000000          2.7267956733703613     
  0.11609999999999999          2.5806744098663330     
  0.11640000000000002          2.3853206634521484     
  0.11670000000000001          2.1372039318084717     
  0.11700000000000001          1.8335953950881958     
  0.11730000000000000          1.4722285270690918     
  0.11760000000000000          1.0521446466445923     
  0.11789999999999999         0.57582598924636841     
  0.11820000000000001          4.8612728714942932E-002
  0.11850000000000001        -0.52083170413970947     
  0.11880000000000000         -1.1190772056579590     
  0.11910000000000000         -1.7295423746109009     
  0.11940000000000002         -2.3324429988861084     
  0.11970000000000001         -2.9054403305053711     
  0.12000000000000001         -3.4261503219604492     
  0.12030000000000000         -3.8728032112121582     
  0.12060000000000000         -4.2264113426208496     
  0.12089999999999999         -4.4720988273620605     
  0.12119999999999999         -4.6006684303283691     
  0.12150000000000001         -4.6098451614379883     
  0.12180000000000001         -4.5045824050903320     
  0.12210000000000000         -4.2965769767761230     
  0.12239999999999999         -4.0041341781616211     
  0.12270000000000002         -3.6503360271453857     
  0.12300000000000001         -3.2615473270416260     
  0.12330000000000001         -2.8650081157684326     
  0.12360000000000000         -2.4867413043975830     
  0.12390000000000000         -2.1489310264587402     
  0.12419999999999999         -1.8677495718002319     
  0.12450000000000001         -1.6528484821319580     
  0.12480000000000001         -1.5055353641510010     
  0.12509999999999999         -1.4186671972274780     
  0.12540000000000001         -1.3780535459518433     
  0.12570000000000003         -1.3628699779510498     
  0.12600000000000000         -1.3481715917587280     
  0.12630000000000002         -1.3080132007598877     
  0.12659999999999999         -1.2161308526992798     
  0.12690000000000001         -1.0505400896072388     
  0.12719999999999998        -0.79540938138961792     
  0.12750000000000000        -0.44197547435760498     
  0.12780000000000002          8.7700858712196350E-003
  0.12809999999999999         0.54647105932235718     
  0.12840000000000001          1.1520552635192871     
  0.12869999999999998          1.7981737852096558     
  0.12900000000000000          2.4517908096313477     
  0.12930000000000003          3.0766611099243164     
  0.12959999999999999          3.6355125904083252     
  0.12990000000000002          4.0937590599060059     
  0.13019999999999998          4.4224009513854980     
  0.13050000000000000          4.6001100540161133     
  0.13080000000000003          4.6152181625366211     
  0.13109999999999999          4.4667611122131348     
  0.13140000000000002          4.1656465530395508     
  0.13169999999999998          3.7326419353485107     
  0.13200000000000001          3.1976470947265625     
  0.13229999999999997          2.5976862907409668     
  0.13260000000000000          1.9729030132293701     
  0.13290000000000002          1.3642708063125610     
  0.13319999999999999         0.80960994958877563     
  0.13350000000000001         0.34028932452201843     
  0.13380000000000003         -2.0804271101951599E-002
  0.13410000000000000        -0.26180326938629150     
  0.13440000000000002        -0.38327845931053162     
  0.13469999999999999        -0.39617747068405151     
  0.13500000000000001        -0.32231035828590393     
  0.13529999999999998        -0.19205252826213837     
  0.13560000000000000         -3.9785318076610565E-002
  0.13590000000000002          9.8636046051979065E-002
  0.13619999999999999         0.18912248313426971     
  0.13650000000000001         0.20371614396572113     
  0.13680000000000003         0.12299480289220810     
  0.13710000000000000         -6.2001362442970276E-002
  0.13740000000000002        -0.34967553615570068     
  0.13769999999999999        -0.72646880149841309     
  0.13800000000000001         -1.1689532995223999     
  0.13829999999999998         -1.6475926637649536     
  0.13860000000000000         -2.1269867420196533     
  0.13890000000000002         -2.5701682567596436     
  0.13919999999999999         -2.9429557323455811     
  0.13950000000000001         -3.2146587371826172     
  0.13979999999999998         -3.3614923954010010     
  0.14010000000000000         -3.3698005676269531     
  0.14040000000000002         -3.2339100837707520     
  0.14069999999999999         -2.9587578773498535     
  0.14100000000000001         -2.5586323738098145     
  0.14130000000000004         -2.0549783706665039     
  0.14160000000000000         -1.4756138324737549     
  0.14189999999999997        -0.85222899913787842     
  0.14219999999999999        -0.21650283038616180     
  0.14250000000000002         0.40059751272201538     
  0.14279999999999998         0.97246742248535156     
  0.14310000000000000          1.4789642095565796     
  0.14339999999999997          1.9067140817642212     
  0.14369999999999999          2.2511200904846191     
  0.14400000000000002          2.5149176120758057     
  0.14429999999999998          2.7068953514099121     
  0.14460000000000001          2.8394842147827148     
  0.14490000000000003          2.9264430999755859     
  0.14520000000000000          2.9785573482513428     
  0.14550000000000002          3.0006394386291504     
  0.14579999999999999          2.9896869659423828     
  0.14610000000000001          2.9335730075836182     
  0.14640000000000003          2.8108642101287842     
  0.14670000000000000          2.5956296920776367     
  0.14699999999999996          2.2595143318176270     
  0.14729999999999999          1.7791025638580322     
  0.14760000000000001          1.1438729763031006     
  0.14789999999999998         0.36072260141372681     
  0.14820000000000000        -0.53942364454269409     