  -1.4999999999999999E-002     0.0000000000000000     
  -1.4700000000000000E-002     0.0000000000000000     
  -1.4400000000000000E-002     0.0000000000000000     
  -1.4100000000000000E-002     0.0000000000000000     
  -1.3800000000000000E-002     0.0000000000000000     
  -1.3500000000000000E-002     0.0000000000000000     
  -1.3200000000000000E-002     0.0000000000000000     
  -1.2899999999999998E-002     0.0000000000000000     
  -1.2600000000000000E-002     0.0000000000000000     
  -1.2299999999999998E-002     0.0000000000000000     
  -1.2000000000000000E-002     0.0000000000000000     
  -1.1699999999999999E-002     0.0000000000000000     
  -1.1399999999999999E-002     0.0000000000000000     
  -1.1099999999999999E-002     0.0000000000000000     
  -1.0799999999999999E-002     0.0000000000000000     
  -1.0499999999999999E-002     0.0000000000000000     
  -1.0199999999999999E-002     0.0000000000000000     
  -9.8999999999999991E-003     0.0000000000000000     
  -9.5999999999999992E-003     0.0000000000000000     
  -9.2999999999999992E-003     3.3141414487292435E-036
  -8.9999999999999993E-003    -5.2768773667596418E-035
  -8.6999999999999994E-003     1.3808615938999656E-034
  -8.3999999999999995E-003    -6.1379912635842780E-035
  -8.0999999999999996E-003    -1.8391433342192706E-034
  -7.7999999999999988E-003    -1.8237455061672006E-033
  -7.4999999999999997E-003     1.2829242489118749E-033
  -7.1999999999999998E-003     2.6832057395796191E-032
  -6.8999999999999981E-003     8.1592936334696599E-033
  -6.5999999999999982E-003    -2.6711877204356822E-031
  -6.3000000000000000E-003    -4.9634402607538498E-032
  -6.0000000000000001E-003     1.3932426422499638E-030
  -5.6999999999999985E-003     3.7141775268468395E-031
  -5.3999999999999986E-003    -1.0048975828343428E-030
  -5.1000000000000004E-003    -1.5276855486337356E-029
  -4.7999999999999987E-003    -1.6412693735898495E-029
  -4.5000000000000005E-003     1.6405699600934831E-028
  -4.1999999999999989E-003    -5.8942929466163372E-029
  -3.8999999999999990E-003    -5.6773376606048442E-028
  -3.5999999999999990E-003     1.2369754994733453E-027
  -3.2999999999999991E-003    -3.8889055364407491E-027
  -2.9999999999999992E-003     7.4149365972237882E-027
  -2.6999999999999993E-003     1.2359442795439226E-026
  -2.3999999999999994E-003    -7.5177279465132060E-026
  -2.0999999999999977E-003     1.4322920978171026E-025
  -1.7999999999999995E-003    -1.7593200560142293E-025
  -1.4999999999999979E-003    -2.8360245958963265E-026
  -1.1999999999999997E-003     1.1652240765192409E-024
  -8.9999999999999976E-004    -3.3603920506431818E-024
  -5.9999999999999810E-004     5.0610874154478458E-024
  -2.9999999999999992E-004    -4.4750596094686184E-024
   0.0000000000000000         -5.8214128551442980E-024
   3.0000000000000165E-004     4.8821881982982859E-023
   5.9999999999999984E-004    -1.3971586174306448E-022
   9.0000000000000149E-004     2.2259877599489671E-022
   1.2000000000000031E-003    -5.1978063977674193E-023
   1.5000000000000013E-003    -9.6451955434712710E-022
   1.8000000000000030E-003     3.1939382155233070E-021
   2.1000000000000012E-003    -4.4337628041891709E-021
   2.3999999999999994E-003    -2.1699443549387780E-021
   2.7000000000000010E-003     2.3448605811923521E-020
   2.9999999999999992E-003    -4.8103793487749148E-020
   3.3000000000000008E-003     2.2988463977971025E-020
   3.6000000000000025E-003     1.2384943626874307E-019
   3.9000000000000007E-003    -3.4306935919542931E-019
   4.2000000000000023E-003     2.9267581021868548E-019
   4.5000000000000005E-003     5.0477683584798136E-019
   4.7999999999999987E-003    -1.8704365175365447E-018
   5.1000000000000004E-003     2.0575236789904194E-018
   5.4000000000000020E-003     1.4931090855313196E-018
   5.7000000000000037E-003    -8.3035185758543347E-018
   5.9999999999999984E-003     1.0903836104850520E-017
   6.3000000000000000E-003     1.5042014741480791E-018
   6.6000000000000017E-003    -2.8848244808864511E-017
   6.9000000000000034E-003     4.7453442609313425E-017
   7.2000000000000015E-003    -1.9557815389811934E-017
   7.5000000000000032E-003    -6.9001639841385155E-017
   7.8000000000000014E-003     1.7062887122863782E-016
   8.0999999999999996E-003    -1.7692620384944892E-016
   8.4000000000000012E-003    -3.1786727834342787E-017
   8.7000000000000029E-003     4.8312355855397457E-016
   9.0000000000000011E-003    -9.3017240740086212E-016
   9.2999999999999992E-003     7.1730641031095602E-016
   9.6000000000000009E-003     8.8117599832517393E-016
   9.8999999999999991E-003    -3.5402919406290166E-015
   1.0200000000000001E-002     4.6990232715940061E-015
   1.0500000000000002E-002    -4.1857911857760485E-016
   1.0800000000000004E-002    -1.0112819530893290E-014
   1.1099999999999999E-002     1.9185901036834242E-014
   1.1400000000000000E-002    -1.1958259530438654E-014
   1.1700000000000002E-002    -1.9932311552152415E-014
   1.2000000000000004E-002     5.9406045891958331E-014
   1.2300000000000002E-002    -6.1187152892126784E-014
   1.2600000000000000E-002    -1.4383088700630799E-014
   1.2900000000000002E-002     1.4310647393663001E-013
   1.3200000000000000E-002    -2.1108197926101441E-013
   1.3500000000000002E-002     8.1916427579955403E-014
   1.3800000000000003E-002     2.5200780589922089E-013
   1.4100000000000001E-002    -5.5699455464575109E-013
   1.4400000000000000E-002     4.5727061460248963E-013
   1.4700000000000001E-002     2.2233595715383248E-013
   1.4999999999999999E-002    -1.1219849918933655E-012
   1.5300000000000001E-002     1.4168449399831751E-012
   1.5600000000000003E-002    -4.4662494189107171E-013
   1.5899999999999997E-002    -1.5098298045829184E-012
   1.6199999999999999E-002     3.1055199644497433E-012
   1.6500000000000001E-002    -2.7678267663922007E-012
   1.6800000000000002E-002    -1.3357289449858478E-013
   1.7100000000000004E-002     4.6428056711678156E-012
   1.7400000000000006E-002    -8.1525177234031965E-012
   1.7700000000000000E-002     6.7795721293839595E-012
   1.8000000000000002E-002     2.5374090849294983E-012
   1.8300000000000004E-002    -1.7109284475291808E-011
   1.8600000000000005E-002     2.5474322304375185E-011
   1.8900000000000000E-002    -1.3655290440062196E-011
   1.9200000000000002E-002    -2.5380721829781905E-011
   1.9500000000000003E-002     8.3758784630294514E-011
   1.9799999999999998E-002    -9.1099933152705148E-011
   2.0100000000000000E-002    -1.3371961871122551E-010
   2.0400000000000001E-002     5.3815391032330240E-010
   2.0700000000000003E-002    -3.0131772077446328E-011
   2.0999999999999998E-002    -2.4904966977601362E-009
   2.1299999999999999E-002     2.7439248651006665E-009
   2.1600000000000001E-002     9.1298302251630048E-009
   2.1900000000000003E-002    -2.2121476206393709E-008
   2.2200000000000004E-002    -2.1733495003672942E-008
   2.2500000000000006E-002     1.1305290570362558E-007
   2.2800000000000001E-002     8.7693141637146255E-009
   2.3100000000000002E-002    -5.1911558784922818E-007
   2.3400000000000004E-002     2.9900067488597415E-007
   2.3699999999999999E-002     4.8297238208760973E-006
   2.4000000000000000E-002     1.2621324458450545E-005
   2.4300000000000002E-002     2.1373203708208166E-005
   2.4599999999999997E-002     2.9538114176830277E-005
   2.4900000000000005E-002     3.7916033761575818E-005
   2.5200000000000000E-002     5.3902746003586799E-005
   2.5499999999999995E-002     8.6223670223262161E-005
   2.5800000000000003E-002     1.3267855683807284E-004
   2.6099999999999998E-002     1.9172280735801905E-004
   2.6400000000000007E-002     2.7487886836752295E-004
   2.6700000000000002E-002     3.9003623533062637E-004
   2.6999999999999996E-002     5.4375902982428670E-004
   2.7300000000000005E-002     7.5558410026133060E-004
   2.7600000000000000E-002     1.0317848064005375E-003
   2.7900000000000008E-002     1.3583666877821088E-003
   2.8200000000000003E-002     1.7415926558896899E-003
   2.8499999999999998E-002     2.1966723725199699E-003
   2.8800000000000006E-002     2.6870868168771267E-003
   2.9100000000000001E-002     3.1312061473727226E-003
   2.9400000000000003E-002     3.4517447929829359E-003
   2.9700000000000004E-002     3.5454269964247942E-003
   3.0000000000000006E-002     3.1984997913241386E-003
   3.0300000000000001E-002     2.1016986574977636E-003
   3.0600000000000002E-002    -8.1054386100731790E-005
   3.0900000000000004E-002    -3.7759777624160051E-003
   3.1199999999999999E-002    -9.5367906615138054E-003
   3.1500000000000007E-002    -1.7968270927667618E-002
   3.1800000000000002E-002    -2.9732840135693550E-002
   3.2099999999999997E-002    -4.5522388070821762E-002
   3.2400000000000005E-002    -6.5951220691204071E-002
   3.2700000000000000E-002    -9.1495253145694733E-002
   3.3000000000000002E-002   -0.12238670885562897     
   3.3300000000000003E-002   -0.15846626460552216     
   3.3599999999999998E-002   -0.19907273352146149     
   3.3900000000000000E-002   -0.24292963743209839     
   3.4200000000000001E-002   -0.28799152374267578     
   3.4500000000000003E-002   -0.33138972520828247     
   3.4799999999999998E-002   -0.36943230032920837     
   3.5099999999999999E-002   -0.39760470390319824     
   3.5400000000000001E-002   -0.41076031327247620     
   3.5699999999999996E-002   -0.40334680676460266     
   3.6000000000000004E-002   -0.36970728635787964     
   3.6299999999999999E-002   -0.30460977554321289     
   3.6600000000000008E-002   -0.20374715328216553     
   3.6900000000000002E-002    -6.4215883612632751E-002
   3.7199999999999997E-002    0.11478906869888306     
   3.7500000000000006E-002    0.33155846595764160     
   3.7800000000000000E-002    0.58151876926422119     
   3.8100000000000009E-002    0.85686719417572021     
   3.8400000000000004E-002     1.1466330289840698     
   3.8699999999999998E-002     1.4369258880615234     
   3.9000000000000007E-002     1.7114673852920532     
   3.9300000000000002E-002     1.9524250030517578     
   3.9600000000000003E-002     2.1413199901580811     
   3.9900000000000005E-002     2.2603349685668945     
   4.0200000000000000E-002     2.2936286926269531     
   4.0500000000000001E-002     2.2285838127136230     
   4.0800000000000003E-002     2.0571234226226807     
   4.1100000000000005E-002     1.7765921354293823     
   4.1399999999999999E-002     1.3905863761901855     
   4.1700000000000008E-002    0.90895348787307739     
   4.2000000000000003E-002    0.34794196486473083     
   4.2299999999999997E-002   -0.27060282230377197     
   4.2600000000000006E-002   -0.92019289731979370     
   4.2900000000000001E-002    -1.5711266994476318     
   4.3200000000000002E-002    -2.1921942234039307     
   4.3500000000000004E-002    -2.7523272037506104     
   4.3799999999999999E-002    -3.2224605083465576     
   4.4100000000000000E-002    -3.5774021148681641     
   4.4400000000000002E-002    -3.7972350120544434     
   4.4700000000000004E-002    -3.8686499595642090     
   4.4999999999999998E-002    -3.7855224609375000     
   4.5300000000000000E-002    -3.5493352413177490     
   4.5600000000000002E-002    -3.1695020198822021     
   4.5899999999999996E-002    -2.6626877784729004     
   4.6200000000000005E-002    -2.0519695281982422     
   4.6500000000000000E-002    -1.3657126426696777     
   4.6799999999999994E-002   -0.63619357347488403     
   4.7100000000000003E-002    0.10185033082962036     
   4.7399999999999998E-002    0.81309986114501953     
   4.7700000000000006E-002     1.4637349843978882     
   4.8000000000000001E-002     2.0227653980255127     
   4.8300000000000010E-002     2.4639303684234619     
   4.8600000000000004E-002     2.7671325206756592     
   4.8899999999999999E-002     2.9196512699127197     
   4.9200000000000008E-002     2.9169347286224365     
   4.9500000000000002E-002     2.7630231380462646     
   4.9800000000000011E-002     2.4701375961303711     
   5.0100000000000006E-002     2.0581552982330322     
   5.0400000000000000E-002     1.5536371469497681     
   5.0700000000000009E-002    0.98787838220596313     
   5.1000000000000004E-002    0.39501547813415527     
   5.1299999999999998E-002   -0.19000327587127686     
   5.1600000000000007E-002   -0.73371541500091553     
   5.1900000000000002E-002    -1.2060297727584839     
   5.2200000000000010E-002    -1.5822682380676270     
   5.2500000000000005E-002    -1.8445496559143066     
   5.2800000000000000E-002    -1.9826163053512573     
   5.3099999999999994E-002    -1.9941298961639404     
   5.3400000000000003E-002    -1.8844480514526367     
   5.3699999999999998E-002    -1.6661857366561890     
   5.4000000000000006E-002    -1.3578250408172607     
   5.4300000000000001E-002   -0.98247319459915161     
   5.4599999999999996E-002   -0.56615144014358521     
   5.4900000000000004E-002   -0.13613590598106384     
   5.5199999999999999E-002    0.28067865967750549     
   5.5499999999999994E-002    0.65920078754425049     
   5.5800000000000002E-002    0.97732925415039062     
   5.6099999999999997E-002     1.2171658277511597     
   5.6400000000000006E-002     1.3655111789703369     
   5.6700000000000000E-002     1.4144403934478760     
   5.6999999999999995E-002     1.3613929748535156     
   5.7300000000000004E-002     1.2089302539825439     
   5.7599999999999998E-002    0.96492439508438110     
   5.7900000000000007E-002    0.64164018630981445     
   5.8200000000000002E-002    0.25534704327583313     
   5.8499999999999996E-002   -0.17439822852611542     
   5.8800000000000005E-002   -0.62579172849655151     
   5.9100000000000000E-002    -1.0755525827407837     
   5.9400000000000008E-002    -1.5000671148300171     
   5.9700000000000003E-002    -1.8763931989669800     
   6.0000000000000012E-002    -2.1834278106689453     
   6.0300000000000006E-002    -2.4027681350708008     
   6.0600000000000001E-002    -2.5195391178131104     
   6.0900000000000010E-002    -2.5234074592590332     
   6.1200000000000004E-002    -2.4089422225952148     
   6.1500000000000013E-002    -2.1757764816284180     
   6.1800000000000008E-002    -1.8288183212280273     
   6.2100000000000002E-002    -1.3779010772705078     
   6.2399999999999997E-002   -0.83719283342361450     
   6.2700000000000006E-002   -0.22459743916988373     
   6.3000000000000000E-002    0.43938520550727844     
   6.3300000000000009E-002     1.1325172185897827     
   6.3600000000000004E-002     1.8317162990570068     
   6.3899999999999998E-002     2.5144414901733398     
   6.4199999999999993E-002     3.1593587398529053     
   6.4500000000000002E-002     3.7470722198486328     
   6.4800000000000010E-002     4.2604155540466309     
   6.5100000000000005E-002     4.6853389739990234     
   6.5400000000000000E-002     5.0104541778564453     
   6.5700000000000008E-002     5.2274541854858398     
   6.5999999999999989E-002     5.3308339118957520     
   6.6299999999999998E-002     5.3173799514770508     
   6.6600000000000006E-002     5.1867895126342773     
   6.6900000000000001E-002     4.9410476684570312     
   6.7199999999999996E-002     4.5842137336730957     
   6.7500000000000004E-002     4.1230745315551758     
   6.7800000000000013E-002     3.5672404766082764     
   6.8099999999999994E-002     2.9288468360900879     
   6.8400000000000002E-002     2.2229237556457520     
   6.8700000000000011E-002     1.4672614336013794     
   6.8999999999999992E-002    0.68201720714569092     
   6.9300000000000000E-002   -0.11084264516830444     
   6.9600000000000009E-002   -0.88846278190612793     
   6.9900000000000004E-002    -1.6282657384872437     
   7.0199999999999999E-002    -2.3095922470092773     
   7.0500000000000007E-002    -2.9139780998229980     
   7.0800000000000016E-002    -3.4274179935455322     
   7.1099999999999997E-002    -3.8408880233764648     
   7.1400000000000005E-002    -4.1502265930175781     
   7.1700000000000000E-002    -4.3568453788757324     
   7.1999999999999995E-002    -4.4667277336120605     
   7.2300000000000003E-002    -4.4893636703491211     
   7.2600000000000012E-002    -4.4364585876464844     
   7.2900000000000006E-002    -4.3204255104064941     
   7.3200000000000001E-002    -4.1530089378356934     
   7.3499999999999996E-002    -3.9445700645446777     
   7.3800000000000004E-002    -3.7027487754821777     
   7.4099999999999999E-002    -3.4326758384704590     
   7.4400000000000008E-002    -3.1377708911895752     
   7.4700000000000003E-002    -2.8204879760742188     
   7.5000000000000011E-002    -2.4831233024597168     
   7.5299999999999992E-002    -2.1289820671081543     
   7.5600000000000001E-002    -1.7632883787155151     
   7.5900000000000009E-002    -1.3936722278594971     
   7.6200000000000004E-002    -1.0300890207290649     
   7.6499999999999999E-002   -0.68331563472747803     
   7.6800000000000007E-002   -0.36415901780128479     
   7.7099999999999988E-002    -8.1764772534370422E-002
   7.7399999999999997E-002    0.15820731222629547     
   7.7700000000000005E-002    0.35486957430839539     
   7.8000000000000014E-002    0.51350146532058716     
   7.8299999999999995E-002    0.64505255222320557     
   7.8600000000000003E-002    0.76541447639465332     
   7.8900000000000012E-002    0.89386546611785889     
   7.9199999999999993E-002     1.0507173538208008     
   7.9500000000000001E-002     1.2541983127593994     
   7.9800000000000010E-002     1.5177732706069946     
   8.0100000000000018E-002     1.8477053642272949     
   8.0399999999999999E-002     2.2412054538726807     
   8.0700000000000008E-002     2.6857967376708984     
   8.1000000000000003E-002     3.1601374149322510     
   8.1299999999999997E-002     3.6353449821472168     
   8.1600000000000006E-002     4.0777177810668945     
   8.1900000000000014E-002     4.4517731666564941     
   8.2199999999999995E-002     4.7240967750549316     
   8.2500000000000004E-002     4.8658390045166016     
   8.2799999999999999E-002     4.8547930717468262     
   8.3100000000000007E-002     4.6767864227294922     
   8.3400000000000002E-002     4.3256430625915527     
   8.3700000000000011E-002     3.8020439147949219     
   8.4000000000000005E-002     3.1118032932281494     
   8.4300000000000000E-002     2.2637422084808350     
   8.4599999999999995E-002     1.2680500745773315     
   8.4900000000000003E-002    0.13595765829086304     
   8.5199999999999998E-002    -1.1198168992996216     
   8.5500000000000007E-002    -2.4829320907592773     
   8.5800000000000001E-002    -3.9302117824554443     
   8.6100000000000010E-002    -5.4275670051574707     
   8.6399999999999991E-002    -6.9251995086669922     
   8.6699999999999999E-002    -8.3548269271850586     
   8.7000000000000008E-002    -9.6293916702270508     
   8.7300000000000003E-002    -10.644599914550781     
   8.7599999999999997E-002    -11.284568786621094     
   8.7900000000000006E-002    -11.431539535522461     
   8.8200000000000014E-002    -10.978460311889648     
   8.8499999999999995E-002    -9.8438978195190430     
   8.8800000000000004E-002    -7.9872322082519531     
   8.9100000000000013E-002    -5.4219317436218262     
   8.9399999999999993E-002    -2.2255544662475586     
   8.9700000000000002E-002     1.4563484191894531     
   9.0000000000000011E-002     5.4137024879455566     
   9.0299999999999991E-002     9.3815402984619141     
   9.0600000000000000E-002     13.058365821838379     
   9.0900000000000009E-002     16.132343292236328     
   9.1200000000000017E-002     18.307653427124023     
   9.1499999999999998E-002     19.333728790283203     
   9.1800000000000007E-002     19.032159805297852     
   9.2100000000000001E-002     17.319623947143555     
   9.2399999999999996E-002     14.221290588378906     
   9.2700000000000005E-002     9.8741569519042969     
   9.3000000000000013E-002     4.5200376510620117     
   9.3300000000000008E-002    -1.5104939937591553     
   9.3600000000000003E-002    -7.8232116699218750     
   9.3899999999999997E-002    -13.992575645446777     
   9.4200000000000006E-002    -19.596254348754883     
   9.4500000000000001E-002    -24.249156951904297     
   9.4800000000000009E-002    -27.633331298828125     
   9.5100000000000004E-002    -29.520565032958984     
   9.5399999999999999E-002    -29.788007736206055     
   9.5699999999999993E-002    -28.422664642333984     
   9.6000000000000002E-002    -25.516935348510742     
   9.6300000000000011E-002    -21.255018234252930     
   9.6600000000000005E-002    -15.893259048461914     
   9.6900000000000000E-002    -9.7380180358886719     
   9.7200000000000009E-002    -3.1187944412231445     
   9.7499999999999989E-002     3.6347298622131348     
   9.7799999999999998E-002     10.213468551635742     
   9.8100000000000007E-002     16.343076705932617     
   9.8400000000000015E-002     21.796712875366211     
   9.8699999999999996E-002     26.400848388671875     
   9.9000000000000005E-002     30.035041809082031     
   9.9300000000000013E-002     32.626892089843750     
   9.9599999999999994E-002     34.148426055908203     
   9.9900000000000003E-002     34.609970092773438     
  0.10020000000000001          34.054019927978516     
  0.10049999999999999          32.547588348388672     
  0.10080000000000000          30.175106048583984     
  0.10110000000000001          27.037572860717773     
  0.10140000000000000          23.249624252319336     
  0.10170000000000000          18.936779022216797     
  0.10200000000000001          14.228781700134277     
  0.10230000000000002          9.2610340118408203     
  0.10260000000000000          4.1718406677246094     
  0.10290000000000001        -0.90180110931396484     
  0.10320000000000000         -5.8273744583129883     
  0.10350000000000001         -10.484863281250000     
  0.10380000000000000         -14.765600204467773     
  0.10410000000000001         -18.574001312255859     
  0.10440000000000001         -21.831678390502930     
  0.10470000000000000         -24.483831405639648     
  0.10500000000000000         -26.494270324707031     
  0.10530000000000000         -27.845293045043945     
  0.10560000000000000         -28.536869049072266     
  0.10590000000000001         -28.586698532104492     
  0.10620000000000000         -28.030622482299805     
  0.10650000000000001         -26.914861679077148     
  0.10679999999999999         -25.295038223266602     
  0.10710000000000000         -23.234041213989258     
  0.10740000000000001         -20.802120208740234     
  0.10770000000000000         -18.073843002319336     
  0.10800000000000000         -15.122098922729492     
  0.10830000000000001         -12.020085334777832     
  0.10859999999999999         -8.8379955291748047     
  0.10890000000000000         -5.6460456848144531     
  0.10920000000000001         -2.5094730854034424     
  0.10950000000000001         0.51239413022994995     
  0.10979999999999999          3.3656592369079590     
  0.11009999999999999          6.0005259513854980     
  0.11040000000000001          8.3734102249145508     
  0.11070000000000001          10.448949813842773     
  0.11100000000000000          12.199962615966797     
  0.11130000000000000          13.609163284301758     
  0.11160000000000002          14.667930603027344     
  0.11190000000000001          15.378166198730469     
  0.11220000000000001          15.753256797790527     
  0.11250000000000000          15.817946434020996     
  0.11280000000000000          15.604188919067383     
  0.11309999999999999          15.152407646179199     
  0.11340000000000001          14.507334709167480     
  0.11369999999999998          13.716340065002441     
  0.11400000000000000          12.824817657470703     
  0.11430000000000000          11.872991561889648     
  0.11460000000000002          10.895298957824707     
  0.11489999999999999          9.9165935516357422     
  0.11520000000000001          8.9512443542480469     
  0.11550000000000001          8.0028238296508789     
  0.11580000000000000          7.0653634071350098     
  0.11609999999999999          6.1271367073059082     
  0.11640000000000002          5.1703467369079590     
  0.11670000000000001          4.1747651100158691     
  0.11700000000000001          3.1213858127593994     
  0.11730000000000000          1.9966839551925659     
  0.11760000000000000         0.79577779769897461     
  0.11789999999999999        -0.47901672124862671     
  0.11820000000000001         -1.8161890506744385     
  0.11850000000000001         -3.1916689872741699     
  0.11880000000000000         -4.5705766677856445     
  0.11910000000000000         -5.9103574752807617     
  0.11940000000000002         -7.1656403541564941     
  0.11970000000000001         -8.2882375717163086     
  0.12000000000000001         -9.2285804748535156     
  0.12030000000000000         -9.9428596496582031     
  0.12060000000000000         -10.398061752319336     
  0.12089999999999999         -10.573889732360840     
  0.12119999999999999         -10.461789131164551     
  0.12150000000000001         -10.067541122436523     
  0.12180000000000001         -9.4134836196899414     
  0.12210000000000000         -8.5391845703125000     
  0.12239999999999999         -7.4949145317077637     
  0.12270000000000002         -6.3366165161132812     
  0.12300000000000001         -5.1251215934753418     
  0.12330000000000001         -3.9239594936370850     
  0.12360000000000000         -2.7926225662231445     
  0.12390000000000000         -1.7788248062133789     
  0.12419999999999999        -0.91627341508865356     
  0.12450000000000001        -0.22626742720603943     
  0.12480000000000001         0.28295218944549561     
  0.12509999999999999         0.61968064308166504     
  0.12540000000000001         0.80805194377899170     
  0.12570000000000003         0.88177037239074707     
  0.12600000000000000         0.87789696455001831     
  0.12630000000000002         0.83599680662155151     
  0.12659999999999999         0.79547911882400513     
  0.12690000000000001         0.79196810722351074     
  0.12719999999999998         0.85125541687011719     
  0.12750000000000000         0.98777437210083008     
  0.12780000000000002          1.2070459127426147     
  0.12809999999999999          1.5064524412155151     
  0.12840000000000001          1.8741500377655029     
  0.12869999999999998          2.2909538745880127     
  0.12900000000000000          2.7326524257659912     
  0.12930000000000003          3.1743304729461670     
  0.12959999999999999          3.5914256572723389     
  0.12990000000000002          3.9602386951446533     
  0.13019999999999998          4.2588191032409668     
  0.13050000000000000          4.4692869186401367     
  0.13080000000000003          4.5779271125793457     
  0.13109999999999999          4.5750131607055664     
  0.13140000000000002          4.4548478126525879     
  0.13169999999999998          4.2164421081542969     
  0.13200000000000001          3.8630056381225586     
  0.13229999999999997          3.4032077789306641     
  0.13260000000000000          2.8507616519927979     
  0.13290000000000002          2.2249670028686523     
  0.13319999999999999          1.5497258901596069     
  0.13350000000000001         0.85209006071090698     
  0.13380000000000003         0.16265122592449188     
  0.13410000000000000        -0.48681277036666870     
  0.13440000000000002         -1.0652520656585693     
  0.13469999999999999         -1.5467283725738525     
  0.13500000000000001         -1.9115613698959351     
  0.13529999999999998         -2.1466627120971680     
  0.13560000000000000         -2.2480075359344482     
  0.13590000000000002         -2.2225418090820312     
  0.13619999999999999         -2.0878872871398926     
  0.13650000000000001         -1.8694429397583008     
  0.13680000000000003         -1.5970281362533569     
  0.13710000000000000         -1.3048124313354492     
  0.13740000000000002         -1.0278973579406738     
  0.13769999999999999        -0.79849398136138916     
  0.13800000000000001        -0.64088910818099976     
  0.13829999999999998        -0.57024568319320679     
  0.13860000000000000        -0.59326231479644775     
  0.13890000000000002        -0.70636749267578125     
  0.13919999999999999        -0.89518928527832031     
  0.13950000000000001         -1.1354371309280396     
  0.13979999999999998         -1.3978701829910278     
  0.14010000000000000         -1.6509853601455688     
  0.14040000000000002         -1.8624922037124634     
  0.14069999999999999         -2.0023622512817383     
  0.14100000000000001         -2.0462319850921631     
  0.14130000000000004         -1.9791072607040405     
  0.14160000000000000         -1.7956557273864746     
  0.14189999999999997         -1.4991929531097412     
  0.14219999999999999         -1.1034702062606812     
  0.14250000000000002        -0.63101547956466675     
  0.14279999999999998        -0.11213593930006027     
  0.14310000000000000         0.41948875784873962     
  0.14339999999999997         0.92845201492309570     
  0.14369999999999999          1.3797072172164917     
  0.14400000000000002          1.7416172027587891     
  0.14429999999999998          1.9893951416015625     
  0.14460000000000001          2.1063179969787598     
  0.14490000000000003          2.0849556922912598     
  0.14520000000000000          1.9269073009490967     
  0.14550000000000002          1.6446869373321533     
  0.14579999999999999          1.2598450183868408     
  0.14610000000000001         0.80129712820053101     
  0.14640000000000003         0.30280596017837524     
  0.14670000000000000        -0.19860787689685822     
  0.14699999999999996        -0.66524666547775269     
  0.14729999999999999         -1.0622107982635498     
  0.14760000000000001         -1.3603439331054688     
  0.14789999999999998         -1.5381402969360352     
  0.14820000000000000         -1.5823532342910767     