  -1.4999999999999999E-002     0.0000000000000000     
  -1.4700000000000000E-002     0.0000000000000000     
  -1.4400000000000000E-002     0.0000000000000000     
  -1.4100000000000000E-002     0.0000000000000000     
  -1.3800000000000000E-002     0.0000000000000000     
  -1.3500000000000000E-002     0.0000000000000000     
  -1.3200000000000000E-002     0.0000000000000000     
  -1.2899999999999998E-002     0.0000000000000000     
  -1.2600000000000000E-002     0.0000000000000000     
  -1.2299999999999998E-002     0.0000000000000000     
  -1.2000000000000000E-002     0.0000000000000000     
  -1.1699999999999999E-002     0.0000000000000000     
  -1.1399999999999999E-002     0.0000000000000000     
  -1.1099999999999999E-002     0.0000000000000000     
  -1.0799999999999999E-002     0.0000000000000000     
  -1.0499999999999999E-002     0.0000000000000000     
  -1.0199999999999999E-002     0.0000000000000000     
  -9.8999999999999991E-003     0.0000000000000000     
  -9.5999999999999992E-003     0.0000000000000000     
  -9.2999999999999992E-003     0.0000000000000000     
  -8.9999999999999993E-003     0.0000000000000000     
  -8.6999999999999994E-003     0.0000000000000000     
  -8.3999999999999995E-003     0.0000000000000000     
  -8.0999999999999996E-003     0.0000000000000000     
  -7.7999999999999988E-003     0.0000000000000000     
  -7.4999999999999997E-003     0.0000000000000000     
  -7.1999999999999998E-003     0.0000000000000000     
  -6.8999999999999981E-003     0.0000000000000000     
  -6.5999999999999982E-003     0.0000000000000000     
  -6.3000000000000000E-003     0.0000000000000000     
  -6.0000000000000001E-003     0.0000000000000000     
  -5.6999999999999985E-003     0.0000000000000000     
  -5.3999999999999986E-003     0.0000000000000000     
  -5.1000000000000004E-003     0.0000000000000000     
  -4.7999999999999987E-003     0.0000000000000000     
  -4.5000000000000005E-003     0.0000000000000000     
  -4.1999999999999989E-003     0.0000000000000000     
  -3.8999999999999990E-003     0.0000000000000000     
  -3.5999999999999990E-003     0.0000000000000000     
  -3.2999999999999991E-003     0.0000000000000000     
  -2.9999999999999992E-003     0.0000000000000000     
  -2.6999999999999993E-003     0.0000000000000000     
  -2.3999999999999994E-003     0.0000000000000000     
  -2.0999999999999977E-003     0.0000000000000000     
  -1.7999999999999995E-003     0.0000000000000000     
  -1.4999999999999979E-003     0.0000000000000000     
  -1.1999999999999997E-003     0.0000000000000000     
  -8.9999999999999976E-004     0.0000000000000000     
  -5.9999999999999810E-004     0.0000000000000000     
  -2.9999999999999992E-004     0.0000000000000000     
   0.0000000000000000          0.0000000000000000     
   3.0000000000000165E-004     0.0000000000000000     
   5.9999999999999984E-004     0.0000000000000000     
   9.0000000000000149E-004     0.0000000000000000     
   1.2000000000000031E-003     0.0000000000000000     
   1.5000000000000013E-003     0.0000000000000000     
   1.8000000000000030E-003     0.0000000000000000     
   2.1000000000000012E-003     0.0000000000000000     
   2.3999999999999994E-003     0.0000000000000000     
   2.7000000000000010E-003     0.0000000000000000     
   2.9999999999999992E-003     0.0000000000000000     
   3.3000000000000008E-003     0.0000000000000000     
   3.6000000000000025E-003     0.0000000000000000     
   3.9000000000000007E-003     0.0000000000000000     
   4.2000000000000023E-003     0.0000000000000000     
   4.5000000000000005E-003     0.0000000000000000     
   4.7999999999999987E-003     0.0000000000000000     
   5.1000000000000004E-003     0.0000000000000000     
   5.4000000000000020E-003     0.0000000000000000     
   5.7000000000000037E-003     0.0000000000000000     
   5.9999999999999984E-003     0.0000000000000000     
   6.3000000000000000E-003     0.0000000000000000     
   6.6000000000000017E-003     0.0000000000000000     
   6.9000000000000034E-003     0.0000000000000000     
   7.2000000000000015E-003     0.0000000000000000     
   7.5000000000000032E-003     0.0000000000000000     
   7.8000000000000014E-003     0.0000000000000000     
   8.0999999999999996E-003     0.0000000000000000     
   8.4000000000000012E-003     0.0000000000000000     
   8.7000000000000029E-003     0.0000000000000000     
   9.0000000000000011E-003     0.0000000000000000     
   9.2999999999999992E-003     0.0000000000000000     
   9.6000000000000009E-003     0.0000000000000000     
   9.8999999999999991E-003     0.0000000000000000     
   1.0200000000000001E-002     0.0000000000000000     
   1.0500000000000002E-002     0.0000000000000000     
   1.0800000000000004E-002     0.0000000000000000     
   1.1099999999999999E-002     0.0000000000000000     
   1.1400000000000000E-002     0.0000000000000000     
   1.1700000000000002E-002     0.0000000000000000     
   1.2000000000000004E-002     0.0000000000000000     
   1.2300000000000002E-002     0.0000000000000000     
   1.2600000000000000E-002     0.0000000000000000     
   1.2900000000000002E-002     0.0000000000000000     
   1.3200000000000000E-002     0.0000000000000000     
   1.3500000000000002E-002     0.0000000000000000     
   1.3800000000000003E-002     0.0000000000000000     
   1.4100000000000001E-002     0.0000000000000000     
   1.4400000000000000E-002     0.0000000000000000     
   1.4700000000000001E-002     0.0000000000000000     
   1.4999999999999999E-002     0.0000000000000000     
   1.5300000000000001E-002     0.0000000000000000     
   1.5600000000000003E-002     0.0000000000000000     
   1.5899999999999997E-002     0.0000000000000000     
   1.6199999999999999E-002     0.0000000000000000     
   1.6500000000000001E-002     0.0000000000000000     
   1.6800000000000002E-002     0.0000000000000000     
   1.7100000000000004E-002     0.0000000000000000     
   1.7400000000000006E-002     0.0000000000000000     
   1.7700000000000000E-002     0.0000000000000000     
   1.8000000000000002E-002     0.0000000000000000     
   1.8300000000000004E-002     0.0000000000000000     
   1.8600000000000005E-002     0.0000000000000000     
   1.8900000000000000E-002     0.0000000000000000     
   1.9200000000000002E-002     0.0000000000000000     
   1.9500000000000003E-002     0.0000000000000000     
   1.9799999999999998E-002     0.0000000000000000     
   2.0100000000000000E-002     0.0000000000000000     
   2.0400000000000001E-002     0.0000000000000000     
   2.0700000000000003E-002     0.0000000000000000     
   2.0999999999999998E-002     0.0000000000000000     
   2.1299999999999999E-002     0.0000000000000000     
   2.1600000000000001E-002     0.0000000000000000     
   2.1900000000000003E-002     0.0000000000000000     
   2.2200000000000004E-002     0.0000000000000000     
   2.2500000000000006E-002     0.0000000000000000     
   2.2800000000000001E-002     0.0000000000000000     
   2.3100000000000002E-002     0.0000000000000000     
   2.3400000000000004E-002     0.0000000000000000     
   2.3699999999999999E-002     0.0000000000000000     
   2.4000000000000000E-002     0.0000000000000000     
   2.4300000000000002E-002     0.0000000000000000     
   2.4599999999999997E-002     0.0000000000000000     
   2.4900000000000005E-002     0.0000000000000000     
   2.5200000000000000E-002     0.0000000000000000     
   2.5499999999999995E-002     0.0000000000000000     
   2.5800000000000003E-002     0.0000000000000000     
   2.6099999999999998E-002     0.0000000000000000     
   2.6400000000000007E-002     0.0000000000000000     
   2.6700000000000002E-002     0.0000000000000000     
   2.6999999999999996E-002     0.0000000000000000     
   2.7300000000000005E-002     0.0000000000000000     
   2.7600000000000000E-002     0.0000000000000000     
   2.7900000000000008E-002     0.0000000000000000     
   2.8200000000000003E-002     0.0000000000000000     
   2.8499999999999998E-002     0.0000000000000000     
   2.8800000000000006E-002     0.0000000000000000     
   2.9100000000000001E-002     0.0000000000000000     
   2.9400000000000003E-002     0.0000000000000000     
   2.9700000000000004E-002     0.0000000000000000     
   3.0000000000000006E-002     0.0000000000000000     
   3.0300000000000001E-002     0.0000000000000000     
   3.0600000000000002E-002     0.0000000000000000     
   3.0900000000000004E-002     9.7836407943500406E-039
   3.1199999999999999E-002    -3.4274471242797847E-037
   3.1500000000000007E-002     2.1220249517576662E-036
   3.1800000000000002E-002    -1.0055061493190232E-035
   3.2099999999999997E-002     2.9055530832991595E-035
   3.2400000000000005E-002     3.9556442561019080E-034
   3.2700000000000000E-002    -2.8690919327144408E-033
   3.3000000000000002E-002     7.8250481434041040E-033
   3.3300000000000003E-002    -1.9828929208464484E-032
   3.3599999999999998E-002     4.7967401029275540E-032
   3.3900000000000000E-002    -7.3633322567616966E-032
   3.4200000000000001E-002    -1.1798519355003952E-031
   3.4500000000000003E-002     1.5641946310035142E-030
   3.4799999999999998E-002    -7.7918004465766055E-030
   3.5099999999999999E-002     2.7195900800418500E-029
   3.5400000000000001E-002    -6.7687411846332127E-029
   3.5699999999999996E-002     8.1433531167719030E-029
   3.6000000000000004E-002     2.7513760297079475E-028
   3.6299999999999999E-002    -2.3285051374114624E-027
   3.6600000000000008E-002     9.4575864232006880E-027
   3.6900000000000002E-002    -2.5360718055059939E-026
   3.7199999999999997E-002     3.3229484377237578E-026
   3.7500000000000006E-002     9.7581619340410762E-026
   3.7800000000000000E-002    -8.9637142860673560E-025
   3.8100000000000009E-002     3.8869865463095569E-024
   3.8400000000000004E-002    -1.2111437643998888E-023
   3.8699999999999998E-002     2.8041253036477745E-023
   3.9000000000000007E-002    -4.0904685806301622E-023
   3.9300000000000002E-002    -1.2290615435089374E-023
   3.9600000000000003E-002     3.2593028757117032E-022
   3.9900000000000005E-002    -1.3179515872218858E-021
   4.0200000000000000E-002     3.6146801890533551E-021
   4.0500000000000001E-002    -7.8352856650172192E-021
   4.0800000000000003E-002     1.4938182034087899E-020
   4.1100000000000005E-002    -3.0894196498305631E-020
   4.1399999999999999E-002     8.4090514645403210E-020
   4.1700000000000008E-002    -2.5601373280817697E-019
   4.2000000000000003E-002     6.4073804499854110E-019
   4.2299999999999997E-002    -7.9079757081582557E-019
   4.2600000000000006E-002    -2.8018393658939126E-018
   4.2900000000000001E-002     2.4275203392316609E-017
   4.3200000000000002E-002    -1.0242446491005662E-016
   4.3500000000000004E-002     2.9875482757835429E-016
   4.3799999999999999E-002    -5.6106242504366192E-016
   4.4100000000000000E-002     1.1691609400038489E-016
   4.4400000000000002E-002     4.0342338946990513E-015
   4.4700000000000004E-002    -1.8488669312898218E-014
   4.4999999999999998E-002     4.6811999272294745E-014
   4.5300000000000000E-002    -5.2363926030443118E-014
   4.5600000000000002E-002    -1.3284769077152362E-013
   4.5899999999999996E-002     8.6263958688644667E-013
   4.6200000000000005E-002    -2.1902592493798669E-012
   4.6500000000000000E-002     1.7990169773066432E-012
   4.6799999999999994E-002     8.3076329340360866E-012
   4.7100000000000003E-002    -3.7552746501040472E-011
   4.7399999999999998E-002     6.0812326017720981E-011
   4.7700000000000006E-002     5.5389194647109431E-011
   4.8000000000000001E-002    -5.0899078161053438E-010
   4.8300000000000010E-002     9.5651995997186236E-010
   4.8600000000000004E-002     6.4689545687231549E-010
   4.8899999999999999E-002    -6.6833545716807685E-009
   4.9200000000000008E-002     9.6673589506611068E-009
   4.9500000000000002E-002     1.8089999644651810E-008
   4.9800000000000011E-002    -7.7794493265100087E-008
   5.0100000000000006E-002     1.0793866853217083E-008
   5.0400000000000000E-002     3.5738836191943625E-007
   5.0700000000000009E-002    -3.6595683594248147E-007
   5.1000000000000004E-002    -1.5192513166379073E-006
   5.1299999999999998E-002     2.5718098757481495E-006
   5.1600000000000007E-002     1.4590758162897515E-005
   5.1900000000000002E-002     3.0698065285951243E-005
   5.2200000000000010E-002     5.3262026846103783E-005
   5.2500000000000005E-002     8.7221429781069414E-005
   5.2800000000000000E-002     1.2395514481635013E-004
   5.3099999999999994E-002     1.6289097871019943E-004
   5.3400000000000003E-002     2.3236238122366446E-004
   5.3699999999999998E-002     3.5525686009376355E-004
   5.4000000000000006E-002     5.3296037573067126E-004
   5.4300000000000001E-002     7.8107943205452807E-004
   5.4599999999999996E-002     1.1349216306441243E-003
   5.4900000000000004E-002     1.6255571769244540E-003
   5.5199999999999999E-002     2.2812936080152807E-003
   5.5499999999999994E-002     3.1357400829135351E-003
   5.5800000000000002E-002     4.2264476654370609E-003
   5.6099999999999997E-002     5.5890705945751962E-003
   5.6400000000000006E-002     7.2393875409901276E-003
   5.6700000000000000E-002     9.1547185290603017E-003
   5.6999999999999995E-002     1.1264610455467505E-002
   5.7300000000000004E-002     1.3444130847319935E-002
   5.7599999999999998E-002     1.5488014387823268E-002
   5.7900000000000007E-002     1.7063279913863250E-002
   5.8200000000000002E-002     1.7701103258283446E-002
   5.8499999999999996E-002     1.6810023675219388E-002
   5.8800000000000005E-002     1.3633764459526410E-002
   5.9100000000000000E-002     7.2423262824676260E-003
   5.9400000000000008E-002    -3.3821843260884860E-003
   5.9700000000000003E-002    -1.9271003168579437E-002
   6.0000000000000012E-002    -4.1404655946569058E-002
   6.0300000000000006E-002    -7.0578901657991633E-002
   6.0600000000000001E-002   -0.10723719509681207     
   6.0900000000000010E-002   -0.15126657801592280     
   6.1200000000000004E-002   -0.20178802361578807     
   6.1500000000000013E-002   -0.25699219378853577     
   6.1800000000000008E-002   -0.31400066533733195     
   6.2100000000000002E-002   -0.36880993402050599     
   6.2399999999999997E-002   -0.41630603920628850     
   6.2700000000000006E-002   -0.45040750042237221     
   6.3000000000000000E-002   -0.46443698475274786     
   6.3300000000000009E-002   -0.45162531903579506     
   6.3600000000000004E-002   -0.40561011857318796     
   6.3899999999999998E-002   -0.32117096396116818     
   6.4199999999999993E-002   -0.19499766662272189     
   6.4500000000000002E-002    -2.6456462585371376E-002
   6.4800000000000010E-002    0.18193449839337639     
   6.5100000000000005E-002    0.42409982778083766     
   6.5400000000000000E-002    0.69018889621278490     
   6.5700000000000008E-002    0.96703725507813232     
   6.5999999999999989E-002     1.2386202321915647     
   6.6299999999999998E-002     1.4869915974384966     
   6.6600000000000006E-002     1.6937083351990481     
   6.6900000000000001E-002     1.8411421626235125     
   6.7199999999999996E-002     1.9140191276622431     
   6.7500000000000004E-002     1.9008857041591369     
   6.7800000000000013E-002     1.7952163981413847     
   6.8099999999999994E-002     1.5963053410620702     
   6.8400000000000002E-002     1.3096276847081540     
   6.8700000000000011E-002    0.94656662475716047     
   6.8999999999999992E-002    0.52387182314320269     
   6.9300000000000000E-002     6.2389585778198864E-002
   6.9600000000000009E-002   -0.41434358630197998     
   6.9900000000000004E-002   -0.88190125780342754     
   7.0199999999999999E-002    -1.3163516257023318     
   7.0500000000000007E-002    -1.6965165868651937     
   7.0800000000000016E-002    -2.0048081926069727     
   7.1099999999999997E-002    -2.2283038873664509     
   7.1400000000000005E-002    -2.3596849295091999     
   7.1700000000000000E-002    -2.3970342810281551     
   7.1999999999999995E-002    -2.3437771757941732     
   7.2300000000000003E-002    -2.2081505423343515     
   7.2600000000000012E-002    -2.0020986539916095     
   7.2900000000000006E-002    -1.7405285631552871     
   7.3200000000000001E-002    -1.4402369573810532     
   7.3499999999999996E-002    -1.1185891109516710     
   7.3800000000000004E-002   -0.79266483661971421     
   7.4099999999999999E-002   -0.47843439510669761     
   7.4400000000000008E-002   -0.18982076225596156     
   7.4700000000000003E-002     6.1796517435591891E-002
   7.5000000000000011E-002    0.26799185026579675     
   7.5299999999999992E-002    0.42371442264303205     
   7.5600000000000001E-002    0.52723694266591892     
   7.5900000000000009E-002    0.58007417569950803     
   7.6200000000000004E-002    0.58688260248259994     
   7.6499999999999999E-002    0.55481019824179079     
   7.6800000000000007E-002    0.49313517552684694     
   7.7099999999999988E-002    0.41238327212356296     
   7.7399999999999997E-002    0.32363274045443813     
   7.7700000000000005E-002    0.23770461138651244     
   7.8000000000000014E-002    0.16425415970038881     
   7.8299999999999995E-002    0.11130041939288160     
   7.8600000000000003E-002     8.4576523568067219E-002
   7.8900000000000012E-002     8.7040300569208640E-002
   7.9199999999999993E-002    0.11929756595407603     
   7.9500000000000001E-002    0.17915885394463249     
   7.9800000000000010E-002    0.26232559635572983     
   8.0100000000000018E-002    0.36308005576585778     
   8.0399999999999999E-002    0.47435000132436222     
   8.0700000000000008E-002    0.58886469919011830     
   8.1000000000000003E-002    0.69978995808406808     
   8.1299999999999997E-002    0.80079300361983385     
   8.1600000000000006E-002    0.88683581443178738     
   8.1900000000000014E-002    0.95424585181616095     
   8.2199999999999995E-002     1.0005814833684816     
   8.2500000000000004E-002     1.0247804605127371     
   8.2799999999999999E-002     1.0267203729233998     
   8.3100000000000007E-002     1.0069168220167626     
   8.3400000000000002E-002    0.96642745097627625     
   8.3700000000000011E-002    0.90631958965332871     
   8.4000000000000005E-002    0.82776022461944621     
   8.4300000000000000E-002    0.73196741369967810     
   8.4599999999999995E-002    0.62010361924074431     
   8.4900000000000003E-002    0.49377187677822221     
   8.5199999999999998E-002    0.35496443679061151     
   8.5500000000000007E-002    0.20640315569571882     
   8.5800000000000001E-002     5.1876392707990604E-002
   8.6100000000000010E-002   -0.10403799150682547     
   8.6399999999999991E-002   -0.25558728195660319     
   8.6699999999999999E-002   -0.39642531292992800     
   8.7000000000000008E-002   -0.52028650237712881     
   8.7300000000000003E-002   -0.62051391529960398     
   8.7599999999999997E-002   -0.69183956827166071     
   8.7900000000000006E-002   -0.73061402376230333     
   8.8200000000000014E-002   -0.73464344913585933     
   8.8499999999999995E-002   -0.70481186106434279     
   8.8800000000000004E-002   -0.64445497709350263     
   8.9100000000000013E-002   -0.55900321309317214     
   8.9399999999999993E-002   -0.45659049636982729     
   8.9700000000000002E-002   -0.34660281122328929     
   9.0000000000000011E-002   -0.23890708472618849     
   9.0299999999999991E-002   -0.14367203248536331     
   9.0600000000000000E-002    -6.9646206280692624E-002
   9.0900000000000009E-002    -2.3635373213050981E-002
   9.1200000000000017E-002    -1.0160252530023950E-002
   9.1499999999999998E-002    -3.0450104232635500E-002
   9.1800000000000007E-002    -8.2838699007813155E-002
   9.2100000000000001E-002   -0.16297178140743451     
   9.2399999999999996E-002   -0.26368611835744460     
   9.2700000000000005E-002   -0.37632409473792627     
   9.3000000000000013E-002   -0.49140304692258319     
   9.3300000000000008E-002   -0.59904732985639697     
   9.3600000000000003E-002   -0.69029878204288764     
   9.3899999999999997E-002   -0.75772560694902680     
   9.4200000000000006E-002   -0.79562804324862668     
   9.4500000000000001E-002   -0.80084320543133813     
   9.4800000000000009E-002   -0.77257620212266076     
   9.5100000000000004E-002   -0.71202968159493096     
   9.5399999999999999E-002   -0.62256562437470286     
   9.5699999999999993E-002   -0.50897430860070791     
   9.6000000000000002E-002   -0.37667677878177130     
   9.6300000000000011E-002   -0.23162693406820356     
   9.6600000000000005E-002    -7.9497191835614434E-002
   9.6900000000000000E-002     7.4800826169650003E-002
   9.7200000000000009E-002    0.22712051939473632     
   9.7499999999999989E-002    0.37452739033329152     
   9.7799999999999998E-002    0.51503735987420463     
   9.8100000000000007E-002    0.64728225567835196     
   9.8400000000000015E-002    0.77047124563786795     
   9.8699999999999996E-002    0.88390061355017835     
   9.9000000000000005E-002    0.98634986268598013     
   9.9300000000000013E-002     1.0760782687655848     
   9.9599999999999994E-002     1.1505602147847327     
   9.9900000000000003E-002     1.2063427742027670     
  0.10020000000000001          1.2393443316636166     
  0.10049999999999999          1.2452189914180209     
  0.10080000000000000          1.2196216804101638     
  0.10110000000000001          1.1589170441096854     
  0.10140000000000000          1.0608619545331841     
  0.10170000000000000         0.92475050202790854     
  0.10200000000000001         0.75196454422698267     
  0.10230000000000002         0.54624226789302277     
  0.10260000000000000         0.31343348116738845     
  0.10290000000000001          6.1382067042010213E-002
  0.10320000000000000        -0.20059378599966493     
  0.10350000000000001        -0.46230085165141510     
  0.10380000000000000        -0.71301218951342094     
  0.10410000000000001        -0.94259330511049910     
  0.10440000000000001         -1.1418437307755127     
  0.10470000000000000         -1.3026908009797822     
  0.10500000000000000         -1.4190732572975051     
  0.10530000000000000         -1.4869468606353138     
  0.10560000000000000         -1.5039181972896216     
  0.10590000000000001         -1.4696759003716053     
  0.10620000000000000         -1.3857015466869598     
  0.10650000000000001         -1.2546870908881047     
  0.10679999999999999         -1.0809376597060520     
  0.10710000000000000        -0.86988931712754614     
  0.10740000000000001        -0.62769286374354394     
  0.10770000000000000        -0.36163837462773607     
  0.10800000000000000         -7.9753958036248740E-002
  0.10830000000000001         0.20935148520131897     
  0.10859999999999999         0.49606275368915220     
  0.10890000000000000         0.77046845769995542     
  0.10920000000000001          1.0225542320883960     
  0.10950000000000001          1.2420107322561549     
  0.10979999999999999          1.4192157779245704     
  0.11009999999999999          1.5457436939381637     
  0.11040000000000001          1.6144636592022223     
  0.11070000000000001          1.6206145908629210     
  0.11100000000000000          1.5624052809141773     
  0.11130000000000000          1.4409290447953218     
  0.11160000000000002          1.2607809612455796     
  0.11190000000000001          1.0301510323130696     
  0.11220000000000001         0.76005424674170907     
  0.11250000000000000         0.46420740755716050     
  0.11280000000000000         0.15814543669022640     
  0.11309999999999999        -0.14227510991703429     
  0.11340000000000001        -0.42152509322667164     
  0.11369999999999998        -0.66564020377101230     
  0.11400000000000000        -0.86383000967079226     
  0.11430000000000000         -1.0088657230662150     
  0.11460000000000002         -1.0975072283559513     
  0.11489999999999999         -1.1312745441454837     
  0.11520000000000001         -1.1155651728493048     
  0.11550000000000001         -1.0591311845606626     
  0.11580000000000000        -0.97328848866509432     
  0.11609999999999999        -0.87034867327411192     
  0.11640000000000002        -0.76248280616131581     
  0.11670000000000001        -0.66050628520516952     
  0.11700000000000001        -0.57252672593306642     
  0.11730000000000000        -0.50345433306651088     
  0.11760000000000000        -0.45494385476750132     
  0.11789999999999999        -0.42529384322359043     
  0.11820000000000001        -0.40988789235775336     
  0.11850000000000001        -0.40268137246152058     
  0.11880000000000000        -0.39711455339470270     
  0.11910000000000000        -0.38675955516369243     
  0.11940000000000002        -0.36729200005067497     
  0.11970000000000001        -0.33664915638153659     
  0.12000000000000001        -0.29509723845517577     
  0.12030000000000000        -0.24597100372323588     
  0.12060000000000000        -0.19445265338054085     
  0.12089999999999999        -0.14667420690043986     
  0.12119999999999999        -0.10922772160911265     
  0.12150000000000001         -8.7262781120503341E-002
  0.12180000000000001         -8.3888214807181782E-002
  0.12210000000000000         -9.9502649759455331E-002
  0.12239999999999999        -0.13113769166521960     
  0.12270000000000002        -0.17289004749762071     
  0.12300000000000001        -0.21648558053180267     
  0.12330000000000001        -0.25226885948376143     
  0.12360000000000000        -0.27039044456789085     
  0.12390000000000000        -0.26211725358002269     
  0.12419999999999999        -0.22108017559257798     
  0.12450000000000001        -0.14418619567996949     
  0.12480000000000001         -3.2143191086356993E-002
  0.12509999999999999         0.11061497471366843     
  0.12540000000000001         0.27627170880573537     
  0.12570000000000003         0.45446643331780301     
  0.12600000000000000         0.63337729318166680     
  0.12630000000000002         0.80106883677211727     
  0.12659999999999999         0.94660036552160420     
  0.12690000000000001          1.0609271768287556     
  0.12719999999999998          1.1377452902460590     
  0.12750000000000000          1.1737515002671586     
  0.12780000000000002          1.1686417465777197     
  0.12809999999999999          1.1248875321480547     
  0.12840000000000001          1.0469569007256467     
  0.12869999999999998         0.94071469513909278     
  0.12900000000000000         0.81301101045478141     
  0.12930000000000003         0.67085525204647212     
  0.12959999999999999         0.52099237689975242     
  0.12990000000000002         0.37005514008139251     
  0.13019999999999998         0.22426733304028268     
  0.13050000000000000          8.9232378765774278E-002
  0.13080000000000003         -2.9423260112923955E-002
  0.13109999999999999        -0.12626933933324880     
  0.13140000000000002        -0.19644038518201690     
  0.13169999999999998        -0.23539416591861340     
  0.13200000000000001        -0.23956737686490426     
  0.13229999999999997        -0.20678187579911422     
  0.13260000000000000        -0.13664325474940320     
  0.13290000000000002         -3.1308377787460540E-002
  0.13319999999999999         0.10442000167841381     
  0.13350000000000001         0.26332499710766921     
  0.13380000000000003         0.43529007695217459     
  0.13410000000000000         0.60833544562563091     
  0.13440000000000002         0.76951688689232256     
  0.13469999999999999         0.90520134996668133     
  0.13500000000000001          1.0028255425352484     
  0.13529999999999998          1.0518454138976630     
  0.13560000000000000          1.0441420265803210     
  0.13590000000000002         0.97544435878906199     
  0.13619999999999999         0.84571650016834177     
  0.13650000000000001         0.65854251858016211     
  0.13680000000000003         0.42172775346640101     
  0.13710000000000000         0.14680664492622064     
  0.13740000000000002        -0.15257883171331144     
  0.13769999999999999        -0.46072800313517348     
  0.13800000000000001        -0.76123161546415830     
  0.13829999999999998         -1.0384225690146671     
  0.13860000000000000         -1.2776578335437918     
  0.13890000000000002         -1.4669497277107411     
  0.13919999999999999         -1.5974615253855973     
  0.13950000000000001         -1.6636489870103688     
  0.13979999999999998         -1.6640726592567603     
  0.14010000000000000         -1.6010757982552590     
  0.14040000000000002         -1.4803310803584964     
  0.14069999999999999         -1.3108737031199169     
  0.14100000000000001         -1.1038504689299291     
  0.14130000000000004        -0.87205396579156691     
  0.14160000000000000        -0.62928162039748359     
  0.14189999999999997        -0.38879723109765241     
  0.14219999999999999        -0.16321472960191841     
  0.14250000000000002          3.6205330701203131E-002
  0.14279999999999998         0.20076994230498268     
  0.14310000000000000         0.32379235375353588     
  0.14339999999999997         0.40116106234308724     
  0.14369999999999999         0.43193477963811588     
  0.14400000000000002         0.41750624464530617     
  0.14429999999999998         0.36168840264040236     
  0.14460000000000001         0.27089000462715473     
  0.14490000000000003         0.15316291935839477     
  0.14520000000000000          1.8141849735075155E-002
  0.14550000000000002        -0.12320687292414068     
  0.14579999999999999        -0.25975380512437862     
  0.14610000000000001        -0.38033963246917679     
  0.14640000000000003        -0.47450401513927432     
  0.14670000000000000        -0.53372227279202633     
  0.14699999999999996        -0.55147135484522103     
  0.14729999999999999        -0.52412064935568381     
  0.14760000000000001        -0.45189848312872272     
  0.14789999999999998        -0.33821310107975122     
  0.14820000000000000        -0.19024765170021407     