  -1.4999999999999999E-002     0.0000000000000000     
  -1.4700000000000000E-002     0.0000000000000000     
  -1.4400000000000000E-002     0.0000000000000000     
  -1.4100000000000000E-002     0.0000000000000000     
  -1.3800000000000000E-002     0.0000000000000000     
  -1.3500000000000000E-002     0.0000000000000000     
  -1.3200000000000000E-002     0.0000000000000000     
  -1.2899999999999998E-002     0.0000000000000000     
  -1.2600000000000000E-002     0.0000000000000000     
  -1.2299999999999998E-002     0.0000000000000000     
  -1.2000000000000000E-002     0.0000000000000000     
  -1.1699999999999999E-002     0.0000000000000000     
  -1.1399999999999999E-002     0.0000000000000000     
  -1.1099999999999999E-002     0.0000000000000000     
  -1.0799999999999999E-002     0.0000000000000000     
  -1.0499999999999999E-002     0.0000000000000000     
  -1.0199999999999999E-002     0.0000000000000000     
  -9.8999999999999991E-003     0.0000000000000000     
  -9.5999999999999992E-003     0.0000000000000000     
  -9.2999999999999992E-003     0.0000000000000000     
  -8.9999999999999993E-003     0.0000000000000000     
  -8.6999999999999994E-003     0.0000000000000000     
  -8.3999999999999995E-003     0.0000000000000000     
  -8.0999999999999996E-003     0.0000000000000000     
  -7.7999999999999988E-003     0.0000000000000000     
  -7.4999999999999997E-003     0.0000000000000000     
  -7.1999999999999998E-003     0.0000000000000000     
  -6.8999999999999981E-003     0.0000000000000000     
  -6.5999999999999982E-003     0.0000000000000000     
  -6.3000000000000000E-003     0.0000000000000000     
  -6.0000000000000001E-003     0.0000000000000000     
  -5.6999999999999985E-003     0.0000000000000000     
  -5.3999999999999986E-003     0.0000000000000000     
  -5.1000000000000004E-003     0.0000000000000000     
  -4.7999999999999987E-003     0.0000000000000000     
  -4.5000000000000005E-003     0.0000000000000000     
  -4.1999999999999989E-003     0.0000000000000000     
  -3.8999999999999990E-003     0.0000000000000000     
  -3.5999999999999990E-003     0.0000000000000000     
  -3.2999999999999991E-003     0.0000000000000000     
  -2.9999999999999992E-003     0.0000000000000000     
  -2.6999999999999993E-003     0.0000000000000000     
  -2.3999999999999994E-003     0.0000000000000000     
  -2.0999999999999977E-003     0.0000000000000000     
  -1.7999999999999995E-003     0.0000000000000000     
  -1.4999999999999979E-003     0.0000000000000000     
  -1.1999999999999997E-003     0.0000000000000000     
  -8.9999999999999976E-004     0.0000000000000000     
  -5.9999999999999810E-004     0.0000000000000000     
  -2.9999999999999992E-004     0.0000000000000000     
   0.0000000000000000          0.0000000000000000     
   3.0000000000000165E-004     0.0000000000000000     
   5.9999999999999984E-004     0.0000000000000000     
   9.0000000000000149E-004     0.0000000000000000     
   1.2000000000000031E-003     0.0000000000000000     
   1.5000000000000013E-003     0.0000000000000000     
   1.8000000000000030E-003     0.0000000000000000     
   2.1000000000000012E-003     0.0000000000000000     
   2.3999999999999994E-003     0.0000000000000000     
   2.7000000000000010E-003     0.0000000000000000     
   2.9999999999999992E-003     0.0000000000000000     
   3.3000000000000008E-003     0.0000000000000000     
   3.6000000000000025E-003     0.0000000000000000     
   3.9000000000000007E-003     0.0000000000000000     
   4.2000000000000023E-003     0.0000000000000000     
   4.5000000000000005E-003     0.0000000000000000     
   4.7999999999999987E-003     0.0000000000000000     
   5.1000000000000004E-003     0.0000000000000000     
   5.4000000000000020E-003     0.0000000000000000     
   5.7000000000000037E-003     0.0000000000000000     
   5.9999999999999984E-003     0.0000000000000000     
   6.3000000000000000E-003     0.0000000000000000     
   6.6000000000000017E-003     0.0000000000000000     
   6.9000000000000034E-003     0.0000000000000000     
   7.2000000000000015E-003     0.0000000000000000     
   7.5000000000000032E-003     0.0000000000000000     
   7.8000000000000014E-003     0.0000000000000000     
   8.0999999999999996E-003     0.0000000000000000     
   8.4000000000000012E-003     0.0000000000000000     
   8.7000000000000029E-003     0.0000000000000000     
   9.0000000000000011E-003     0.0000000000000000     
   9.2999999999999992E-003     0.0000000000000000     
   9.6000000000000009E-003     0.0000000000000000     
   9.8999999999999991E-003     0.0000000000000000     
   1.0200000000000001E-002     0.0000000000000000     
   1.0500000000000002E-002     0.0000000000000000     
   1.0800000000000004E-002     0.0000000000000000     
   1.1099999999999999E-002     0.0000000000000000     
   1.1400000000000000E-002     0.0000000000000000     
   1.1700000000000002E-002     0.0000000000000000     
   1.2000000000000004E-002     0.0000000000000000     
   1.2300000000000002E-002     0.0000000000000000     
   1.2600000000000000E-002     0.0000000000000000     
   1.2900000000000002E-002     0.0000000000000000     
   1.3200000000000000E-002     0.0000000000000000     
   1.3500000000000002E-002     0.0000000000000000     
   1.3800000000000003E-002     0.0000000000000000     
   1.4100000000000001E-002     0.0000000000000000     
   1.4400000000000000E-002     0.0000000000000000     
   1.4700000000000001E-002     0.0000000000000000     
   1.4999999999999999E-002     0.0000000000000000     
   1.5300000000000001E-002     0.0000000000000000     
   1.5600000000000003E-002     0.0000000000000000     
   1.5899999999999997E-002     0.0000000000000000     
   1.6199999999999999E-002     0.0000000000000000     
   1.6500000000000001E-002     0.0000000000000000     
   1.6800000000000002E-002    -9.4836134899175926E-036
   1.7100000000000004E-002     3.1253140367969526E-035
   1.7400000000000006E-002    -9.4779317425646679E-035
   1.7700000000000000E-002     6.3542121995697584E-035
   1.8000000000000002E-002     3.0131630365620012E-034
   1.8300000000000004E-002    -3.7642288512193337E-034
   1.8600000000000005E-002     7.6455782657538384E-035
   1.8900000000000000E-002     1.2565217274374447E-033
   1.9200000000000002E-002    -3.5050659127368651E-033
   1.9500000000000003E-002     4.8125135452007853E-033
   1.9799999999999998E-002    -2.4096528492483152E-033
   2.0100000000000000E-002    -3.9928222325892034E-033
   2.0400000000000001E-002     1.4982203004319986E-032
   2.0700000000000003E-002    -3.1507571482512454E-032
   2.0999999999999998E-002     3.0429078925520022E-032
   2.1299999999999999E-002     5.1342119658110838E-032
   2.1600000000000001E-002    -2.3231687470414043E-031
   2.1900000000000003E-002     2.8191690585686088E-031
   2.2200000000000004E-002     2.7157182676312724E-031
   2.2500000000000006E-002    -1.3988841687779782E-030
   2.2800000000000001E-002     1.4942111182567818E-030
   2.3100000000000002E-002     1.7692081474791091E-030
   2.3400000000000004E-002    -7.0037683749676300E-030
   2.3699999999999999E-002     5.9132985649753473E-030
   2.4000000000000000E-002     8.1742680973130477E-030
   2.4300000000000002E-002    -2.1954928795166722E-029
   2.4599999999999997E-002     5.7400122659127212E-030
   2.4900000000000005E-002     3.0775415601929064E-029
   2.5200000000000000E-002     2.0044284415080291E-029
   2.5499999999999995E-002    -2.9593918970064472E-028
   2.5800000000000003E-002     7.1207735241919817E-028
   2.6099999999999998E-002    -6.5408553141900828E-028
   2.6400000000000007E-002    -5.2300823199971991E-028
   2.6700000000000002E-002    -2.1136287656512826E-027
   2.6999999999999996E-002     3.4261572642477747E-026
   2.7300000000000005E-002    -1.1643728709506041E-025
   2.7600000000000000E-002    -3.3446654675481154E-026
   2.7900000000000008E-002     1.6777138744833130E-024
   2.8200000000000003E-002    -5.6820877919382364E-024
   2.8499999999999998E-002    -9.7110690420401714E-025
   2.8800000000000006E-002     8.3061177883750457E-023
   2.9100000000000001E-002    -3.7055462437001847E-022
   2.9400000000000003E-002     7.4990460607114430E-022
   2.9700000000000004E-002     5.2921101120389048E-022
   3.0000000000000006E-002    -9.9007687053044060E-021
   3.0300000000000001E-002     3.8875307747361546E-020
   3.0600000000000002E-002    -7.8757345998988411E-020
   3.0900000000000004E-002    -4.3072425406629876E-021
   3.1199999999999999E-002     6.5857742227210974E-019
   3.1500000000000007E-002    -2.4888350891199631E-018
   3.1800000000000002E-002     4.2926045715974902E-018
   3.2099999999999997E-002     2.0309221708761735E-018
   3.2400000000000005E-002    -3.3506274200440471E-017
   3.2700000000000000E-002     9.0139896288042956E-017
   3.3000000000000002E-002    -7.6781644079360804E-017
   3.3300000000000003E-002    -2.4029088574897101E-016
   3.3599999999999998E-002     9.1998440099040580E-016
   3.3900000000000000E-002    -9.8132017428345783E-016
   3.4200000000000001E-002    -1.6996073958077751E-015
   3.4500000000000003E-002     6.1963293416860635E-015
   3.4799999999999998E-002    -1.6142806848331659E-016
   3.5099999999999999E-002    -3.4087617846673482E-014
   3.5400000000000001E-002     6.2414991523675883E-014
   3.5699999999999996E-002     9.0724004914513601E-014
   3.6000000000000004E-002    -6.4223783626318753E-013
   3.6299999999999999E-002     1.1517557740869933E-012
   3.6600000000000008E-002     6.6080984000710385E-013
   3.6900000000000002E-002    -8.2766510658971448E-012
   3.7199999999999997E-002     1.8526334980006887E-011
   3.7500000000000006E-002    -4.5221799395422924E-012
   3.7800000000000000E-002    -8.5594691057178096E-011
   3.8100000000000009E-002     2.3640006618919074E-010
   3.8400000000000004E-002    -1.2998309373291050E-010
   3.8699999999999998E-002    -8.8983925783381324E-010
   3.9000000000000007E-002     2.5662396652137431E-009
   3.9300000000000002E-002    -8.4807072475712175E-010
   3.9600000000000003E-002    -1.0782246206986201E-008
   3.9900000000000005E-002     2.2446137393217214E-008
   4.0200000000000000E-002     1.6706010796951887E-008
   4.0500000000000001E-002    -1.2707384655641363E-007
   4.0800000000000003E-002     5.5964164857869036E-008
   4.1100000000000005E-002     5.1833410452672979E-007
   4.1399999999999999E-002    -6.1560007225125446E-007
   4.1700000000000008E-002    -2.2936073946766555E-006
   4.2000000000000003E-002     4.8144493121071719E-006
   4.2299999999999997E-002     2.9250417355797254E-005
   4.2600000000000006E-002     6.3166749896481633E-005
   4.2900000000000001E-002     8.7073160102590919E-005
   4.3200000000000002E-002     9.5624265668448061E-005
   4.3500000000000004E-002     1.1164516035933048E-004
   4.3799999999999999E-002     1.6686726303305477E-004
   4.4100000000000000E-002     2.7229648549109697E-004
   4.4400000000000002E-002     4.1927894926629961E-004
   4.4700000000000004E-002     6.1215460300445557E-004
   4.4999999999999998E-002     8.8175077689811587E-004
   4.5300000000000000E-002     1.2527398066595197E-003
   4.5600000000000002E-002     1.7273986013606191E-003
   4.5899999999999996E-002     2.3250505328178406E-003
   4.6200000000000005E-002     3.0850707553327084E-003
   4.6500000000000000E-002     4.0088663809001446E-003
   4.6799999999999994E-002     5.0576105713844299E-003
   4.7100000000000003E-002     6.1809904873371124E-003
   4.7399999999999998E-002     7.2819632478058338E-003
   4.7700000000000006E-002     8.1899464130401611E-003
   4.8000000000000001E-002     8.6584109812974930E-003
   4.8300000000000010E-002     8.3227325230836868E-003
   4.8600000000000004E-002     6.6900486126542091E-003
   4.8899999999999999E-002     3.1625649426132441E-003
   4.9200000000000008E-002    -2.9756471049040556E-003
   4.9500000000000002E-002    -1.2549703009426594E-002
   4.9800000000000011E-002    -2.6430116966366768E-002
   5.0100000000000006E-002    -4.5466002076864243E-002
   5.0400000000000000E-002    -7.0392772555351257E-002
   5.0700000000000009E-002   -0.10166462510824203     
   5.1000000000000004E-002   -0.13925775885581970     
   5.1299999999999998E-002   -0.18255050480365753     
   5.1600000000000007E-002   -0.23020954430103302     
   5.1900000000000002E-002   -0.27995833754539490     
   5.2200000000000010E-002   -0.32843053340911865     
   5.2500000000000005E-002   -0.37127390503883362     
   5.2800000000000000E-002   -0.40324333310127258     
   5.3099999999999994E-002   -0.41835170984268188     
   5.3400000000000003E-002   -0.41027632355690002     
   5.3699999999999998E-002   -0.37287425994873047     
   5.4000000000000006E-002   -0.30082932114601135     
   5.4300000000000001E-002   -0.19030317664146423     
   5.4599999999999996E-002    -3.9582304656505585E-002
   5.4900000000000004E-002    0.15026211738586426     
   5.5199999999999999E-002    0.37482917308807373     
   5.5499999999999994E-002    0.62624609470367432     
   5.5800000000000002E-002    0.89310574531555176     
   5.6099999999999997E-002     1.1609579324722290     
   5.6400000000000006E-002     1.4130933284759521     
   5.6700000000000000E-002     1.6314491033554077     
   5.6999999999999995E-002     1.7980242967605591     
   5.7300000000000004E-002     1.8963918685913086     
   5.7599999999999998E-002     1.9130694866180420     
   5.7900000000000007E-002     1.8389426469802856     
   5.8200000000000002E-002     1.6704419851303101     
   5.8499999999999996E-002     1.4100067615509033     
   5.8800000000000005E-002     1.0664671659469604     
   5.9100000000000000E-002    0.65485638380050659     
   5.9400000000000008E-002    0.19516845047473907     
   5.9700000000000003E-002   -0.28865051269531250     
   6.0000000000000012E-002   -0.77053397893905640     
   6.0300000000000006E-002    -1.2240597009658813     
   6.0600000000000001E-002    -1.6246068477630615     
   6.0900000000000010E-002    -1.9510052204132080     
   6.1200000000000004E-002    -2.1871769428253174     
   6.1500000000000013E-002    -2.3233041763305664     
   6.1800000000000008E-002    -2.3562047481536865     
   6.2100000000000002E-002    -2.2895879745483398     
   6.2399999999999997E-002    -2.1336262226104736     
   6.2700000000000006E-002    -1.9036607742309570     
   6.3000000000000000E-002    -1.6192082166671753     
   6.3300000000000009E-002    -1.3020341396331787     
   6.3600000000000004E-002   -0.97443467378616333     
   6.3899999999999998E-002   -0.65789103507995605     
   6.4199999999999993E-002   -0.37125986814498901     
   6.4500000000000002E-002   -0.12963190674781799     
   6.4800000000000010E-002     5.6212391704320908E-002
   6.5100000000000005E-002    0.18056571483612061     
   6.5400000000000000E-002    0.24245560169219971     
   6.5700000000000008E-002    0.24530471861362457     
   6.5999999999999989E-002    0.19665950536727905     
   6.6299999999999998E-002    0.10666158050298691     
   6.6600000000000006E-002    -1.2358933687210083E-002
   6.6900000000000001E-002   -0.14680674672126770     
   6.7199999999999996E-002   -0.28327497839927673     
   6.7500000000000004E-002   -0.40857475996017456     
   6.7800000000000013E-002   -0.51082462072372437     
   6.8099999999999994E-002   -0.57986521720886230     
   6.8400000000000002E-002   -0.60730469226837158     
   6.8700000000000011E-002   -0.58714997768402100     
   6.8999999999999992E-002   -0.51581019163131714     
   6.9300000000000000E-002   -0.39196094870567322     
   6.9600000000000009E-002   -0.21700261533260345     
   6.9900000000000004E-002     5.3270002827048302E-003
   7.0199999999999999E-002    0.26869523525238037     
   7.0500000000000007E-002    0.56456464529037476     
   7.0800000000000016E-002    0.88241916894912720     
   7.1099999999999997E-002     1.2097995281219482     
   7.1400000000000005E-002     1.5331246852874756     
   7.1700000000000000E-002     1.8382360935211182     
   7.1999999999999995E-002     2.1105167865753174     
   7.2300000000000003E-002     2.3363690376281738     
   7.2600000000000012E-002     2.5033133029937744     
   7.2900000000000006E-002     2.6005933284759521     
   7.3200000000000001E-002     2.6205122470855713     
   7.3499999999999996E-002     2.5581629276275635     
   7.3800000000000004E-002     2.4119751453399658     
   7.4099999999999999E-002     2.1844422817230225     
   7.4400000000000008E-002     1.8815076351165771     
   7.4700000000000003E-002     1.5127344131469727     
   7.5000000000000011E-002     1.0911247730255127     
   7.5299999999999992E-002    0.63203346729278564     
   7.5600000000000001E-002    0.15305297076702118     
   7.5900000000000009E-002   -0.32708883285522461     
   7.6200000000000004E-002   -0.78992474079132080     
   7.6499999999999999E-002    -1.2175157070159912     
   7.6800000000000007E-002    -1.5940909385681152     
   7.7099999999999988E-002    -1.9068830013275146     
   7.7399999999999997E-002    -2.1463623046875000     
   7.7700000000000005E-002    -2.3074085712432861     
   7.8000000000000014E-002    -2.3889138698577881     
   7.8299999999999995E-002    -2.3938875198364258     
   7.8600000000000003E-002    -2.3292536735534668     
   7.8900000000000012E-002    -2.2044043540954590     
   7.9199999999999993E-002    -2.0308938026428223     
   7.9500000000000001E-002    -1.8212832212448120     
   7.9800000000000010E-002    -1.5876116752624512     
   8.0100000000000018E-002    -1.3413718938827515     
   8.0399999999999999E-002    -1.0918841361999512     
   8.0700000000000008E-002   -0.84588289260864258     
   8.1000000000000003E-002   -0.60833376646041870     
   8.1299999999999997E-002   -0.38123869895935059     
   8.1600000000000006E-002   -0.16460222005844116     
   8.1900000000000014E-002     4.2534582316875458E-002
   8.2199999999999995E-002    0.24245610833168030     
   8.2500000000000004E-002    0.43702283501625061     
   8.2799999999999999E-002    0.62720543146133423     
   8.3100000000000007E-002    0.81341147422790527     
   8.3400000000000002E-002    0.99355256557464600     
   8.3700000000000011E-002     1.1638464927673340     
   8.4000000000000005E-002     1.3192842006683350     
   8.4300000000000000E-002     1.4527398347854614     
   8.4599999999999995E-002     1.5564757585525513     
   8.4900000000000003E-002     1.6226512193679810     
   8.5199999999999998E-002     1.6433719396591187     
   8.5500000000000007E-002     1.6125551462173462     
   8.5800000000000001E-002     1.5260175466537476     
   8.6100000000000010E-002     1.3818465471267700     
   8.6399999999999991E-002     1.1819158792495728     
   8.6699999999999999E-002    0.93127924203872681     
   8.7000000000000008E-002    0.63808095455169678     
   8.7300000000000003E-002    0.31434333324432373     
   8.7599999999999997E-002    -2.5531217455863953E-002
   8.7900000000000006E-002   -0.36534279584884644     
   8.8200000000000014E-002   -0.68745183944702148     
   8.8499999999999995E-002   -0.97453272342681885     
   8.8800000000000004E-002    -1.2105216979980469     
   8.9100000000000013E-002    -1.3813271522521973     
   8.9399999999999993E-002    -1.4765681028366089     
   8.9700000000000002E-002    -1.4899950027465820     
   9.0000000000000011E-002    -1.4198153018951416     
   9.0299999999999991E-002    -1.2695286273956299     
   9.0600000000000000E-002    -1.0473513603210449     
   9.0900000000000009E-002   -0.76570731401443481     
   9.1200000000000017E-002   -0.44106397032737732     
   9.1499999999999998E-002    -9.2272780835628510E-002
   9.1800000000000007E-002    0.26058015227317810     
   9.2100000000000001E-002    0.59701329469680786     
   9.2399999999999996E-002    0.89799886941909790     
   9.2700000000000005E-002     1.1469547748565674     
   9.3000000000000013E-002     1.3307685852050781     
   9.3300000000000008E-002     1.4407829046249390     
   9.3600000000000003E-002     1.4728684425354004     
   9.3899999999999997E-002     1.4278148412704468     
   9.4200000000000006E-002     1.3112864494323730     
   9.4500000000000001E-002     1.1328035593032837     
   9.4800000000000009E-002    0.90528815984725952     
   9.5100000000000004E-002    0.64401561021804810     
   9.5399999999999999E-002    0.36534777283668518     
   9.5699999999999993E-002     8.5822433233261108E-002
   9.6000000000000002E-002   -0.17911954224109650     
   9.6300000000000011E-002   -0.41583678126335144     
   9.6600000000000005E-002   -0.61318290233612061     
   9.6900000000000000E-002   -0.76319384574890137     
   9.7200000000000009E-002   -0.86097383499145508     
   9.7499999999999989E-002   -0.90485018491744995     
   9.7799999999999998E-002   -0.89635807275772095     
   9.8100000000000007E-002   -0.83953684568405151     
   9.8400000000000015E-002   -0.74099624156951904     
   9.8699999999999996E-002   -0.60927045345306396     
   9.9000000000000005E-002   -0.45406913757324219     
   9.9300000000000013E-002   -0.28663349151611328     
   9.9599999999999994E-002   -0.11872047930955887     
   9.9900000000000003E-002     3.8099892437458038E-002
  0.10020000000000001         0.17198428511619568     
  0.10049999999999999         0.27229604125022888     
  0.10080000000000000         0.33002236485481262     
  0.10110000000000001         0.33781287074089050     
  0.10140000000000000         0.29156294465065002     
  0.10170000000000000         0.19030584394931793     
  0.10200000000000001          3.6354120820760727E-002
  0.10230000000000002        -0.16362552344799042     
  0.10260000000000000        -0.39972966909408569     
  0.10290000000000001        -0.65892553329467773     
  0.10320000000000000        -0.92560422420501709     
  0.10350000000000001         -1.1832268238067627     
  0.10380000000000000         -1.4149886369705200     
  0.10410000000000001         -1.6053458452224731     
  0.10440000000000001         -1.7416235208511353     
  0.10470000000000000         -1.8140996694564819     
  0.10500000000000000         -1.8175405263900757     
  0.10530000000000000         -1.7515054941177368     
  0.10560000000000000         -1.6195822954177856     
  0.10590000000000001         -1.4297566413879395     
  0.10620000000000000         -1.1931364536285400     
  0.10650000000000001        -0.92283236980438232     
  0.10679999999999999        -0.63347637653350830     
  0.10710000000000000        -0.33933427929878235     
  0.10740000000000001         -5.3631477057933807E-002
  0.10770000000000000         0.21213608980178833     
  0.10800000000000000         0.44896748661994934     
  0.10830000000000001         0.65061366558074951     
  0.10859999999999999         0.81338292360305786     
  0.10890000000000000         0.93638354539871216     
  0.10920000000000001          1.0208157300949097     
  0.10950000000000001          1.0697749853134155     
  0.10979999999999999          1.0881526470184326     
  0.11009999999999999          1.0813362598419189     
  0.11040000000000001          1.0558707714080811     
  0.11070000000000001          1.0188186168670654     
  0.11100000000000000         0.97686672210693359     
  0.11130000000000000         0.93718594312667847     
  0.11160000000000002         0.90617966651916504     
  0.11190000000000001         0.88927495479583740     
  0.11220000000000001         0.89133912324905396     
  0.11250000000000000         0.91514372825622559     
  0.11280000000000000         0.96166604757308960     
  0.11309999999999999          1.0301395654678345     
  0.11340000000000001          1.1169060468673706     
  0.11369999999999998          1.2164632081985474     
  0.11400000000000000          1.3215048313140869     
  0.11430000000000000          1.4226067066192627     
  0.11460000000000002          1.5103523731231689     
  0.11489999999999999          1.5750924348831177     
  0.11520000000000001          1.6074851751327515     
  0.11550000000000001          1.6006566286087036     
  0.11580000000000000          1.5495649576187134     
  0.11609999999999999          1.4514969587326050     
  0.11640000000000002          1.3070951700210571     
  0.11670000000000001          1.1189036369323730     
  0.11700000000000001         0.89160263538360596     
  0.11730000000000000         0.63181233406066895     
  0.11760000000000000         0.34610247611999512     
  0.11789999999999999          4.1468143463134766E-002
  0.11820000000000001        -0.27512788772583008     
  0.11850000000000001        -0.59795045852661133     
  0.11880000000000000        -0.92141109704971313     
  0.11910000000000000         -1.2401680946350098     
  0.11940000000000002         -1.5487107038497925     
  0.11970000000000001         -1.8398693799972534     
  0.12000000000000001         -2.1054613590240479     
  0.12030000000000000         -2.3350772857666016     
  0.12060000000000000         -2.5156705379486084     
  0.12089999999999999         -2.6331522464752197     
  0.12119999999999999         -2.6723990440368652     
  0.12150000000000001         -2.6185524463653564     
  0.12180000000000001         -2.4595251083374023     
  0.12210000000000000         -2.1869418621063232     
  0.12239999999999999         -1.7983046770095825     
  0.12270000000000002         -1.2986274957656860     
  0.12300000000000001        -0.70062851905822754     
  0.12330000000000001         -2.5461543351411819E-002
  0.12360000000000000         0.69824296236038208     
  0.12390000000000000          1.4363114833831787     
  0.12419999999999999          2.1504316329956055     
  0.12450000000000001          2.8015897274017334     
  0.12480000000000001          3.3527953624725342     
  0.12509999999999999          3.7714045047760010     
  0.12540000000000001          4.0322365760803223     
  0.12570000000000003          4.1187949180603027     
  0.12600000000000000          4.0241613388061523     
  0.12630000000000002          3.7516901493072510     
  0.12659999999999999          3.3135306835174561     
  0.12690000000000001          2.7295489311218262     
  0.12719999999999998          2.0262119770050049     
  0.12750000000000000          1.2335442304611206     
  0.12780000000000002         0.38353928923606873     
  0.12809999999999999        -0.49068722128868103     
  0.12840000000000001         -1.3574222326278687     
  0.12869999999999998         -2.1865656375885010     
  0.12900000000000000         -2.9500081539154053     
  0.12930000000000003         -3.6228339672088623     
  0.12959999999999999         -4.1828932762145996     
  0.12990000000000002         -4.6109156608581543     
  0.13019999999999998         -4.8918390274047852     
  0.13050000000000000         -5.0145292282104492     
  0.13080000000000003         -4.9730563163757324     
  0.13109999999999999         -4.7677969932556152     
  0.13140000000000002         -4.4057793617248535     
  0.13169999999999998         -3.9018836021423340     
  0.13200000000000001         -3.2789335250854492     
  0.13229999999999997         -2.5670814514160156     
  0.13260000000000000         -1.8031256198883057     
  0.13290000000000002         -1.0284942388534546     
  0.13319999999999999        -0.28673925995826721     
  0.13350000000000001         0.37921661138534546     
  0.13380000000000003         0.93081909418106079     
  0.13410000000000000          1.3370504379272461     
  0.13440000000000002          1.5770467519760132     
  0.13469999999999999          1.6432894468307495     
  0.13500000000000001          1.5423825979232788     
  0.13529999999999998          1.2953573465347290     
  0.13560000000000000         0.93711763620376587     
  0.13590000000000002         0.51317811012268066     
  0.13619999999999999          7.7069327235221863E-002
  0.13650000000000001        -0.31435665488243103     
  0.13680000000000003        -0.60668158531188965     
  0.13710000000000000        -0.75189602375030518     
  0.13740000000000002        -0.71376097202301025     
  0.13769999999999999        -0.47224587202072144     
  0.13800000000000001         -2.4866940453648567E-002
  0.13829999999999998         0.61142867803573608     
  0.13860000000000000          1.4005696773529053     
  0.13890000000000002          2.2911081314086914     
  0.13919999999999999          3.2191774845123291     
  0.13950000000000001          4.1139574050903320     
  0.13979999999999998          4.9043765068054199     
  0.14010000000000000          5.5245094299316406     
  0.14040000000000002          5.9193372726440430     
  0.14069999999999999          6.0500888824462891     
  0.14100000000000001          5.8969030380249023     
  0.14130000000000004          5.4607052803039551     
  0.14160000000000000          4.7631564140319824     
  0.14189999999999997          3.8440573215484619     
  0.14219999999999999          2.7578115463256836     
  0.14250000000000002          1.5690367221832275     
  0.14279999999999998         0.34672626852989197     
  0.14310000000000000        -0.84128737449645996     
  0.14339999999999997         -1.9331842660903931     
  0.14369999999999999         -2.8773939609527588     
  0.14400000000000002         -3.6361262798309326     
  0.14429999999999998         -4.1867957115173340     
  0.14460000000000001         -4.5223598480224609     
  0.14490000000000003         -4.6499247550964355     
  0.14520000000000000         -4.5897393226623535     
  0.14550000000000002         -4.3716974258422852     
  0.14579999999999999         -4.0317726135253906     
  0.14610000000000001         -3.6099693775177002     
  0.14640000000000003         -3.1463000774383545     
  0.14670000000000000         -2.6784825325012207     
  0.14699999999999996         -2.2402086257934570     
  0.14729999999999999         -1.8586574792861938     
  0.14760000000000001         -1.5547978878021240     
  0.14789999999999998         -1.3425053358078003     
  0.14820000000000000         -1.2276624441146851     