  -1.4999999999999999E-002     0.0000000000000000     
  -1.4700000000000000E-002     0.0000000000000000     
  -1.4400000000000000E-002     0.0000000000000000     
  -1.4100000000000000E-002     0.0000000000000000     
  -1.3800000000000000E-002     0.0000000000000000     
  -1.3500000000000000E-002     0.0000000000000000     
  -1.3200000000000000E-002     0.0000000000000000     
  -1.2899999999999998E-002     0.0000000000000000     
  -1.2600000000000000E-002     0.0000000000000000     
  -1.2299999999999998E-002     0.0000000000000000     
  -1.2000000000000000E-002     0.0000000000000000     
  -1.1699999999999999E-002     0.0000000000000000     
  -1.1399999999999999E-002     0.0000000000000000     
  -1.1099999999999999E-002     0.0000000000000000     
  -1.0799999999999999E-002     0.0000000000000000     
  -1.0499999999999999E-002     0.0000000000000000     
  -1.0199999999999999E-002     0.0000000000000000     
  -9.8999999999999991E-003     0.0000000000000000     
  -9.5999999999999992E-003     0.0000000000000000     
  -9.2999999999999992E-003     0.0000000000000000     
  -8.9999999999999993E-003     0.0000000000000000     
  -8.6999999999999994E-003     0.0000000000000000     
  -8.3999999999999995E-003     0.0000000000000000     
  -8.0999999999999996E-003     0.0000000000000000     
  -7.7999999999999988E-003     0.0000000000000000     
  -7.4999999999999997E-003     0.0000000000000000     
  -7.1999999999999998E-003     0.0000000000000000     
  -6.8999999999999981E-003     0.0000000000000000     
  -6.5999999999999982E-003     0.0000000000000000     
  -6.3000000000000000E-003     0.0000000000000000     
  -6.0000000000000001E-003     0.0000000000000000     
  -5.6999999999999985E-003     0.0000000000000000     
  -5.3999999999999986E-003     0.0000000000000000     
  -5.1000000000000004E-003     0.0000000000000000     
  -4.7999999999999987E-003     0.0000000000000000     
  -4.5000000000000005E-003     0.0000000000000000     
  -4.1999999999999989E-003     0.0000000000000000     
  -3.8999999999999990E-003     0.0000000000000000     
  -3.5999999999999990E-003     0.0000000000000000     
  -3.2999999999999991E-003     0.0000000000000000     
  -2.9999999999999992E-003     0.0000000000000000     
  -2.6999999999999993E-003     0.0000000000000000     
  -2.3999999999999994E-003     0.0000000000000000     
  -2.0999999999999977E-003     0.0000000000000000     
  -1.7999999999999995E-003     0.0000000000000000     
  -1.4999999999999979E-003     0.0000000000000000     
  -1.1999999999999997E-003     0.0000000000000000     
  -8.9999999999999976E-004     0.0000000000000000     
  -5.9999999999999810E-004     0.0000000000000000     
  -2.9999999999999992E-004     0.0000000000000000     
   0.0000000000000000          0.0000000000000000     
   3.0000000000000165E-004     0.0000000000000000     
   5.9999999999999984E-004     0.0000000000000000     
   9.0000000000000149E-004     0.0000000000000000     
   1.2000000000000031E-003     0.0000000000000000     
   1.5000000000000013E-003     0.0000000000000000     
   1.8000000000000030E-003     0.0000000000000000     
   2.1000000000000012E-003     0.0000000000000000     
   2.3999999999999994E-003     0.0000000000000000     
   2.7000000000000010E-003     0.0000000000000000     
   2.9999999999999992E-003     0.0000000000000000     
   3.3000000000000008E-003     0.0000000000000000     
   3.6000000000000025E-003     0.0000000000000000     
   3.9000000000000007E-003     0.0000000000000000     
   4.2000000000000023E-003     0.0000000000000000     
   4.5000000000000005E-003     0.0000000000000000     
   4.7999999999999987E-003     0.0000000000000000     
   5.1000000000000004E-003     0.0000000000000000     
   5.4000000000000020E-003     0.0000000000000000     
   5.7000000000000037E-003     0.0000000000000000     
   5.9999999999999984E-003     0.0000000000000000     
   6.3000000000000000E-003     0.0000000000000000     
   6.6000000000000017E-003     0.0000000000000000     
   6.9000000000000034E-003     0.0000000000000000     
   7.2000000000000015E-003     0.0000000000000000     
   7.5000000000000032E-003     0.0000000000000000     
   7.8000000000000014E-003     0.0000000000000000     
   8.0999999999999996E-003     0.0000000000000000     
   8.4000000000000012E-003     0.0000000000000000     
   8.7000000000000029E-003     0.0000000000000000     
   9.0000000000000011E-003     0.0000000000000000     
   9.2999999999999992E-003     0.0000000000000000     
   9.6000000000000009E-003     0.0000000000000000     
   9.8999999999999991E-003     0.0000000000000000     
   1.0200000000000001E-002     0.0000000000000000     
   1.0500000000000002E-002     0.0000000000000000     
   1.0800000000000004E-002     0.0000000000000000     
   1.1099999999999999E-002     0.0000000000000000     
   1.1400000000000000E-002     0.0000000000000000     
   1.1700000000000002E-002     0.0000000000000000     
   1.2000000000000004E-002     0.0000000000000000     
   1.2300000000000002E-002     0.0000000000000000     
   1.2600000000000000E-002     0.0000000000000000     
   1.2900000000000002E-002     0.0000000000000000     
   1.3200000000000000E-002     0.0000000000000000     
   1.3500000000000002E-002     0.0000000000000000     
   1.3800000000000003E-002     0.0000000000000000     
   1.4100000000000001E-002     0.0000000000000000     
   1.4400000000000000E-002     0.0000000000000000     
   1.4700000000000001E-002     0.0000000000000000     
   1.4999999999999999E-002     0.0000000000000000     
   1.5300000000000001E-002     0.0000000000000000     
   1.5600000000000003E-002     0.0000000000000000     
   1.5899999999999997E-002     0.0000000000000000     
   1.6199999999999999E-002     0.0000000000000000     
   1.6500000000000001E-002     0.0000000000000000     
   1.6800000000000002E-002     0.0000000000000000     
   1.7100000000000004E-002     0.0000000000000000     
   1.7400000000000006E-002     0.0000000000000000     
   1.7700000000000000E-002     0.0000000000000000     
   1.8000000000000002E-002     0.0000000000000000     
   1.8300000000000004E-002     0.0000000000000000     
   1.8600000000000005E-002     0.0000000000000000     
   1.8900000000000000E-002     0.0000000000000000     
   1.9200000000000002E-002     0.0000000000000000     
   1.9500000000000003E-002     0.0000000000000000     
   1.9799999999999998E-002     0.0000000000000000     
   2.0100000000000000E-002     0.0000000000000000     
   2.0400000000000001E-002     0.0000000000000000     
   2.0700000000000003E-002     5.5729735214493549E-038
   2.0999999999999998E-002    -7.9049770951876259E-037
   2.1299999999999999E-002    -4.6788540863143443E-035
   2.1600000000000001E-002     3.5532852420205723E-035
   2.1900000000000003E-002     1.7972909139664489E-034
   2.2200000000000004E-002    -3.8995211337480268E-034
   2.2500000000000006E-002     1.4831806399984944E-033
   2.2800000000000001E-002    -4.0226224837504869E-033
   2.3100000000000002E-002     7.1065399946564201E-033
   2.3400000000000004E-002    -6.7565585922181619E-033
   2.3699999999999999E-002    -8.6929643953231321E-033
   2.4000000000000000E-002     4.8012390850084610E-032
   2.4300000000000002E-002    -8.3482239344480151E-032
   2.4599999999999997E-002     3.4494940499597568E-032
   2.4900000000000005E-002     1.8669497504335977E-031
   2.5200000000000000E-002    -5.1736821273758192E-031
   2.5499999999999995E-002     5.5405793049454329E-031
   2.5800000000000003E-002     3.5950209558881665E-031
   2.6099999999999998E-002    -2.4261708752949188E-030
   2.6400000000000007E-002     4.1944715411351931E-030
   2.6700000000000002E-002    -2.0463870822956586E-030
   2.6999999999999996E-002    -7.5770146520670300E-030
   2.7300000000000005E-002     2.2189935882732268E-029
   2.7600000000000000E-002    -2.6736117590582643E-029
   2.7900000000000008E-002    -4.1253682719509176E-030
   2.8200000000000003E-002     8.3776231280956964E-029
   2.8499999999999998E-002    -1.7234097440501683E-028
   2.8800000000000006E-002     1.4942830622726341E-028
   2.9100000000000001E-002     1.0594190345565549E-028
   2.9400000000000003E-002    -3.1387304008266548E-028
   2.9700000000000004E-002    -1.2217397565727895E-027
   3.0000000000000006E-002     8.3064495684806397E-027
   3.0300000000000001E-002    -1.9872312159963127E-026
   3.0600000000000002E-002    -4.3222420850438104E-027
   3.0900000000000004E-002     2.0989303456496312E-025
   3.1199999999999999E-002    -8.0203024778038453E-025
   3.1500000000000007E-002     1.4387532137575087E-024
   3.1800000000000002E-002    -1.6705828184191479E-025
   3.2099999999999997E-002    -2.0709634023187030E-024
   3.2400000000000005E-002    -3.4654839426645439E-023
   3.2700000000000000E-002     3.0196853291520700E-022
   3.3000000000000002E-002    -1.2100252859296060E-021
   3.3300000000000003E-002     2.2462723651827519E-021
   3.3599999999999998E-002     4.3473317198033994E-021
   3.3900000000000000E-002    -5.0141892200071649E-020
   3.4200000000000001E-002     1.9970173041879379E-019
   3.4500000000000003E-002    -4.3909274985061824E-019
   3.4799999999999998E-002     1.7049316873363090E-019
   3.5099999999999999E-002     2.8013672923948015E-018
   3.5400000000000001E-002    -1.2343166766639740E-017
   3.5699999999999996E-002     2.7998796494221556E-017
   3.6000000000000004E-002    -2.6071783304328221E-017
   3.6299999999999999E-002    -6.5665130740036163E-017
   3.6600000000000008E-002     3.5492903951441727E-016
   3.6900000000000002E-002    -8.6275446109049139E-016
   3.7199999999999997E-002     1.2995932277307348E-015
   3.7500000000000006E-002    -8.7081408546273447E-016
   3.7800000000000000E-002    -2.1893726455802891E-015
   3.8100000000000009E-002     1.3229565351742002E-014
   3.8400000000000004E-002    -4.7262517386065586E-014
   3.8699999999999998E-002     1.2434919359396307E-013
   3.9000000000000007E-002    -1.9746639219608841E-013
   3.9300000000000002E-002    -6.2372484022250874E-014
   3.9600000000000003E-002     1.4755769306082356E-012
   3.9900000000000005E-002    -4.6788961594046441E-012
   4.0200000000000000E-002     7.0284416307797581E-012
   4.0500000000000001E-002     2.1745335566925039E-012
   4.0800000000000003E-002    -3.8656799983272094E-011
   4.1100000000000005E-002     9.4379566661917380E-011
   4.1399999999999999E-002    -8.6401059917751155E-011
   4.1700000000000008E-002    -1.3799186793228557E-010
   4.2000000000000003E-002     6.1682547958241685E-010
   4.2299999999999997E-002    -9.8442842766388594E-010
   4.2600000000000006E-002     5.0120918526630476E-010
   4.2900000000000001E-002     1.6039255479327608E-009
   4.3200000000000002E-002    -6.7531034098067266E-009
   4.3500000000000004E-002     1.6418262305251119E-008
   4.3799999999999999E-002    -1.4422179006601255E-008
   4.4100000000000000E-002    -6.9485174947203632E-008
   4.4400000000000002E-002     2.5406535542060737E-007
   4.4700000000000004E-002    -1.0106456471703495E-007
   4.4999999999999998E-002    -1.4738677691639168E-006
   4.5300000000000000E-002     3.1078436677489663E-006
   4.5600000000000002E-002     1.8049491700367071E-005
   4.5899999999999996E-002     3.1639308872399852E-005
   4.6200000000000005E-002     3.5357130400370806E-005
   4.6500000000000000E-002     3.9371036109514534E-005
   4.6799999999999994E-002     5.5110926041379571E-005
   4.7100000000000003E-002     8.8712346041575074E-005
   4.7399999999999998E-002     1.3979799405205995E-004
   4.7700000000000006E-002     2.0637056150007993E-004
   4.8000000000000001E-002     3.0856340890750289E-004
   4.8300000000000010E-002     4.6094827121123672E-004
   4.8600000000000004E-002     6.5275246743112803E-004
   4.8899999999999999E-002     9.0024009114131331E-004
   4.9200000000000008E-002     1.2362920679152012E-003
   4.9500000000000002E-002     1.6644964925944805E-003
   4.9800000000000011E-002     2.1818329114466906E-003
   5.0100000000000006E-002     2.8031461406499147E-003
   5.0400000000000000E-002     3.5345877986401320E-003
   5.0700000000000009E-002     4.3375301174819469E-003
   5.1000000000000004E-002     5.1525905728340149E-003
   5.1299999999999998E-002     5.9078680351376534E-003
   5.1600000000000007E-002     6.4782053232192993E-003
   5.1900000000000002E-002     6.6777188330888748E-003
   5.2200000000000010E-002     6.2822061590850353E-003
   5.2500000000000005E-002     5.0218105316162109E-003
   5.2800000000000000E-002     2.5275084190070629E-003
   5.3099999999999994E-002    -1.6077066538855433E-003
   5.3400000000000003E-002    -7.7737914398312569E-003
   5.3699999999999998E-002    -1.6374895349144936E-002
   5.4000000000000006E-002    -2.7766315266489983E-002
   5.4300000000000001E-002    -4.2230077087879181E-002
   5.4599999999999996E-002    -5.9910356998443604E-002
   5.4900000000000004E-002    -8.0724738538265228E-002
   5.5199999999999999E-002   -0.10436724126338959     
   5.5499999999999994E-002   -0.13024766743183136     
   5.5800000000000002E-002   -0.15749050676822662     
   5.6099999999999997E-002   -0.18493884801864624     
   5.6400000000000006E-002   -0.21119786798954010     
   5.6700000000000000E-002   -0.23472014069557190     
   5.6999999999999995E-002   -0.25390520691871643     
   5.7300000000000004E-002   -0.26721301674842834     
   5.7599999999999998E-002   -0.27326700091362000     
   5.7900000000000007E-002   -0.27107384800910950     
   5.8200000000000002E-002   -0.26001131534576416     
   5.8499999999999996E-002   -0.23995989561080933     
   5.8800000000000005E-002   -0.21132020652294159     
   5.9100000000000000E-002   -0.17500624060630798     
   5.9400000000000008E-002   -0.13236488401889801     
   5.9700000000000003E-002    -8.5027374327182770E-002
   6.0000000000000012E-002    -3.4835893660783768E-002
   6.0300000000000006E-002     1.6373304650187492E-002
   6.0600000000000001E-002     6.6759064793586731E-002
   6.0900000000000010E-002    0.11476081609725952     
   6.1200000000000004E-002    0.15896716713905334     
   6.1500000000000013E-002    0.19824454188346863     
   6.1800000000000008E-002    0.23181869089603424     
   6.2100000000000002E-002    0.25890067219734192     
   6.2399999999999997E-002    0.27911293506622314     
   6.2700000000000006E-002    0.29212436079978943     
   6.3000000000000000E-002    0.29772022366523743     
   6.3300000000000009E-002    0.29604855179786682     
   6.3600000000000004E-002    0.28738996386528015     
   6.3899999999999998E-002    0.27251750230789185     
   6.4199999999999993E-002    0.25268363952636719     
   6.4500000000000002E-002    0.22954984009265900     
   6.4800000000000010E-002    0.20552478730678558     
   6.5100000000000005E-002    0.18322959542274475     
   6.5400000000000000E-002    0.16565792262554169     
   6.5700000000000008E-002    0.15562032163143158     
   6.5999999999999989E-002    0.15579049289226532     
   6.6299999999999998E-002    0.16784852743148804     
   6.6600000000000006E-002    0.19277322292327881     
   6.6900000000000001E-002    0.22992449998855591     
   6.7199999999999996E-002    0.27761685848236084     
   6.7500000000000004E-002    0.33264002203941345     
   6.7800000000000013E-002    0.39104643464088440     
   6.8099999999999994E-002    0.44784697890281677     
   6.8400000000000002E-002    0.49829098582267761     
   6.8700000000000011E-002    0.53784638643264771     
   6.8999999999999992E-002    0.56304615736007690     
   6.9300000000000000E-002    0.57194930315017700     
   6.9600000000000009E-002    0.56399691104888916     
   6.9900000000000004E-002    0.54060262441635132     
   7.0199999999999999E-002    0.50441193580627441     
   7.0500000000000007E-002    0.45933532714843750     
   7.0800000000000016E-002    0.40944734215736389     
   7.1099999999999997E-002    0.35858759284019470     
   7.1400000000000005E-002    0.30978265404701233     
   7.1700000000000000E-002    0.26425415277481079     
   7.1999999999999995E-002    0.22153592109680176     
   7.2300000000000003E-002    0.17913386225700378     
   7.2600000000000012E-002    0.13294522464275360     
   7.2900000000000006E-002     7.7988192439079285E-002
   7.3200000000000001E-002     8.6507424712181091E-003
   7.3499999999999996E-002    -7.9527452588081360E-002
   7.3800000000000004E-002   -0.18964424729347229     
   7.4099999999999999E-002   -0.32216775417327881     
   7.4400000000000008E-002   -0.47460615634918213     
   7.4700000000000003E-002   -0.64140379428863525     
   7.5000000000000011E-002   -0.81395632028579712     
   7.5299999999999992E-002   -0.98167252540588379     
   7.5600000000000001E-002    -1.1326564550399780     
   7.5900000000000009E-002    -1.2551054954528809     
   7.6200000000000004E-002    -1.3389105796813965     
   7.6499999999999999E-002    -1.3761738538742065     
   7.6800000000000007E-002    -1.3632346391677856     
   7.7099999999999988E-002    -1.3001799583435059     
   7.7399999999999997E-002    -1.1918025016784668     
   7.7700000000000005E-002    -1.0466039180755615     
   7.8000000000000014E-002   -0.87604653835296631     
   7.8299999999999995E-002   -0.69369786977767944     
   7.8600000000000003E-002   -0.51297557353973389     
   7.8900000000000012E-002   -0.34652528166770935     
   7.9199999999999993E-002   -0.20426811277866364     
   7.9500000000000001E-002    -9.2243537306785583E-002
   7.9800000000000010E-002    -1.3089329935610294E-002
   8.0100000000000018E-002     3.5642590373754501E-002
   8.0399999999999999E-002     5.9536956250667572E-002
   8.0700000000000008E-002     6.7348822951316833E-002
   8.1000000000000003E-002     6.9236107170581818E-002
   8.1299999999999997E-002     7.5464457273483276E-002
   8.1600000000000006E-002     9.5161229372024536E-002
   8.1900000000000014E-002    0.13463714718818665     
   8.2199999999999995E-002    0.19669032096862793     
   8.2500000000000004E-002    0.28046801686286926     
   8.2799999999999999E-002    0.38044682145118713     
   8.3100000000000007E-002    0.48867776989936829     
   8.3400000000000002E-002    0.59362131357192993     
   8.3700000000000011E-002    0.68361121416091919     
   8.4000000000000005E-002    0.74624985456466675     
   8.4300000000000000E-002    0.77147835493087769     
   8.4599999999999995E-002    0.75185787677764893     
   8.4900000000000003E-002    0.68334370851516724     
   8.5199999999999998E-002    0.56677687168121338     
   8.5500000000000007E-002    0.40670418739318848     
   8.5800000000000001E-002    0.21185599267482758     
   8.6100000000000010E-002    -5.9279045090079308E-003
   8.6399999999999991E-002   -0.23304767906665802     
   8.6699999999999999E-002   -0.45441818237304688     
   8.7000000000000008E-002   -0.65582638978958130     
   8.7300000000000003E-002   -0.82438045740127563     
   8.7599999999999997E-002   -0.94921624660491943     
   8.7900000000000006E-002    -1.0230998992919922     
   8.8200000000000014E-002    -1.0414229631423950     
   8.8499999999999995E-002    -1.0037896633148193     
   8.8800000000000004E-002   -0.91240030527114868     
   8.9100000000000013E-002   -0.77264541387557983     
   8.9399999999999993E-002   -0.59233236312866211     
   8.9700000000000002E-002   -0.38041856884956360     
   9.0000000000000011E-002   -0.14775589108467102     
   9.0299999999999991E-002     9.5099762082099915E-002
   9.0600000000000000E-002    0.33709868788719177     
   9.0900000000000009E-002    0.56786447763442993     
   9.1200000000000017E-002    0.77792352437973022     
   9.1499999999999998E-002    0.95817905664443970     
   9.1800000000000007E-002     1.1020634174346924     
   9.2100000000000001E-002     1.2031866312026978     
   9.2399999999999996E-002     1.2577536106109619     
   9.2700000000000005E-002     1.2638592720031738     
   9.3000000000000013E-002     1.2211614847183228     
   9.3300000000000008E-002     1.1324175596237183     
   9.3600000000000003E-002     1.0021896362304688     
   9.3899999999999997E-002    0.83801180124282837     
   9.4200000000000006E-002    0.64970058202743530     
   9.4500000000000001E-002    0.44858628511428833     
   9.4800000000000009E-002    0.24872356653213501     
   9.5100000000000004E-002     6.3600406050682068E-002
   9.5399999999999999E-002    -9.2274308204650879E-002
   9.5699999999999993E-002   -0.20598505437374115     
   9.6000000000000002E-002   -0.26674339175224304     
   9.6300000000000011E-002   -0.26680541038513184     
   9.6600000000000005E-002   -0.20293423533439636     
   9.6900000000000000E-002    -7.5934484601020813E-002
   9.7200000000000009E-002    0.10779854655265808     
   9.7499999999999989E-002    0.33716362714767456     
   9.7799999999999998E-002    0.59704309701919556     
   9.8100000000000007E-002    0.86815708875656128     
   9.8400000000000015E-002     1.1302984952926636     
   9.8699999999999996E-002     1.3616195917129517     
   9.9000000000000005E-002     1.5423104763031006     
   9.9300000000000013E-002     1.6547449827194214     
   9.9599999999999994E-002     1.6856504678726196     
   9.9900000000000003E-002     1.6272985935211182     
  0.10020000000000001          1.4774286746978760     
  0.10049999999999999          1.2404185533523560     
  0.10080000000000000         0.92612636089324951     
  0.10110000000000001         0.54936456680297852     
  0.10140000000000000         0.12939111888408661     
  0.10170000000000000        -0.31300649046897888     
  0.10200000000000001        -0.75528222322463989     
  0.10230000000000002         -1.1761338710784912     
  0.10260000000000000         -1.5558705329895020     
  0.10290000000000001         -1.8779048919677734     
  0.10320000000000000         -2.1300306320190430     
  0.10350000000000001         -2.3030741214752197     
  0.10380000000000000         -2.3937814235687256     
  0.10410000000000001         -2.4018983840942383     
  0.10440000000000001         -2.3312087059020996     
  0.10470000000000000         -2.1892290115356445     
  0.10500000000000000         -1.9849973917007446     
  0.10530000000000000         -1.7308084964752197     
  0.10560000000000000         -1.4389431476593018     
  0.10590000000000001         -1.1235857009887695     
  0.10620000000000000        -0.79871958494186401     
  0.10650000000000001        -0.47781324386596680     
  0.10679999999999999        -0.17473654448986053     
  0.10710000000000000          9.9033527076244354E-002
  0.10740000000000001         0.33227619528770447     
  0.10770000000000000         0.51650065183639526     
  0.10800000000000000         0.64569824934005737     
  0.10830000000000001         0.71573847532272339     
  0.10859999999999999         0.72681850194931030     
  0.10890000000000000         0.68133723735809326     
  0.10920000000000001         0.58486366271972656     
  0.10950000000000001         0.44663679599761963     
  0.10979999999999999         0.27696898579597473     
  0.11009999999999999          8.9334398508071899E-002
  0.11040000000000001        -0.10312971472740173     
  0.11070000000000001        -0.28603291511535645     
  0.11100000000000000        -0.44617074728012085     
  0.11130000000000000        -0.57193952798843384     
  0.11160000000000002        -0.65294390916824341     
  0.11190000000000001        -0.68255835771560669     
  0.11220000000000001        -0.65586465597152710     
  0.11250000000000000        -0.57176506519317627     
  0.11280000000000000        -0.43182539939880371     
  0.11309999999999999        -0.24014651775360107     
  0.11340000000000001         -4.1822092607617378E-003
  0.11369999999999998         0.26717671751976013     
  0.11400000000000000         0.56306165456771851     
  0.11430000000000000         0.87029856443405151     
  0.11460000000000002          1.1761250495910645     
  0.11489999999999999          1.4653495550155640     
  0.11520000000000001          1.7241979837417603     
  0.11550000000000001          1.9377533197402954     
  0.11580000000000000          2.0930724143981934     
  0.11609999999999999          2.1781303882598877     
  0.11640000000000002          2.1827261447906494     
  0.11670000000000001          2.1004557609558105     
  0.11700000000000001          1.9271543025970459     
  0.11730000000000000          1.6635806560516357     
  0.11760000000000000          1.3146436214447021     
  0.11789999999999999         0.88935697078704834     
  0.11820000000000001         0.40195873379707336     
  0.11850000000000001        -0.12979947030544281     
  0.11880000000000000        -0.68452191352844238     
  0.11910000000000000         -1.2383284568786621     
  0.11940000000000002         -1.7667224407196045     
  0.11970000000000001         -2.2443618774414062     
  0.12000000000000001         -2.6491210460662842     
  0.12030000000000000         -2.9604089260101318     
  0.12060000000000000         -3.1631171703338623     
  0.12089999999999999         -3.2474908828735352     
  0.12119999999999999         -3.2089242935180664     
  0.12150000000000001         -3.0507087707519531     
  0.12180000000000001         -2.7805490493774414     
  0.12210000000000000         -2.4137852191925049     
  0.12239999999999999         -1.9683903455734253     
  0.12270000000000002         -1.4673941135406494     
  0.12300000000000001        -0.93448227643966675     
  0.12330000000000001        -0.39434754848480225     
  0.12360000000000000         0.12970159947872162     
  0.12390000000000000         0.61725115776062012     
  0.12419999999999999          1.0512379407882690     
  0.12450000000000001          1.4191472530364990     
  0.12480000000000001          1.7134147882461548     
  0.12509999999999999          1.9311243295669556     
  0.12540000000000001          2.0737395286560059     
  0.12570000000000003          2.1473309993743896     
  0.12600000000000000          2.1596119403839111     
  0.12630000000000002          2.1220970153808594     
  0.12659999999999999          2.0462095737457275     
  0.12690000000000001          1.9448390007019043     
  0.12719999999999998          1.8296476602554321     
  0.12750000000000000          1.7120624780654907     
  0.12780000000000002          1.6018333435058594     
  0.12809999999999999          1.5066635608673096     
  0.12840000000000001          1.4322741031646729     
  0.12869999999999998          1.3820619583129883     
  0.12900000000000000          1.3556584119796753     
  0.12930000000000003          1.3515030145645142     
  0.12959999999999999          1.3629744052886963     
  0.12990000000000002          1.3822824954986572     
  0.13019999999999998          1.3979369401931763     
  0.13050000000000000          1.3969882726669312     
  0.13080000000000003          1.3651033639907837     
  0.13109999999999999          1.2880735397338867     
  0.13140000000000002          1.1529517173767090     
  0.13169999999999998         0.94947534799575806     
  0.13200000000000001         0.67144954204559326     
  0.13229999999999997         0.31832203269004822     
  0.13260000000000000        -0.10499992966651917     
  0.13290000000000002        -0.58594113588333130     
  0.13319999999999999         -1.1061996221542358     
  0.13350000000000001         -1.6415959596633911     
  0.13380000000000003         -2.1629111766815186     
  0.13410000000000000         -2.6392688751220703     
  0.13440000000000002         -3.0381627082824707     
  0.13469999999999999         -3.3303184509277344     
  0.13500000000000001         -3.4900259971618652     
  0.13529999999999998         -3.4989397525787354     
  0.13560000000000000         -3.3474309444427490     
  0.13590000000000002         -3.0358819961547852     
  0.13619999999999999         -2.5754625797271729     
  0.13650000000000001         -1.9884276390075684     
  0.13680000000000003         -1.3057562112808228     
  0.13710000000000000        -0.56752783060073853     
  0.13740000000000002         0.18236726522445679     
  0.13769999999999999         0.89628458023071289     
  0.13800000000000001          1.5293151140213013     
  0.13829999999999998          2.0398900508880615     
  0.13860000000000000          2.3945963382720947     
  0.13890000000000002          2.5709736347198486     
  0.13919999999999999          2.5575845241546631     
  0.13950000000000001          2.3573672771453857     
  0.13979999999999998          1.9852607250213623     
  0.14010000000000000          1.4687449932098389     
  0.14040000000000002         0.84429311752319336     
  0.14069999999999999         0.15528632700443268     
  0.14100000000000001        -0.55176627635955811     
  0.14130000000000004         -1.2309634685516357     
  0.14160000000000000         -1.8407677412033081     
  0.14189999999999997         -2.3456673622131348     
  0.14219999999999999         -2.7221026420593262     
  0.14250000000000002         -2.9546024799346924     
  0.14279999999999998         -3.0421080589294434     
  0.14310000000000000         -2.9921028614044189     
  0.14339999999999997         -2.8230657577514648     
  0.14369999999999999         -2.5597815513610840     
  0.14400000000000002         -2.2319023609161377     
  0.14429999999999998         -1.8706281185150146     
  0.14460000000000001         -1.5056661367416382     
  0.14490000000000003         -1.1633509397506714     
  0.14520000000000000        -0.86421352624893188     
  0.14550000000000002        -0.62167644500732422     
  0.14579999999999999        -0.44234269857406616     
  0.14610000000000001        -0.32528132200241089     
  0.14640000000000003        -0.26360344886779785     
  0.14670000000000000        -0.24555638432502747     
  0.14699999999999996        -0.25565975904464722     
  0.14729999999999999        -0.27742519974708557     
  0.14760000000000001        -0.29400274157524109     
  0.14789999999999998        -0.28982877731323242     
  0.14820000000000000        -0.25258162617683411     