  -1.4999999999999999E-002     0.0000000000000000     
  -1.4700000000000000E-002     0.0000000000000000     
  -1.4400000000000000E-002     0.0000000000000000     
  -1.4100000000000000E-002     0.0000000000000000     
  -1.3800000000000000E-002     0.0000000000000000     
  -1.3500000000000000E-002     0.0000000000000000     
  -1.3200000000000000E-002     0.0000000000000000     
  -1.2899999999999998E-002     0.0000000000000000     
  -1.2600000000000000E-002     0.0000000000000000     
  -1.2299999999999998E-002     0.0000000000000000     
  -1.2000000000000000E-002     0.0000000000000000     
  -1.1699999999999999E-002     0.0000000000000000     
  -1.1399999999999999E-002     0.0000000000000000     
  -1.1099999999999999E-002     0.0000000000000000     
  -1.0799999999999999E-002     0.0000000000000000     
  -1.0499999999999999E-002     0.0000000000000000     
  -1.0199999999999999E-002     0.0000000000000000     
  -9.8999999999999991E-003     0.0000000000000000     
  -9.5999999999999992E-003     0.0000000000000000     
  -9.2999999999999992E-003     0.0000000000000000     
  -8.9999999999999993E-003     0.0000000000000000     
  -8.6999999999999994E-003     0.0000000000000000     
  -8.3999999999999995E-003     0.0000000000000000     
  -8.0999999999999996E-003     0.0000000000000000     
  -7.7999999999999988E-003     0.0000000000000000     
  -7.4999999999999997E-003     0.0000000000000000     
  -7.1999999999999998E-003     0.0000000000000000     
  -6.8999999999999981E-003     0.0000000000000000     
  -6.5999999999999982E-003     0.0000000000000000     
  -6.3000000000000000E-003     0.0000000000000000     
  -6.0000000000000001E-003     0.0000000000000000     
  -5.6999999999999985E-003     0.0000000000000000     
  -5.3999999999999986E-003     0.0000000000000000     
  -5.1000000000000004E-003     0.0000000000000000     
  -4.7999999999999987E-003     0.0000000000000000     
  -4.5000000000000005E-003     0.0000000000000000     
  -4.1999999999999989E-003     0.0000000000000000     
  -3.8999999999999990E-003     0.0000000000000000     
  -3.5999999999999990E-003     0.0000000000000000     
  -3.2999999999999991E-003     0.0000000000000000     
  -2.9999999999999992E-003     3.2190639532857412E-038
  -2.6999999999999993E-003     1.1894837667464045E-035
  -2.3999999999999994E-003     1.3801790265747713E-035
  -2.0999999999999977E-003    -1.0930391618306139E-034
  -1.7999999999999995E-003     6.0171087739633652E-035
  -1.4999999999999979E-003     5.0360262654989583E-034
  -1.1999999999999997E-003    -2.0647253378346236E-033
  -8.9999999999999976E-004     8.2909563476014487E-033
  -5.9999999999999810E-004    -3.0914655070693569E-032
  -2.9999999999999992E-004     5.6407107349349173E-032
   0.0000000000000000         -2.7534112580617171E-032
   3.0000000000000165E-004    -6.9026656339960611E-032
   5.9999999999999984E-004     2.3057220598864999E-031
   9.0000000000000149E-004    -5.5018025674982476E-031
   1.2000000000000031E-003     5.2626449504392709E-031
   1.5000000000000013E-003     1.0830728472205244E-030
   1.8000000000000030E-003    -3.5154879485070112E-030
   2.1000000000000012E-003     4.1115470914925934E-030
   2.3999999999999994E-003     1.0103259217068921E-030
   2.7000000000000010E-003    -3.0046700887018158E-029
   2.9999999999999992E-003     8.5428293987252334E-029
   3.3000000000000008E-003    -3.9639002614360915E-029
   3.6000000000000025E-003    -3.0106661706571116E-028
   3.9000000000000007E-003     7.7140365027785397E-028
   4.2000000000000023E-003    -4.7896982159486416E-028
   4.5000000000000005E-003    -1.9417414440446662E-027
   4.7999999999999987E-003     5.7710244264530641E-027
   5.1000000000000004E-003    -3.1129433544292763E-027
   5.4000000000000020E-003    -1.5532906957626915E-026
   5.7000000000000037E-003     3.3661043033914519E-026
   5.9999999999999984E-003    -1.0608176208080446E-028
   6.3000000000000000E-003    -9.9673943555307334E-026
   6.6000000000000017E-003     1.3627908636172862E-025
   6.9000000000000034E-003     1.1535739814557107E-025
   7.2000000000000015E-003    -5.4778856245954409E-025
   7.5000000000000032E-003     2.6376976920122941E-025
   7.8000000000000014E-003     1.4020334149488942E-024
   8.0999999999999996E-003    -2.2430999515860748E-024
   8.4000000000000012E-003    -2.0368402377872366E-024
   8.7000000000000029E-003     9.1754936241152590E-024
   9.0000000000000011E-003    -3.5141276304353682E-024
   9.2999999999999992E-003    -2.6552714126384581E-023
   9.6000000000000009E-003     4.4049383946922469E-023
   9.8999999999999991E-003     3.8733108311675130E-023
   1.0200000000000001E-002    -2.1046184173459660E-022
   1.0500000000000002E-002     1.6047904679994153E-022
   1.0800000000000004E-002     4.9717205031617602E-022
   1.1099999999999999E-002    -1.3170933754927427E-021
   1.1400000000000000E-002     4.3991478401035625E-022
   1.1700000000000002E-002     3.5640789214209124E-021
   1.2000000000000004E-002    -7.1910300317443904E-021
   1.2300000000000002E-002     7.7414371422481687E-022
   1.2600000000000000E-002     2.0084084213281027E-020
   1.2900000000000002E-002    -3.4544700585568203E-020
   1.3200000000000000E-002    -7.3820780570885958E-022
   1.3500000000000002E-002     9.4722164465809125E-020
   1.3800000000000003E-002    -1.4688149201876079E-019
   1.4100000000000001E-002    -1.4632043091890256E-020
   1.4400000000000000E-002     3.8790014440214818E-019
   1.4700000000000001E-002    -5.5058971708634796E-019
   1.4999999999999999E-002    -8.8426492823668032E-020
   1.5300000000000001E-002     1.3838214660129307E-018
   1.5600000000000003E-002    -1.8193066227182638E-018
   1.5899999999999997E-002    -3.5529082349892959E-019
   1.6199999999999999E-002     4.3006646194862069E-018
   1.6500000000000001E-002    -5.3444921062729981E-018
   1.6800000000000002E-002    -9.4788559927133284E-019
   1.7100000000000004E-002     1.1495565546304616E-017
   1.7400000000000006E-002    -1.4355254655353540E-017
   1.7700000000000000E-002    -5.3435536698680567E-019
   1.8000000000000002E-002     2.6435830454996484E-017
   1.8300000000000004E-002    -3.7937315305764529E-017
   1.8600000000000005E-002     9.4573412317759773E-018
   1.8900000000000000E-002     5.6727702301751816E-017
   1.9200000000000002E-002    -1.0875238651277214E-016
   1.9500000000000003E-002     5.3172532968558106E-017
   1.9799999999999998E-002     1.5616656451276890E-016
   2.0100000000000000E-002    -3.5460348769509600E-016
   2.0400000000000001E-002     1.6235353138753072E-016
   2.0700000000000003E-002     5.9954622545082843E-016
   2.0999999999999998E-002    -1.4432046993223860E-015
   2.1299999999999999E-002     1.3007164992979124E-015
   2.1600000000000001E-002     1.9086616916954777E-015
   2.1900000000000003E-002    -1.1735518664430979E-014
   2.2200000000000004E-002     2.0942491515377366E-014
   2.2500000000000006E-002     1.7158614074941694E-014
   2.2800000000000001E-002    -1.4280120326243956E-013
   2.3100000000000002E-002     1.5147196105909366E-013
   2.3400000000000004E-002     4.2367289689558552E-013
   2.3699999999999999E-002    -1.1071030160333950E-012
   2.4000000000000000E-002    -6.1306721418213916E-013
   2.4300000000000002E-002     4.4166237507525796E-012
   2.4599999999999997E-002     5.3984404837018052E-013
   2.4900000000000005E-002    -1.6453019502371546E-011
   2.5200000000000000E-002    -5.2809510237006307E-012
   2.5499999999999995E-002     8.0887241349358874E-011
   2.5800000000000003E-002     3.7988785728249042E-011
   2.6099999999999998E-002    -4.8417120313004602E-010
   2.6400000000000007E-002    -6.7493559352538313E-011
   2.6700000000000002E-002     2.7872268937301214E-009
   2.6999999999999996E-002    -9.3884566787494350E-010
   2.7300000000000005E-002    -1.4242571566569495E-008
   2.7600000000000000E-002     9.8863424113915244E-009
   2.7900000000000008E-002     6.3072469913549867E-008
   2.8200000000000003E-002    -6.6572674484177696E-008
   2.8499999999999998E-002    -2.8609764513021219E-007
   2.8800000000000006E-002     4.3385460912759299E-007
   2.9100000000000001E-002     2.8186539111629827E-006
   2.9400000000000003E-002     5.8907949096465018E-006
   2.9700000000000004E-002     9.4907145467004739E-006
   3.0000000000000006E-002     1.6244533981080167E-005
   3.0300000000000001E-002     2.6900219381786883E-005
   3.0600000000000002E-002     3.8693982787663117E-005
   3.0900000000000004E-002     5.3308252972783521E-005
   3.1199999999999999E-002     7.8259399742819369E-005
   3.1500000000000007E-002     1.1789397831307724E-004
   3.1800000000000002E-002     1.7399876378476620E-004
   3.2099999999999997E-002     2.5359904975630343E-004
   3.2400000000000005E-002     3.6731609725393355E-004
   3.2700000000000000E-002     5.2564108045771718E-004
   3.3000000000000002E-002     7.3725526453927159E-004
   3.3300000000000003E-002     1.0074252495542169E-003
   3.3599999999999998E-002     1.3476026942953467E-003
   3.3900000000000000E-002     1.7761494964361191E-003
   3.4200000000000001E-002     2.2928242105990648E-003
   3.4500000000000003E-002     2.8777893166989088E-003
   3.4799999999999998E-002     3.5190342459827662E-003
   3.5099999999999999E-002     4.1967150755226612E-003
   3.5400000000000001E-002     4.8427977599203587E-003
   3.5699999999999996E-002     5.3408369421958923E-003
   3.6000000000000004E-002     5.5431476794183254E-003
   3.6299999999999999E-002     5.2662896923720837E-003
   3.6600000000000008E-002     4.2721298523247242E-003
   3.6900000000000002E-002     2.2546232212334871E-003
   3.7199999999999997E-002    -1.1421693488955498E-003
   3.7500000000000006E-002    -6.3128368929028511E-003
   3.7800000000000000E-002    -1.3692754320800304E-002
   3.8100000000000009E-002    -2.3728037253022194E-002
   3.8400000000000004E-002    -3.6827083677053452E-002
   3.8699999999999998E-002    -5.3338047116994858E-002
   3.9000000000000007E-002    -7.3525793850421906E-002
   3.9300000000000002E-002    -9.7529150545597076E-002
   3.9600000000000003E-002   -0.12532293796539307     
   3.9900000000000005E-002   -0.15668727457523346     
   4.0200000000000000E-002   -0.19122327864170074     
   4.0500000000000001E-002   -0.22836324572563171     
   4.0800000000000003E-002   -0.26735299825668335     
   4.1100000000000005E-002   -0.30730596184730530     
   4.1399999999999999E-002   -0.34726935625076294     
   4.1700000000000008E-002   -0.38625580072402954     
   4.2000000000000003E-002   -0.42328053712844849     
   4.2299999999999997E-002   -0.45735961198806763     
   4.2600000000000006E-002   -0.48749598860740662     
   4.2900000000000001E-002   -0.51266133785247803     
   4.3200000000000002E-002   -0.53175663948059082     
   4.3500000000000004E-002   -0.54348808526992798     
   4.3799999999999999E-002   -0.54626113176345825     
   4.4100000000000000E-002   -0.53818482160568237     
   4.4400000000000002E-002   -0.51696121692657471     
   4.4700000000000004E-002   -0.48005279898643494     
   4.4999999999999998E-002   -0.42463046312332153     
   4.5300000000000000E-002   -0.34800186753273010     
   4.5600000000000002E-002   -0.24781499803066254     
   4.5899999999999996E-002   -0.12243323028087616     
   4.6200000000000005E-002     2.8532925993204117E-002
   4.6500000000000000E-002    0.20390377938747406     
   4.6799999999999994E-002    0.40050360560417175     
   4.7100000000000003E-002    0.61299723386764526     
   4.7399999999999998E-002    0.83394795656204224     
   4.7700000000000006E-002     1.0538179874420166     
   4.8000000000000001E-002     1.2616260051727295     
   4.8300000000000010E-002     1.4454917907714844     
   4.8600000000000004E-002     1.5935995578765869     
   4.8899999999999999E-002     1.6950955390930176     
   4.9200000000000008E-002     1.7411544322967529     
   4.9500000000000002E-002     1.7259007692337036     
   4.9800000000000011E-002     1.6471337080001831     
   5.0100000000000006E-002     1.5068237781524658     
   5.0400000000000000E-002     1.3111088275909424     
   5.0700000000000009E-002     1.0702167749404907     
   5.1000000000000004E-002    0.79768162965774536     
   5.1299999999999998E-002    0.50944888591766357     
   5.1600000000000007E-002    0.22278392314910889     
   5.1900000000000002E-002    -4.5160535722970963E-002
   5.2200000000000010E-002   -0.27852258086204529     
   5.2500000000000005E-002   -0.46392738819122314     
   5.2800000000000000E-002   -0.59154886007308960     
   5.3099999999999994E-002   -0.65548825263977051     
   5.3400000000000003E-002   -0.65446186065673828     
   5.3699999999999998E-002   -0.59127372503280640     
   5.4000000000000006E-002   -0.47286799550056458     
   5.4300000000000001E-002   -0.30937942862510681     
   5.4599999999999996E-002   -0.11353587359189987     
   5.4900000000000004E-002    0.10034552216529846     
   5.5199999999999999E-002    0.31715312600135803     
   5.5499999999999994E-002    0.52203136682510376     
   5.5800000000000002E-002    0.70098394155502319     
   5.6099999999999997E-002    0.84150308370590210     
   5.6400000000000006E-002    0.93332493305206299     
   5.6700000000000000E-002    0.96843725442886353     
   5.6999999999999995E-002    0.94192969799041748     
   5.7300000000000004E-002    0.85152691602706909     
   5.7599999999999998E-002    0.69832742214202881     
   5.7900000000000007E-002    0.48626068234443665     
   5.8200000000000002E-002    0.22242644429206848     
   5.8499999999999996E-002    -8.3599060773849487E-002
   5.8800000000000005E-002   -0.41975492238998413     
   5.9100000000000000E-002   -0.77241909503936768     
   5.9400000000000008E-002    -1.1269317865371704     
   5.9700000000000003E-002    -1.4684020280838013     
   6.0000000000000012E-002    -1.7826833724975586     
   6.0300000000000006E-002    -2.0570983886718750     
   6.0600000000000001E-002    -2.2811827659606934     
   6.0900000000000010E-002    -2.4472856521606445     
   6.1200000000000004E-002    -2.5507419109344482     
   6.1500000000000013E-002    -2.5901849269866943     
   6.1800000000000008E-002    -2.5671813488006592     
   6.2100000000000002E-002    -2.4858150482177734     
   6.2399999999999997E-002    -2.3523485660552979     
   6.2700000000000006E-002    -2.1743655204772949     
   6.3000000000000000E-002    -1.9603220224380493     
   6.3300000000000009E-002    -1.7189888954162598     
   6.3600000000000004E-002    -1.4592175483703613     
   6.3899999999999998E-002    -1.1893898248672485     
   6.4199999999999993E-002   -0.91787308454513550     
   6.4500000000000002E-002   -0.65226888656616211     
   6.4800000000000010E-002   -0.40047034621238708     
   6.5100000000000005E-002   -0.16946060955524445     
   6.5400000000000000E-002     3.3754125237464905E-002
   6.5700000000000008E-002    0.20334361493587494     
   6.5999999999999989E-002    0.33442118763923645     
   6.6299999999999998E-002    0.42417478561401367     
   6.6600000000000006E-002    0.47219029068946838     
   6.6900000000000001E-002    0.48111575841903687     
   6.7199999999999996E-002    0.45715701580047607     
   6.7500000000000004E-002    0.40968006849288940     
   6.7800000000000013E-002    0.35173922777175903     
   6.8099999999999994E-002    0.29833945631980896     
   6.8400000000000002E-002    0.26632249355316162     
   6.8700000000000011E-002    0.27183642983436584     
   6.8999999999999992E-002    0.32967844605445862     
   6.9300000000000000E-002    0.45091861486434937     
   6.9600000000000009E-002    0.64161926507949829     
   6.9900000000000004E-002    0.90182060003280640     
   7.0199999999999999E-002     1.2245907783508301     
   7.0500000000000007E-002     1.5965251922607422     
   7.0800000000000016E-002     1.9977078437805176     
   7.1099999999999997E-002     2.4038996696472168     
   7.1400000000000005E-002     2.7876231670379639     
   7.1700000000000000E-002     3.1207032203674316     
   7.1999999999999995E-002     3.3766777515411377     
   7.2300000000000003E-002     3.5324690341949463     
   7.2600000000000012E-002     3.5713045597076416     
   7.2900000000000006E-002     3.4830417633056641     
   7.3200000000000001E-002     3.2660996913909912     
   7.3499999999999996E-002     2.9268791675567627     
   7.3800000000000004E-002     2.4797039031982422     
   7.4099999999999999E-002     1.9458463191986084     
   7.4400000000000008E-002     1.3513634204864502     
   7.4700000000000003E-002    0.72618252038955688     
   7.5000000000000011E-002    0.10102188587188721     
   7.5299999999999992E-002   -0.49396216869354248     
   7.5600000000000001E-002    -1.0318521261215210     
   7.5900000000000009E-002    -1.4899703264236450     
   7.6200000000000004E-002    -1.8516765832901001     
   7.6499999999999999E-002    -2.1072008609771729     
   7.6800000000000007E-002    -2.2537846565246582     
   7.7099999999999988E-002    -2.2958395481109619     
   7.7399999999999997E-002    -2.2436330318450928     
   7.7700000000000005E-002    -2.1127858161926270     
   7.8000000000000014E-002    -1.9224008321762085     
   7.8299999999999995E-002    -1.6927056312561035     
   7.8600000000000003E-002    -1.4440650939941406     
   7.8900000000000012E-002    -1.1940829753875732     
   7.9199999999999993E-002   -0.95667189359664917     
   7.9500000000000001E-002   -0.74054944515228271     
   7.9800000000000010E-002   -0.54824227094650269     
   8.0100000000000018E-002   -0.37691515684127808     
   8.0399999999999999E-002   -0.21803878247737885     
   8.0700000000000008E-002    -5.9918578714132309E-002
   8.1000000000000003E-002    0.11168029904365540     
   8.1299999999999997E-002    0.31011125445365906     
   8.1600000000000006E-002    0.54636156558990479     
   8.1900000000000014E-002    0.82656294107437134     
   8.2199999999999995E-002     1.1499953269958496     
   8.2500000000000004E-002     1.5088262557983398     
   8.2799999999999999E-002     1.8866519927978516     
   8.3100000000000007E-002     2.2608139514923096     
   8.3400000000000002E-002     2.6022849082946777     
   8.3700000000000011E-002     2.8798847198486328     
   8.4000000000000005E-002     3.0618095397949219     
   8.4300000000000000E-002     3.1197082996368408     
   8.4599999999999995E-002     3.0321485996246338     
   8.4900000000000003E-002     2.7858805656433105     
   8.5199999999999998E-002     2.3801014423370361     
   8.5500000000000007E-002     1.8250160217285156     
   8.5800000000000001E-002     1.1433733701705933     
   8.6100000000000010E-002    0.36785003542900085     
   8.6399999999999991E-002   -0.46080583333969116     
   8.6699999999999999E-002    -1.2978335618972778     
   8.7000000000000008E-002    -2.0977933406829834     
   8.7300000000000003E-002    -2.8190367221832275     
   8.7599999999999997E-002    -3.4270095825195312     
   8.7900000000000006E-002    -3.8971891403198242     
   8.8200000000000014E-002    -4.2170457839965820     
   8.8499999999999995E-002    -4.3866090774536133     
   8.8800000000000004E-002    -4.4175434112548828     
   8.9100000000000013E-002    -4.3313097953796387     
   8.9399999999999993E-002    -4.1564092636108398     
   8.9700000000000002E-002    -3.9245553016662598     
   9.0000000000000011E-002    -3.6674792766571045     
   9.0299999999999991E-002    -3.4128925800323486     
   9.0600000000000000E-002    -3.1823759078979492     
   9.0900000000000009E-002    -2.9886963367462158     
   9.1200000000000017E-002    -2.8358540534973145     
   9.1499999999999998E-002    -2.7183868885040283     
   9.1800000000000007E-002    -2.6232407093048096     
   9.2100000000000001E-002    -2.5318796634674072     
   9.2399999999999996E-002    -2.4228215217590332     
   9.2700000000000005E-002    -2.2747814655303955     
   9.3000000000000013E-002    -2.0692715644836426     
   9.3300000000000008E-002    -1.7927216291427612     
   9.3600000000000003E-002    -1.4390228986740112     
   9.3899999999999997E-002    -1.0098166465759277     
   9.4200000000000006E-002   -0.51488322019577026     
   9.4500000000000001E-002     2.9030600562691689E-002
   9.4800000000000009E-002    0.59891217947006226     
   9.5100000000000004E-002     1.1684846878051758     
   9.5399999999999999E-002     1.7093988656997681     
   9.5699999999999993E-002     2.1947395801544189     
   9.6000000000000002E-002     2.6005198955535889     
   9.6300000000000011E-002     2.9085712432861328     
   9.6600000000000005E-002     3.1068587303161621     
   9.6900000000000000E-002     3.1915123462677002     
   9.7200000000000009E-002     3.1658582687377930     
   9.7499999999999989E-002     3.0413489341735840     
   9.7799999999999998E-002     2.8350558280944824     
   9.8100000000000007E-002     2.5689101219177246     
   9.8400000000000015E-002     2.2682964801788330     
   9.8699999999999996E-002     1.9582132101058960     
   9.9000000000000005E-002     1.6634811162948608     
   9.9300000000000013E-002     1.4047207832336426     
   9.9599999999999994E-002     1.1989974975585938     
   9.9900000000000003E-002     1.0566434860229492     
  0.10020000000000001         0.98240143060684204     
  0.10049999999999999         0.97419548034667969     
  0.10080000000000000          1.0242738723754883     
  0.10110000000000001          1.1199809312820435     
  0.10140000000000000          1.2443503141403198     
  0.10170000000000000          1.3789358139038086     
  0.10200000000000001          1.5032830238342285     
  0.10230000000000002          1.5993221998214722     
  0.10260000000000000          1.6496042013168335     
  0.10290000000000001          1.6417531967163086     
  0.10320000000000000          1.5671231746673584     
  0.10350000000000001          1.4222764968872070     
  0.10380000000000000          1.2091788053512573     
  0.10410000000000001         0.93423527479171753     
  0.10440000000000001         0.60830050706863403     
  0.10470000000000000         0.24429176747798920     
  0.10500000000000000        -0.14274503290653229     
  0.10530000000000000        -0.53843957185745239     
  0.10560000000000000        -0.92919844388961792     
  0.10590000000000001         -1.3038880825042725     
  0.10620000000000000         -1.6531958580017090     
  0.10650000000000001         -1.9693710803985596     
  0.10679999999999999         -2.2457625865936279     
  0.10710000000000000         -2.4733223915100098     
  0.10740000000000001         -2.6408531665802002     
  0.10770000000000000         -2.7312407493591309     
  0.10800000000000000         -2.7217288017272949     
  0.10830000000000001         -2.5847764015197754     
  0.10859999999999999         -2.2873008251190186     
  0.10890000000000000         -1.7981001138687134     
  0.10920000000000001         -1.0883467197418213     
  0.10950000000000001        -0.14241603016853333     
  0.10979999999999999          1.0393743515014648     
  0.11009999999999999          2.4321515560150146     
  0.11040000000000001          3.9831714630126953     
  0.11070000000000001          5.6103124618530273     
  0.11100000000000000          7.2021598815917969     
  0.11130000000000000          8.6267499923706055     
  0.11160000000000002          9.7363615036010742     
  0.11190000000000001          10.386819839477539     
  0.11220000000000001          10.445525169372559     
  0.11250000000000000          9.8136043548583984     
  0.11280000000000000          8.4357557296752930     
  0.11309999999999999          6.3143801689147949     
  0.11340000000000001          3.5167326927185059     
  0.11369999999999998         0.17315615713596344     
  0.11400000000000000         -3.5242853164672852     
  0.11430000000000000         -7.3387556076049805     
  0.11460000000000002         -11.001706123352051     
  0.11489999999999999         -14.237881660461426     
  0.11520000000000001         -16.788143157958984     
  0.11550000000000001         -18.430978775024414     
  0.11580000000000000         -19.005968093872070     
  0.11609999999999999         -18.426139831542969     
  0.11640000000000002         -16.689184188842773     
  0.11670000000000001         -13.877985000610352     
  0.11700000000000001         -10.153584480285645     
  0.11730000000000000         -5.7440209388732910     
  0.11760000000000000        -0.92382043600082397     
  0.11789999999999999          4.0052056312561035     
  0.11820000000000001          8.7406826019287109     
  0.11850000000000001          12.998408317565918     
  0.11880000000000000          16.533468246459961     
  0.11910000000000000          19.155687332153320     
  0.11940000000000002          20.735441207885742     
  0.11970000000000001          21.214355468750000     
  0.12000000000000001          20.595272064208984     
  0.12030000000000000          18.944923400878906     
  0.12060000000000000          16.377002716064453     
  0.12089999999999999          13.046929359436035     
  0.12119999999999999          9.1358623504638672     
  0.12150000000000001          4.8396220207214355     
  0.12180000000000001         0.35945421457290649     
  0.12210000000000000         -4.1108093261718750     
  0.12239999999999999         -8.3880624771118164     
  0.12270000000000002         -12.311035156250000     
  0.12300000000000001         -15.739187240600586     
  0.12330000000000001         -18.561588287353516     
  0.12360000000000000         -20.693979263305664     
  0.12390000000000000         -22.082527160644531     
  0.12419999999999999         -22.704294204711914     
  0.12450000000000001         -22.563749313354492     
  0.12480000000000001         -21.694963455200195     
  0.12509999999999999         -20.155302047729492     
  0.12540000000000001         -18.024408340454102     
  0.12570000000000003         -15.399190902709961     
  0.12600000000000000         -12.388174057006836     
  0.12630000000000002         -9.1072120666503906     
  0.12659999999999999         -5.6732301712036133     
  0.12690000000000001         -2.1995935440063477     
  0.12719999999999998          1.2086787223815918     
  0.12750000000000000          4.4587035179138184     
  0.12780000000000002          7.4719238281250000     
  0.12809999999999999          10.187050819396973     
  0.12840000000000001          12.558620452880859     
  0.12869999999999998          14.558830261230469     
  0.12900000000000000          16.173526763916016     
  0.12930000000000003          17.402051925659180     
  0.12959999999999999          18.253805160522461     
  0.12990000000000002          18.744806289672852     
  0.13019999999999998          18.896032333374023     
  0.13050000000000000          18.729776382446289     
  0.13080000000000003          18.268178939819336     
  0.13109999999999999          17.531770706176758     
  0.13140000000000002          16.537984848022461     
  0.13169999999999998          15.303032875061035     
  0.13200000000000001          13.839609146118164     
  0.13229999999999997          12.162530899047852     
  0.13260000000000000          10.286992073059082     
  0.13290000000000002          8.2318372726440430     
  0.13319999999999999          6.0230660438537598     
  0.13350000000000001          3.6914765834808350     
  0.13380000000000003          1.2781833410263062     
  0.13410000000000000         -1.1690795421600342     
  0.13440000000000002         -3.5948805809020996     
  0.13469999999999999         -5.9392180442810059     
  0.13500000000000001         -8.1385955810546875     
  0.13529999999999998         -10.130772590637207     
  0.13560000000000000         -11.859179496765137     
  0.13590000000000002         -13.272641181945801     
  0.13619999999999999         -14.334933280944824     
  0.13650000000000001         -15.020964622497559     
  0.13680000000000003         -15.324376106262207     
  0.13710000000000000         -15.253036499023438     
  0.13740000000000002         -14.833207130432129     
  0.13769999999999999         -14.103093147277832     
  0.13800000000000001         -13.115080833435059     
  0.13829999999999998         -11.926780700683594     
  0.13860000000000000         -10.602591514587402     
  0.13890000000000002         -9.2042932510375977     
  0.13919999999999999         -7.7906074523925781     
  0.13950000000000001         -6.4116244316101074     
  0.13979999999999998         -5.1077284812927246     
  0.14010000000000000         -3.9069178104400635     
  0.14040000000000002         -2.8233947753906250     
  0.14069999999999999         -1.8603110313415527     
  0.14100000000000001         -1.0079456567764282     
  0.14130000000000004        -0.25025284290313721     
  0.14160000000000000         0.43819144368171692     
  0.14189999999999997          1.0833413600921631     
  0.14219999999999999          1.7124164104461670     
  0.14250000000000002          2.3493485450744629     
  0.14279999999999998          3.0120158195495605     
  0.14310000000000000          3.7115187644958496     
  0.14339999999999997          4.4486193656921387     
  0.14369999999999999          5.2159528732299805     
  0.14400000000000002          5.9954118728637695     
  0.14429999999999998          6.7614850997924805     
  0.14460000000000001          7.4819798469543457     
  0.14490000000000003          8.1199455261230469     
  0.14520000000000000          8.6386480331420898     
  0.14550000000000002          9.0012998580932617     
  0.14579999999999999          9.1780767440795898     
  0.14610000000000001          9.1450023651123047     
  0.14640000000000003          8.8891973495483398     
  0.14670000000000000          8.4082727432250977     
  0.14699999999999996          7.7118582725524902     
  0.14729999999999999          6.8222775459289551     
  0.14760000000000001          5.7700486183166504     
  0.14789999999999998          4.5974645614624023     
  0.14820000000000000          3.3496236801147461     