  -1.4999999999999999E-002     0.0000000000000000     
  -1.4700000000000000E-002     0.0000000000000000     
  -1.4400000000000000E-002     0.0000000000000000     
  -1.4100000000000000E-002     0.0000000000000000     
  -1.3800000000000000E-002     0.0000000000000000     
  -1.3500000000000000E-002     0.0000000000000000     
  -1.3200000000000000E-002     0.0000000000000000     
  -1.2899999999999998E-002     0.0000000000000000     
  -1.2600000000000000E-002     0.0000000000000000     
  -1.2299999999999998E-002     0.0000000000000000     
  -1.2000000000000000E-002     0.0000000000000000     
  -1.1699999999999999E-002     0.0000000000000000     
  -1.1399999999999999E-002     0.0000000000000000     
  -1.1099999999999999E-002     0.0000000000000000     
  -1.0799999999999999E-002     0.0000000000000000     
  -1.0499999999999999E-002     0.0000000000000000     
  -1.0199999999999999E-002     0.0000000000000000     
  -9.8999999999999991E-003     0.0000000000000000     
  -9.5999999999999992E-003     0.0000000000000000     
  -9.2999999999999992E-003     0.0000000000000000     
  -8.9999999999999993E-003     0.0000000000000000     
  -8.6999999999999994E-003     0.0000000000000000     
  -8.3999999999999995E-003     0.0000000000000000     
  -8.0999999999999996E-003     0.0000000000000000     
  -7.7999999999999988E-003     0.0000000000000000     
  -7.4999999999999997E-003     0.0000000000000000     
  -7.1999999999999998E-003     0.0000000000000000     
  -6.8999999999999981E-003     0.0000000000000000     
  -6.5999999999999982E-003     0.0000000000000000     
  -6.3000000000000000E-003     0.0000000000000000     
  -6.0000000000000001E-003     0.0000000000000000     
  -5.6999999999999985E-003     0.0000000000000000     
  -5.3999999999999986E-003     0.0000000000000000     
  -5.1000000000000004E-003     0.0000000000000000     
  -4.7999999999999987E-003     0.0000000000000000     
  -4.5000000000000005E-003     0.0000000000000000     
  -4.1999999999999989E-003     0.0000000000000000     
  -3.8999999999999990E-003     0.0000000000000000     
  -3.5999999999999990E-003     0.0000000000000000     
  -3.2999999999999991E-003     0.0000000000000000     
  -2.9999999999999992E-003     0.0000000000000000     
  -2.6999999999999993E-003     0.0000000000000000     
  -2.3999999999999994E-003     0.0000000000000000     
  -2.0999999999999977E-003     0.0000000000000000     
  -1.7999999999999995E-003     0.0000000000000000     
  -1.4999999999999979E-003     0.0000000000000000     
  -1.1999999999999997E-003     0.0000000000000000     
  -8.9999999999999976E-004     0.0000000000000000     
  -5.9999999999999810E-004     0.0000000000000000     
  -2.9999999999999992E-004     0.0000000000000000     
   0.0000000000000000          0.0000000000000000     
   3.0000000000000165E-004     0.0000000000000000     
   5.9999999999999984E-004     0.0000000000000000     
   9.0000000000000149E-004     0.0000000000000000     
   1.2000000000000031E-003     0.0000000000000000     
   1.5000000000000013E-003     0.0000000000000000     
   1.8000000000000030E-003     0.0000000000000000     
   2.1000000000000012E-003     0.0000000000000000     
   2.3999999999999994E-003     0.0000000000000000     
   2.7000000000000010E-003     0.0000000000000000     
   2.9999999999999992E-003     0.0000000000000000     
   3.3000000000000008E-003     0.0000000000000000     
   3.6000000000000025E-003     0.0000000000000000     
   3.9000000000000007E-003     0.0000000000000000     
   4.2000000000000023E-003     0.0000000000000000     
   4.5000000000000005E-003     0.0000000000000000     
   4.7999999999999987E-003     0.0000000000000000     
   5.1000000000000004E-003     0.0000000000000000     
   5.4000000000000020E-003     0.0000000000000000     
   5.7000000000000037E-003     0.0000000000000000     
   5.9999999999999984E-003     0.0000000000000000     
   6.3000000000000000E-003     0.0000000000000000     
   6.6000000000000017E-003     0.0000000000000000     
   6.9000000000000034E-003     0.0000000000000000     
   7.2000000000000015E-003     0.0000000000000000     
   7.5000000000000032E-003     0.0000000000000000     
   7.8000000000000014E-003     0.0000000000000000     
   8.0999999999999996E-003     0.0000000000000000     
   8.4000000000000012E-003     0.0000000000000000     
   8.7000000000000029E-003     0.0000000000000000     
   9.0000000000000011E-003     0.0000000000000000     
   9.2999999999999992E-003     0.0000000000000000     
   9.6000000000000009E-003     0.0000000000000000     
   9.8999999999999991E-003     0.0000000000000000     
   1.0200000000000001E-002     0.0000000000000000     
   1.0500000000000002E-002     0.0000000000000000     
   1.0800000000000004E-002     0.0000000000000000     
   1.1099999999999999E-002     0.0000000000000000     
   1.1400000000000000E-002     0.0000000000000000     
   1.1700000000000002E-002     0.0000000000000000     
   1.2000000000000004E-002     0.0000000000000000     
   1.2300000000000002E-002     0.0000000000000000     
   1.2600000000000000E-002     0.0000000000000000     
   1.2900000000000002E-002     0.0000000000000000     
   1.3200000000000000E-002     0.0000000000000000     
   1.3500000000000002E-002     0.0000000000000000     
   1.3800000000000003E-002     0.0000000000000000     
   1.4100000000000001E-002     0.0000000000000000     
   1.4400000000000000E-002     0.0000000000000000     
   1.4700000000000001E-002     0.0000000000000000     
   1.4999999999999999E-002     0.0000000000000000     
   1.5300000000000001E-002     0.0000000000000000     
   1.5600000000000003E-002     0.0000000000000000     
   1.5899999999999997E-002     0.0000000000000000     
   1.6199999999999999E-002     0.0000000000000000     
   1.6500000000000001E-002     0.0000000000000000     
   1.6800000000000002E-002     0.0000000000000000     
   1.7100000000000004E-002     0.0000000000000000     
   1.7400000000000006E-002     0.0000000000000000     
   1.7700000000000000E-002     0.0000000000000000     
   1.8000000000000002E-002     0.0000000000000000     
   1.8300000000000004E-002     0.0000000000000000     
   1.8600000000000005E-002     0.0000000000000000     
   1.8900000000000000E-002     0.0000000000000000     
   1.9200000000000002E-002     0.0000000000000000     
   1.9500000000000003E-002     0.0000000000000000     
   1.9799999999999998E-002     0.0000000000000000     
   2.0100000000000000E-002     0.0000000000000000     
   2.0400000000000001E-002     0.0000000000000000     
   2.0700000000000003E-002     0.0000000000000000     
   2.0999999999999998E-002     0.0000000000000000     
   2.1299999999999999E-002     0.0000000000000000     
   2.1600000000000001E-002     0.0000000000000000     
   2.1900000000000003E-002     0.0000000000000000     
   2.2200000000000004E-002     0.0000000000000000     
   2.2500000000000006E-002     0.0000000000000000     
   2.2800000000000001E-002     0.0000000000000000     
   2.3100000000000002E-002     0.0000000000000000     
   2.3400000000000004E-002     0.0000000000000000     
   2.3699999999999999E-002     0.0000000000000000     
   2.4000000000000000E-002     0.0000000000000000     
   2.4300000000000002E-002     0.0000000000000000     
   2.4599999999999997E-002     0.0000000000000000     
   2.4900000000000005E-002     0.0000000000000000     
   2.5200000000000000E-002     0.0000000000000000     
   2.5499999999999995E-002     0.0000000000000000     
   2.5800000000000003E-002     0.0000000000000000     
   2.6099999999999998E-002     0.0000000000000000     
   2.6400000000000007E-002     0.0000000000000000     
   2.6700000000000002E-002     0.0000000000000000     
   2.6999999999999996E-002     0.0000000000000000     
   2.7300000000000005E-002     0.0000000000000000     
   2.7600000000000000E-002     0.0000000000000000     
   2.7900000000000008E-002     0.0000000000000000     
   2.8200000000000003E-002     0.0000000000000000     
   2.8499999999999998E-002     0.0000000000000000     
   2.8800000000000006E-002     0.0000000000000000     
   2.9100000000000001E-002     0.0000000000000000     
   2.9400000000000003E-002     0.0000000000000000     
   2.9700000000000004E-002     0.0000000000000000     
   3.0000000000000006E-002     0.0000000000000000     
   3.0300000000000001E-002     0.0000000000000000     
   3.0600000000000002E-002     0.0000000000000000     
   3.0900000000000004E-002     0.0000000000000000     
   3.1199999999999999E-002     0.0000000000000000     
   3.1500000000000007E-002     0.0000000000000000     
   3.1800000000000002E-002     0.0000000000000000     
   3.2099999999999997E-002     0.0000000000000000     
   3.2400000000000005E-002     0.0000000000000000     
   3.2700000000000000E-002     0.0000000000000000     
   3.3000000000000002E-002     0.0000000000000000     
   3.3300000000000003E-002     0.0000000000000000     
   3.3599999999999998E-002     0.0000000000000000     
   3.3900000000000000E-002     0.0000000000000000     
   3.4200000000000001E-002     0.0000000000000000     
   3.4500000000000003E-002     0.0000000000000000     
   3.4799999999999998E-002     0.0000000000000000     
   3.5099999999999999E-002     0.0000000000000000     
   3.5400000000000001E-002     0.0000000000000000     
   3.5699999999999996E-002     0.0000000000000000     
   3.6000000000000004E-002     0.0000000000000000     
   3.6299999999999999E-002     0.0000000000000000     
   3.6600000000000008E-002     0.0000000000000000     
   3.6900000000000002E-002     0.0000000000000000     
   3.7199999999999997E-002     0.0000000000000000     
   3.7500000000000006E-002     0.0000000000000000     
   3.7800000000000000E-002     0.0000000000000000     
   3.8100000000000009E-002     0.0000000000000000     
   3.8400000000000004E-002     0.0000000000000000     
   3.8699999999999998E-002     0.0000000000000000     
   3.9000000000000007E-002     0.0000000000000000     
   3.9300000000000002E-002     0.0000000000000000     
   3.9600000000000003E-002     2.4156080388986032E-038
   3.9900000000000005E-002     1.7093630015786064E-037
   4.0200000000000000E-002    -2.9641963825977981E-037
   4.0500000000000001E-002     1.1245358218124106E-035
   4.0800000000000003E-002     3.0332651411578529E-034
   4.1100000000000005E-002    -1.4358100215257250E-033
   4.1399999999999999E-002     6.2239383431047916E-034
   4.1700000000000008E-002     6.6946488650999665E-033
   4.2000000000000003E-002    -3.8261207553394662E-032
   4.2299999999999997E-002     1.9244947034141947E-031
   4.2600000000000006E-002    -8.7429389884991846E-031
   4.2900000000000001E-002     3.6511718201035137E-030
   4.3200000000000002E-002    -1.4346602811315676E-029
   4.3500000000000004E-002     5.3756243336369055E-029
   4.3799999999999999E-002    -1.9452060186504118E-028
   4.4100000000000000E-002     6.8915235124984651E-028
   4.4400000000000002E-002    -2.4220181987506897E-027
   4.4700000000000004E-002     8.5298768491991209E-027
   4.4999999999999998E-002    -3.0252266656342725E-026
   4.5300000000000000E-002     1.0796564309498971E-025
   4.5600000000000002E-002    -3.8576364185245769E-025
   4.5899999999999996E-002     1.3703505433024980E-024
   4.6200000000000005E-002    -4.8066386614536693E-024
   4.6500000000000000E-002     1.6554543932220619E-023
   4.6799999999999994E-002    -5.5759851567426988E-023
   4.7100000000000003E-002     1.8323754318367365E-022
   4.7399999999999998E-002    -5.8700035453203504E-022
   4.7700000000000006E-002     1.8346857152093957E-021
   4.8000000000000001E-002    -5.6104328035407005E-021
   4.8300000000000010E-002     1.6871875389281807E-020
   4.8600000000000004E-002    -5.0279228055544138E-020
   4.8899999999999999E-002     1.4993622603281015E-019
   4.9200000000000008E-002    -4.5194312706258913E-019
   4.9500000000000002E-002     1.3867444622495663E-018
   4.9800000000000011E-002    -4.3340079774872573E-018
   5.0100000000000006E-002     1.3691874775781068E-017
   5.0400000000000000E-002    -4.3090629812329163E-017
   5.0700000000000009E-002     1.3253114221700404E-016
   5.1000000000000004E-002    -3.8928788062052829E-016
   5.1299999999999998E-002     1.0592314887489504E-015
   5.1600000000000007E-002    -2.5333530694063793E-015
   5.1900000000000002E-002     4.6491347198419460E-015
   5.2200000000000010E-002    -2.4899758859893052E-015
   5.2500000000000005E-002    -3.1008518600791278E-014
   5.2800000000000000E-002     2.0256860874891447E-013
   5.3099999999999994E-002    -8.4932551647294385E-013
   5.3400000000000003E-002     2.8051890017426849E-012
   5.3699999999999998E-002    -7.3786709164349251E-012
   5.4000000000000006E-002     1.3735264231600130E-011
   5.4300000000000001E-002    -6.0353343965573850E-012
   5.4599999999999996E-002    -8.4596136921819474E-011
   5.4900000000000004E-002     4.4021849146342773E-010
   5.5199999999999999E-002    -1.2842961519171079E-009
   5.5499999999999994E-002     2.0480521479153746E-009
   5.5800000000000002E-002     1.3595899948158294E-009
   5.6099999999999997E-002    -1.9752147180993320E-008
   5.6400000000000006E-002     5.8910128321146855E-008
   5.6700000000000000E-002    -5.4021740957499611E-008
   5.6999999999999995E-002    -2.2844782688938699E-007
   5.7300000000000004E-002     8.9614289672603212E-007
   5.7599999999999998E-002    -5.5133174911231317E-007
   5.7900000000000007E-002    -4.6787844216272204E-006
   5.8200000000000002E-002     9.5707364381470415E-006
   5.8499999999999996E-002     4.7147755555300604E-005
   5.8800000000000005E-002     7.8129386014566364E-005
   5.9100000000000000E-002     9.4081624364497369E-005
   5.9400000000000008E-002     1.1456388802834989E-004
   5.9700000000000003E-002     1.6478781581616593E-004
   6.0000000000000012E-002     2.6604991395066772E-004
   6.0300000000000006E-002     4.1627591986373794E-004
   6.0600000000000001E-002     6.2432447067776661E-004
   6.0900000000000010E-002     9.2088508044052553E-004
   6.1200000000000004E-002     1.3346011029518115E-003
   6.1500000000000013E-002     1.9055891798241686E-003
   6.1800000000000008E-002     2.6945413123631717E-003
   6.2100000000000002E-002     3.7481691655120025E-003
   6.2399999999999997E-002     5.0937668695917038E-003
   6.2700000000000006E-002     6.8065583098547711E-003
   6.3000000000000000E-002     8.9343188660134798E-003
   6.3300000000000009E-002     1.1462466139153027E-002
   6.3600000000000004E-002     1.4386922879557895E-002
   6.3899999999999998E-002     1.7614933806526900E-002
   6.4199999999999993E-002     2.0958944128394608E-002
   6.4500000000000002E-002     2.4153580227586957E-002
   6.4800000000000010E-002     2.6776774320408370E-002
   6.5100000000000005E-002     2.8241124851516752E-002
   6.5400000000000000E-002     2.7818066929097052E-002
   6.5700000000000008E-002     2.4613998678295945E-002
   6.5999999999999989E-002     1.7557847876765731E-002
   6.6299999999999998E-002     5.5694434035010176E-003
   6.6600000000000006E-002    -1.2406557886877445E-002
   6.6900000000000001E-002    -3.7353891389742877E-002
   6.7199999999999996E-002    -6.9907847745530383E-002
   6.7500000000000004E-002   -0.11021368310657120     
   6.7800000000000013E-002   -0.15777092650068525     
   6.8099999999999994E-002   -0.21121505697677811     
   6.8400000000000002E-002   -0.26816616472210342     
   6.8700000000000011E-002   -0.32517510505817704     
   6.8999999999999992E-002   -0.37773529327090394     
   6.9300000000000000E-002   -0.42043036007487977     
   6.9600000000000009E-002   -0.44721997774408173     
   6.9900000000000004E-002   -0.45178153609182381     
   7.0199999999999999E-002   -0.42809490058718147     
   7.0500000000000007E-002   -0.37110294467660054     
   7.0800000000000016E-002   -0.27735127242934077     
   7.1099999999999997E-002   -0.14561682144696864     
   7.1400000000000005E-002     2.2533910709196137E-002
   7.1700000000000000E-002    0.22238858041998633     
   7.1999999999999995E-002    0.44600382078177958     
   7.2300000000000003E-002    0.68233204185479224     
   7.2600000000000012E-002    0.91785624257027365     
   7.2900000000000006E-002     1.1373783830686293     
   7.3200000000000001E-002     1.3250686866491677     
   7.3499999999999996E-002     1.4657495605528226     
   7.3800000000000004E-002     1.5462226208554810     
   7.4099999999999999E-002     1.5565062123896851     
   7.4400000000000008E-002     1.4909074887441989     
   7.4700000000000003E-002     1.3487730749782187     
   7.5000000000000011E-002     1.1347466450671568     
   7.5299999999999992E-002    0.85858441595790680     
   7.5600000000000001E-002    0.53470727337172441     
   7.5900000000000009E-002    0.18111327361228291     
   7.6200000000000004E-002   -0.18204198306601072     
   7.6499999999999999E-002   -0.53390482902260494     
   7.6800000000000007E-002   -0.85466349981143708     
   7.7099999999999988E-002    -1.1268955773747038     
   7.7399999999999997E-002    -1.3368617479693583     
   7.7700000000000005E-002    -1.4757114055029419     
   7.8000000000000014E-002    -1.5399121087141623     
   7.8299999999999995E-002    -1.5312552776345427     
   7.8600000000000003E-002    -1.4565547261387053     
   7.8900000000000012E-002    -1.3270190878653594     
   7.9199999999999993E-002    -1.1571035345317746     
   7.9500000000000001E-002   -0.96331070707447708     
   7.9800000000000010E-002   -0.76274013704097854     
   8.0100000000000018E-002   -0.57161588938445718     
   8.0399999999999999E-002   -0.40435676717081215     
   8.0700000000000008E-002   -0.27222339645811999     
   8.1000000000000003E-002   -0.18263161548474383     
   8.1299999999999997E-002   -0.13886931997199614     
   8.1600000000000006E-002   -0.13985470963637869     
   8.1900000000000014E-002   -0.18036374299078783     
   8.2199999999999995E-002   -0.25178003472907218     
   8.2500000000000004E-002   -0.34278886638198891     
   8.2799999999999999E-002   -0.44023609740897918     
   8.3100000000000007E-002   -0.53051920725339841     
   8.3400000000000002E-002   -0.60052552698389405     
   8.3700000000000011E-002   -0.63863075786785117     
   8.4000000000000005E-002   -0.63582553758800486     
   8.4300000000000000E-002   -0.58620451325358580     
   8.4599999999999995E-002   -0.48741515711183681     
   8.4900000000000003E-002   -0.34105867643108168     
   8.5199999999999998E-002   -0.15242990663495615     
   8.5500000000000007E-002     7.0029438365730501E-002
   8.5800000000000001E-002    0.31512813474954093     
   8.6100000000000010E-002    0.56982667224204420     
   8.6399999999999991E-002    0.81997572115564665     
   8.6699999999999999E-002     1.0515846147321284     
   8.7000000000000008E-002     1.2516426578871389     
   8.7300000000000003E-002     1.4090534622480959     
   8.7599999999999997E-002     1.5149709282542361     
   8.7900000000000006E-002     1.5636966272603914     
   8.8200000000000014E-002     1.5531286035511869     
   8.8499999999999995E-002     1.4844803549400396     
   8.8800000000000004E-002     1.3621673192608696     
   8.9100000000000013E-002     1.1934422334565333     
   8.9399999999999993E-002    0.98809334526817238     
   8.9700000000000002E-002    0.75762261224424066     
   9.0000000000000011E-002    0.51450716304702393     
   9.0299999999999991E-002    0.27138144842905665     
   9.0600000000000000E-002     4.0201431223681805E-002
   9.0900000000000009E-002   -0.16805402858321017     
   9.1200000000000017E-002   -0.34440247287484027     
   9.1499999999999998E-002   -0.48213830586669459     
   9.1800000000000007E-002   -0.57707666331476304     
   9.2100000000000001E-002   -0.62796722896857204     
   9.2399999999999996E-002   -0.63622754071837306     
   9.2700000000000005E-002   -0.60573732502630584     
   9.3000000000000013E-002   -0.54253093505746008     
   9.3300000000000008E-002   -0.45455953108224101     
   9.3600000000000003E-002   -0.35091503758990061     
   9.3899999999999997E-002   -0.24099693069792139     
   9.4200000000000006E-002   -0.13403683285963419     
   9.4500000000000001E-002    -3.8392502358619351E-002
   9.4800000000000009E-002     3.8844370413701257E-002
   9.5100000000000004E-002     9.2533453652178022E-002
   9.5399999999999999E-002    0.12002672291161609     
   9.5699999999999993E-002    0.12099810989802462     
   9.6000000000000002E-002     9.7394464154798466E-002
   9.6300000000000011E-002     5.3238991919276391E-002
   9.6600000000000005E-002    -5.6622263101018255E-003
   9.6900000000000000E-002    -7.2254770965931137E-002
   9.7200000000000009E-002   -0.13904791977348108     
   9.7499999999999989E-002   -0.19876962374460927     
   9.7799999999999998E-002   -0.24507644857274258     
   9.8100000000000007E-002   -0.27296792555799776     
   9.8400000000000015E-002   -0.27920041418834529     
   9.8699999999999996E-002   -0.26290629475491389     
   9.9000000000000005E-002   -0.22551968885917084     
   9.9300000000000013E-002   -0.17033991759185252     
   9.9599999999999994E-002   -0.10256056112780676     
   9.9900000000000003E-002    -2.8778872019297186E-002
  0.10020000000000001          4.3887058507521060E-002
  0.10049999999999999         0.10826113807797944     
  0.10080000000000000         0.15789236940094931     
  0.10110000000000001         0.18768538450724037     
  0.10140000000000000         0.19428483389267104     
  0.10170000000000000         0.17649034163229516     
  0.10200000000000001         0.13554982186444797     
  0.10230000000000002          7.4661662116825900E-002
  0.10260000000000000         -1.0802856906195757E-003
  0.10290000000000001         -8.4979851977533993E-002
  0.10320000000000000        -0.16977772684486681     
  0.10350000000000001        -0.24823177264317486     
  0.10380000000000000        -0.31374711007139666     
  0.10410000000000001        -0.36103653520616241     
  0.10440000000000001        -0.38663293133988574     
  0.10470000000000000        -0.38929706093037808     
  0.10500000000000000        -0.37022314638558029     
  0.10530000000000000        -0.33255029142356918     
  0.10560000000000000        -0.28107068996895190     
  0.10590000000000001        -0.22196084087381029     
  0.10620000000000000        -0.16206444890485372     
  0.10650000000000001        -0.10790120792251301     
  0.10679999999999999         -6.4860128108866544E-002
  0.10710000000000000         -3.6853502182946141E-002
  0.10740000000000001         -2.6152793431754362E-002
  0.10770000000000000         -3.2584819643339591E-002
  0.10800000000000000         -5.3528818094408237E-002
  0.10830000000000001         -8.4545284322650627E-002
  0.10859999999999999        -0.11957722495571854     
  0.10890000000000000        -0.15168457119816825     
  0.10920000000000001        -0.17354209933178222     
  0.10950000000000001        -0.17805902360440928     
  0.10979999999999999        -0.15951863524819831     
  0.11009999999999999        -0.11403499102159986     
  0.11040000000000001         -3.9889014693987423E-002
  0.11070000000000001          6.2187197210101797E-002
  0.11100000000000000         0.18892787768224917     
  0.11130000000000000         0.33449394752401140     
  0.11160000000000002         0.49097324807092946     
  0.11190000000000001         0.64908070024582543     
  0.11220000000000001         0.79883379838248203     
  0.11250000000000000         0.93003718434368920     
  0.11280000000000000          1.0332986632197318     
  0.11309999999999999          1.1008749358683403     
  0.11340000000000001          1.1271719691567768     
  0.11369999999999998          1.1093703120790792     
  0.11400000000000000          1.0473291273549563     
  0.11430000000000000         0.94369386405426070     
  0.11460000000000002         0.80397545552062510     
  0.11489999999999999         0.63550093147268782     
  0.11520000000000001         0.44699082335157181     
  0.11550000000000001         0.24775189664011865     
  0.11580000000000000          4.6776270229354822E-002
  0.11609999999999999        -0.14776847057291276     
  0.11640000000000002        -0.32929085922099510     
  0.11670000000000001        -0.49318584117489195     
  0.11700000000000001        -0.63686616180374500     
  0.11730000000000000        -0.75935113885014971     
  0.11760000000000000        -0.86116406683640889     
  0.11789999999999999        -0.94371836451434632     
  0.11820000000000001         -1.0087414251953035     
  0.11850000000000001         -1.0575143260738571     
  0.11880000000000000         -1.0905433929125365     
  0.11910000000000000         -1.1072442989782090     
  0.11940000000000002         -1.1059710017323070     
  0.11970000000000001         -1.0841597122891748     
  0.12000000000000001         -1.0387078609498097     
  0.12030000000000000        -0.96660088315942971     
  0.12060000000000000        -0.86561323994839512     
  0.12089999999999999        -0.73498657390431532     
  0.12119999999999999        -0.57553133674451473     
  0.12150000000000001        -0.39051707092337518     
  0.12180000000000001        -0.18541259175345548     
  0.12210000000000000          3.2512267661495287E-002
  0.12239999999999999         0.25444780346781126     
  0.12270000000000002         0.47073068735593715     
  0.12300000000000001         0.67174987744186154     
  0.12330000000000001         0.84867305188192432     
  0.12360000000000000         0.99420466233068439     
  0.12390000000000000          1.1033252902673212     
  0.12419999999999999          1.1733117292946460     
  0.12450000000000001          1.2038284592274024     
  0.12480000000000001          1.1969525738847224     
  0.12509999999999999          1.1565093883960422     
  0.12540000000000001          1.0875483623811668     
  0.12570000000000003         0.99544586061118778     
  0.12600000000000000         0.88537628549349279     
  0.12630000000000002         0.76193870877698799     
  0.12659999999999999         0.62852053949535591     
  0.12690000000000001         0.48710901043973287     
  0.12719999999999998         0.33858406194759327     
  0.12750000000000000         0.18281733360495434     
  0.12780000000000002          1.9302795213870905E-002
  0.12809999999999999        -0.15234610873566856     
  0.12840000000000001        -0.33201251098163276     
  0.12869999999999998        -0.51837253280845808     
  0.12900000000000000        -0.70862059251576426     
  0.12930000000000003        -0.89836317482308914     
  0.12959999999999999         -1.0816020327506450     
  0.12990000000000002         -1.2511495779752337     
  0.13019999999999998         -1.3990844362697388     
  0.13050000000000000         -1.5169978108663500     
  0.13080000000000003         -1.5968922618235908     
  0.13109999999999999         -1.6319270493661335     
  0.13140000000000002         -1.6166963056376105     
  0.13169999999999998         -1.5479512816514784     
  0.13200000000000001         -1.4248108415840157     
  0.13229999999999997         -1.2488353406694799     
  0.13260000000000000         -1.0244394073676126     
  0.13290000000000002        -0.75854209784490578     
  0.13319999999999999        -0.46023881789290044     
  0.13350000000000001        -0.14049811936595447     
  0.13380000000000003         0.18804736517511067     
  0.13410000000000000         0.51176290664858115     
  0.13440000000000002         0.81673751144143836     
  0.13469999999999999          1.0892839367730076     
  0.13500000000000001          1.3166088973275833     
  0.13529999999999998          1.4872516498595800     
  0.13560000000000000          1.5920086607069592     
  0.13590000000000002          1.6246948676558191     
  0.13619999999999999          1.5821941525378733     
  0.13650000000000001          1.4649061356892012     
  0.13680000000000003          1.2773077685474945     
  0.13710000000000000          1.0277901669306182     
  0.13740000000000002         0.72856618737443446     
  0.13769999999999999         0.39507270246932791     
  0.13800000000000001          4.5197570176179980E-002
  0.13829999999999998        -0.30131522080777362     
  0.13860000000000000        -0.62374557501302164     
  0.13890000000000002        -0.90212246038393573     
  0.13919999999999999         -1.1185520147116321     
  0.13950000000000001         -1.2580822287789815     
  0.13979999999999998         -1.3097707939136782     
  0.14010000000000000         -1.2679946445651993     
  0.14040000000000002         -1.1329294924597697     
  0.14069999999999999        -0.91084222791647740     
  0.14100000000000001        -0.61363066081763762     
  0.14130000000000004        -0.25850383426425338     
  0.14160000000000000         0.13310692455991546     
  0.14189999999999997         0.53702719153701040     
  0.14219999999999999         0.92792975552235291     
  0.14250000000000002          1.2810436018514579     
  0.14279999999999998          1.5739128310986246     
  0.14310000000000000          1.7882401472328127     
  0.14339999999999997          1.9108708311613896     
  0.14369999999999999          1.9347140504058657     
  0.14400000000000002          1.8593900080485000     
  0.14429999999999998          1.6909727478868462     
  0.14460000000000001          1.4415674608043894     
  0.14490000000000003          1.1281382882046902     
  0.14520000000000000         0.77118336733940596     
  0.14550000000000002         0.39311174539510318     
  0.14579999999999999          1.6911084348731897E-002
  0.14610000000000001        -0.33550031273369729     
  0.14640000000000003        -0.64506626439795056     
  0.14670000000000000        -0.89633850930196601     
  0.14699999999999996         -1.0779653753935392     
  0.14729999999999999         -1.1833742590532736     
  0.14760000000000001         -1.2108335039099174     
  0.14789999999999998         -1.1630228502058912     
  0.14820000000000000         -1.0465727915338014     