  -1.4999999999999999E-002     0.0000000000000000     
  -1.4700000000000000E-002     0.0000000000000000     
  -1.4400000000000000E-002     0.0000000000000000     
  -1.4100000000000000E-002     0.0000000000000000     
  -1.3800000000000000E-002     0.0000000000000000     
  -1.3500000000000000E-002     0.0000000000000000     
  -1.3200000000000000E-002     0.0000000000000000     
  -1.2899999999999998E-002     0.0000000000000000     
  -1.2600000000000000E-002     0.0000000000000000     
  -1.2299999999999998E-002     0.0000000000000000     
  -1.2000000000000000E-002     0.0000000000000000     
  -1.1699999999999999E-002     0.0000000000000000     
  -1.1399999999999999E-002     0.0000000000000000     
  -1.1099999999999999E-002     0.0000000000000000     
  -1.0799999999999999E-002     0.0000000000000000     
  -1.0499999999999999E-002     0.0000000000000000     
  -1.0199999999999999E-002     0.0000000000000000     
  -9.8999999999999991E-003     0.0000000000000000     
  -9.5999999999999992E-003     0.0000000000000000     
  -9.2999999999999992E-003     0.0000000000000000     
  -8.9999999999999993E-003     0.0000000000000000     
  -8.6999999999999994E-003     0.0000000000000000     
  -8.3999999999999995E-003     0.0000000000000000     
  -8.0999999999999996E-003     0.0000000000000000     
  -7.7999999999999988E-003     0.0000000000000000     
  -7.4999999999999997E-003     0.0000000000000000     
  -7.1999999999999998E-003     0.0000000000000000     
  -6.8999999999999981E-003     0.0000000000000000     
  -6.5999999999999982E-003     0.0000000000000000     
  -6.3000000000000000E-003     0.0000000000000000     
  -6.0000000000000001E-003     0.0000000000000000     
  -5.6999999999999985E-003     0.0000000000000000     
  -5.3999999999999986E-003     0.0000000000000000     
  -5.1000000000000004E-003     0.0000000000000000     
  -4.7999999999999987E-003     0.0000000000000000     
  -4.5000000000000005E-003     0.0000000000000000     
  -4.1999999999999989E-003     0.0000000000000000     
  -3.8999999999999990E-003     0.0000000000000000     
  -3.5999999999999990E-003     0.0000000000000000     
  -3.2999999999999991E-003     0.0000000000000000     
  -2.9999999999999992E-003     0.0000000000000000     
  -2.6999999999999993E-003     0.0000000000000000     
  -2.3999999999999994E-003     0.0000000000000000     
  -2.0999999999999977E-003     0.0000000000000000     
  -1.7999999999999995E-003     0.0000000000000000     
  -1.4999999999999979E-003     0.0000000000000000     
  -1.1999999999999997E-003     0.0000000000000000     
  -8.9999999999999976E-004     0.0000000000000000     
  -5.9999999999999810E-004     0.0000000000000000     
  -2.9999999999999992E-004     0.0000000000000000     
   0.0000000000000000          0.0000000000000000     
   3.0000000000000165E-004     0.0000000000000000     
   5.9999999999999984E-004     0.0000000000000000     
   9.0000000000000149E-004     0.0000000000000000     
   1.2000000000000031E-003     0.0000000000000000     
   1.5000000000000013E-003     0.0000000000000000     
   1.8000000000000030E-003     0.0000000000000000     
   2.1000000000000012E-003     0.0000000000000000     
   2.3999999999999994E-003     0.0000000000000000     
   2.7000000000000010E-003     0.0000000000000000     
   2.9999999999999992E-003     0.0000000000000000     
   3.3000000000000008E-003     0.0000000000000000     
   3.6000000000000025E-003     0.0000000000000000     
   3.9000000000000007E-003     0.0000000000000000     
   4.2000000000000023E-003     0.0000000000000000     
   4.5000000000000005E-003     0.0000000000000000     
   4.7999999999999987E-003     0.0000000000000000     
   5.1000000000000004E-003     0.0000000000000000     
   5.4000000000000020E-003     0.0000000000000000     
   5.7000000000000037E-003     0.0000000000000000     
   5.9999999999999984E-003     0.0000000000000000     
   6.3000000000000000E-003     0.0000000000000000     
   6.6000000000000017E-003     0.0000000000000000     
   6.9000000000000034E-003     0.0000000000000000     
   7.2000000000000015E-003     0.0000000000000000     
   7.5000000000000032E-003     0.0000000000000000     
   7.8000000000000014E-003     0.0000000000000000     
   8.0999999999999996E-003     0.0000000000000000     
   8.4000000000000012E-003     0.0000000000000000     
   8.7000000000000029E-003     0.0000000000000000     
   9.0000000000000011E-003     0.0000000000000000     
   9.2999999999999992E-003     0.0000000000000000     
   9.6000000000000009E-003     0.0000000000000000     
   9.8999999999999991E-003     0.0000000000000000     
   1.0200000000000001E-002     0.0000000000000000     
   1.0500000000000002E-002     0.0000000000000000     
   1.0800000000000004E-002     0.0000000000000000     
   1.1099999999999999E-002     0.0000000000000000     
   1.1400000000000000E-002     0.0000000000000000     
   1.1700000000000002E-002     0.0000000000000000     
   1.2000000000000004E-002     0.0000000000000000     
   1.2300000000000002E-002     0.0000000000000000     
   1.2600000000000000E-002     0.0000000000000000     
   1.2900000000000002E-002     0.0000000000000000     
   1.3200000000000000E-002     0.0000000000000000     
   1.3500000000000002E-002     0.0000000000000000     
   1.3800000000000003E-002     0.0000000000000000     
   1.4100000000000001E-002     0.0000000000000000     
   1.4400000000000000E-002     0.0000000000000000     
   1.4700000000000001E-002     0.0000000000000000     
   1.4999999999999999E-002     0.0000000000000000     
   1.5300000000000001E-002     0.0000000000000000     
   1.5600000000000003E-002     0.0000000000000000     
   1.5899999999999997E-002     0.0000000000000000     
   1.6199999999999999E-002     0.0000000000000000     
   1.6500000000000001E-002     0.0000000000000000     
   1.6800000000000002E-002     4.8671506953566591E-037
   1.7100000000000004E-002    -2.8998302264922045E-036
   1.7400000000000006E-002     6.7085977920530413E-036
   1.7700000000000000E-002    -4.1066596288465836E-036
   1.8000000000000002E-002    -2.4301749344040235E-035
   1.8300000000000004E-002     7.5629041844161225E-035
   1.8600000000000005E-002    -1.0751491535964587E-034
   1.8900000000000000E-002    -6.5759740131397175E-035
   1.9200000000000002E-002     3.6395710545529826E-034
   1.9500000000000003E-002     1.5324966412292444E-034
   1.9799999999999998E-002    -8.0471257347235271E-034
   2.0100000000000000E-002     1.3840169376438877E-033
   2.0400000000000001E-002    -1.4514091241184456E-033
   2.0700000000000003E-002     4.4539404531484559E-033
   2.0999999999999998E-002    -1.1108938342477105E-032
   2.1299999999999999E-002     6.6248291146677934E-033
   2.1600000000000001E-002     3.4338880858030270E-032
   2.1900000000000003E-002    -1.0070084078037302E-031
   2.2200000000000004E-002     7.2735488929378604E-032
   2.2500000000000006E-002     2.1138446671515439E-031
   2.2800000000000001E-002    -6.0165941915456647E-031
   2.3100000000000002E-002     3.4886574522980191E-031
   2.3400000000000004E-002     1.1829979879251028E-030
   2.3699999999999999E-002    -2.7017975218626308E-030
   2.4000000000000000E-002     6.6690046381552322E-031
   2.4300000000000002E-002     6.1409200232860974E-030
   2.4599999999999997E-002    -1.0487076976258722E-029
   2.4900000000000005E-002     1.0805667098946882E-030
   2.5200000000000000E-002     2.1786520414682493E-029
   2.5499999999999995E-002    -5.8794578050282570E-029
   2.5800000000000003E-002     2.1135305082747465E-028
   2.6099999999999998E-002    -8.3352914002107519E-028
   2.6400000000000007E-002     2.3085296787892640E-027
   2.6700000000000002E-002    -2.5943523678523482E-027
   2.6999999999999996E-002    -1.2367078851690102E-026
   2.7300000000000005E-002     8.6237029454883329E-026
   2.7600000000000000E-002    -2.7137152179142522E-025
   2.7900000000000008E-002     4.0995119617761959E-025
   2.8200000000000003E-002     3.5541918396071633E-025
   2.8499999999999998E-002    -3.2188556426422374E-024
   2.8800000000000006E-002     4.8337616405702933E-024
   2.9100000000000001E-002     1.2682691121475081E-023
   2.9400000000000003E-002    -6.4653511222057080E-023
   2.9700000000000004E-002    -4.6924903327884618E-024
   3.0000000000000006E-002     1.0385539086155423E-021
   3.0300000000000001E-002    -5.0890882653225595E-021
   3.0600000000000002E-002     1.2582418082330434E-020
   3.0900000000000004E-002    -5.1249702461813961E-021
   3.1199999999999999E-002    -9.8915086662742286E-020
   3.1500000000000007E-002     4.6478753147510288E-019
   3.1800000000000002E-002    -1.0422502283455365E-018
   3.2099999999999997E-002     3.6613381309839229E-019
   3.2400000000000005E-002     6.1742237667130916E-018
   3.2700000000000000E-002    -2.3576841217895217E-017
   3.3000000000000002E-002     3.8798378618933527E-017
   3.3300000000000003E-002     1.2138076835628063E-017
   3.3599999999999998E-002    -2.2929049276489174E-016
   3.3900000000000000E-002     5.6497181220561077E-016
   3.4200000000000001E-002    -5.4100584950916902E-016
   3.4500000000000003E-002    -4.7668250146659974E-016
   3.4799999999999998E-002     1.9043340380092361E-015
   3.5099999999999999E-002    -2.2604397857277338E-015
   3.5400000000000001E-002     8.4278744845963827E-015
   3.5699999999999996E-002    -4.8231286615052932E-014
   3.6000000000000004E-002     1.2707282031835372E-013
   3.6299999999999999E-002    -3.2733272258550658E-014
   3.6600000000000008E-002    -8.6897569822259257E-013
   3.6900000000000002E-002     2.9280433730580469E-012
   3.7199999999999997E-002    -3.1868069194583892E-012
   3.7500000000000006E-002    -8.0891726693789615E-012
   3.7800000000000000E-002     3.8780866687099518E-011
   3.8100000000000009E-002    -5.5068845909165012E-011
   3.8400000000000004E-002    -6.3587725797337224E-011
   3.8699999999999998E-002     4.1215835435046921E-010
   3.9000000000000007E-002    -5.8677242489397279E-010
   3.9300000000000002E-002    -6.9888101515875462E-010
   3.9600000000000003E-002     3.9602878566335389E-009
   3.9900000000000005E-002    -3.9695245742616391E-009
   4.0200000000000000E-002    -1.0633303111811119E-008
   4.0500000000000001E-002     3.2931405507738024E-008
   4.0800000000000003E-002     1.7063103979080621E-009
   4.1100000000000005E-002    -1.4382158343010136E-007
   4.1399999999999999E-002     1.2222874535347813E-007
   4.1700000000000008E-002     5.2114624886761778E-007
   4.2000000000000003E-002    -8.5595317345298243E-007
   4.2299999999999997E-002    -2.1940443727783603E-006
   4.2600000000000006E-002     6.7331346059092552E-006
   4.2900000000000001E-002     3.3850363058212728E-005
   4.3200000000000002E-002     6.8271333791020930E-005
   4.3500000000000004E-002     8.8972180206638987E-005
   4.3799999999999999E-002     9.5815045095784274E-005
   4.4100000000000000E-002     1.1711574519226043E-004
   4.4400000000000002E-002     1.8020505237998849E-004
   4.4700000000000004E-002     2.8962633402405003E-004
   4.4999999999999998E-002     4.4178687675116950E-004
   4.5300000000000000E-002     6.4954257653335873E-004
   4.5600000000000002E-002     9.3736054247184689E-004
   4.5899999999999996E-002     1.3182047328668747E-003
   4.6200000000000005E-002     1.8053067219107877E-003
   4.6500000000000000E-002     2.4348447124844241E-003
   4.6799999999999994E-002     3.2316035164798446E-003
   4.7100000000000003E-002     4.1804623817755793E-003
   4.7399999999999998E-002     5.2549697872783102E-003
   4.7700000000000006E-002     6.4069225440099575E-003
   4.8000000000000001E-002     7.5219826531721934E-003
   4.8300000000000010E-002     8.4228895558617345E-003
   4.8600000000000004E-002     8.8521665700820318E-003
   4.8899999999999999E-002     8.4273480110391152E-003
   4.9200000000000008E-002     6.6479150271226140E-003
   4.9500000000000002E-002     2.9034642984472267E-003
   4.9800000000000011E-002    -3.5494192506173028E-003
   5.0100000000000006E-002    -1.3555284546241133E-002
   5.0400000000000000E-002    -2.7976801348977121E-002
   5.0700000000000009E-002    -4.7641690169202056E-002
   5.1000000000000004E-002    -7.3280178307920663E-002
   5.1299999999999998E-002   -0.10533340667687585     
   5.1600000000000007E-002   -0.14371633768271019     
   5.1900000000000002E-002   -0.18771627217166387     
   5.2200000000000010E-002   -0.23590283712374038     
   5.2500000000000005E-002   -0.28589734831048741     
   5.2800000000000000E-002   -0.33423509801419726     
   5.3099999999999994E-002   -0.37643266718970736     
   5.3400000000000003E-002   -0.40714076914041897     
   5.3699999999999998E-002   -0.42033058983338556     
   5.4000000000000006E-002   -0.40963146758082480     
   5.4300000000000001E-002   -0.36894884057614696     
   5.4599999999999996E-002   -0.29305577222762480     
   5.4900000000000004E-002   -0.17823601674805278     
   5.5199999999999999E-002    -2.3076446794002836E-002
   5.5499999999999994E-002    0.17108346504348937     
   5.5800000000000002E-002    0.39957415404447083     
   5.6099999999999997E-002    0.65409780870809975     
   5.6400000000000006E-002    0.92298699435525222     
   5.6700000000000000E-002     1.1915227845985648     
   5.6999999999999995E-002     1.4427130384840083     
   5.7300000000000004E-002     1.6584335691570615     
   5.7599999999999998E-002     1.8206517647637241     
   5.7900000000000007E-002     1.9129866395976975     
   5.8200000000000002E-002     1.9222086653737023     
   5.8499999999999996E-002     1.8395052031498906     
   5.8800000000000005E-002     1.6615412664664362     
   5.9100000000000000E-002     1.3912489455511476     
   5.9400000000000008E-002     1.0379554199358161     
   5.9700000000000003E-002    0.61692993857165845     
   6.0000000000000012E-002    0.14873500695416553     
   6.0300000000000006E-002   -0.34241089899414412     
   6.0600000000000001E-002   -0.83000801883986419     
   6.0900000000000010E-002    -1.2874953955246831     
   6.1200000000000004E-002    -1.6899120004446573     
   6.1500000000000013E-002    -2.0160047451724239     
   6.1800000000000008E-002    -2.2495882526244273     
   6.2100000000000002E-002    -2.3807450756979023     
   6.2399999999999997E-002    -2.4065041259438686     
   6.2700000000000006E-002    -2.3306808135791073     
   6.3000000000000000E-002    -2.1636138260526678     
   6.3300000000000009E-002    -1.9211913070016067     
   6.3600000000000004E-002    -1.6232228171240521     
   6.3899999999999998E-002    -1.2920682447687923     
   6.4199999999999993E-002   -0.95071952617053768     
   6.4500000000000002E-002   -0.62104648611633806     
   6.4800000000000010E-002   -0.32261439434904382     
   6.5100000000000005E-002    -7.1070745873480945E-002
   6.5400000000000000E-002    0.12263201941165747     
   6.5700000000000008E-002    0.25230663918893903     
   6.5999999999999989E-002    0.31699340065804549     
   6.6299999999999998E-002    0.32029639616278338     
   6.6600000000000006E-002    0.26973013913572608     
   6.6900000000000001E-002    0.17603638545520184     
   6.7199999999999996E-002     5.1916983844193298E-002
   6.7500000000000004E-002    -8.8816421822134117E-002
   6.7800000000000013E-002   -0.23192379514289774     
   6.8099999999999994E-002   -0.36416952781636391     
   6.8400000000000002E-002   -0.47335802864862586     
   6.8700000000000011E-002   -0.54901612710803249     
   6.8999999999999992E-002   -0.58307709449302436     
   6.9300000000000000E-002   -0.56955160068197230     
   6.9600000000000009E-002   -0.50502096531645435     
   6.9900000000000004E-002   -0.38869797037422060     
   7.0199999999999999E-002   -0.22210298138000617     
   7.0500000000000007E-002    -9.3193782087175325E-003
   7.0800000000000016E-002    0.24322316149731282     
   7.1099999999999997E-002    0.52704901458044651     
   7.1400000000000005E-002    0.83177581290856395     
   7.1700000000000000E-002     1.1456169799280183     
   7.1999999999999995E-002     1.4556681917060352     
   7.2300000000000003E-002     1.7484287689837146     
   7.2600000000000012E-002     2.0106087208901045     
   7.2900000000000006E-002     2.2294466573716747     
   7.3200000000000001E-002     2.3933768623997196     
   7.3499999999999996E-002     2.4927375388418369     
   7.3800000000000004E-002     2.5200595173640608     
   7.4099999999999999E-002     2.4707872416151133     
   7.4400000000000008E-002     2.3433340040271560     
   7.4700000000000003E-002     2.1392087207032091     
   7.5000000000000011E-002     1.8635758645231135     
   7.5299999999999992E-002     1.5247982851445911     
   7.5600000000000001E-002     1.1339447396632494     
   7.5900000000000009E-002    0.70496943970996284     
   7.6200000000000004E-002    0.25378696239441201     
   7.6499999999999999E-002   -0.20271883271158941     
   7.6800000000000007E-002   -0.64694753032531471     
   7.7099999999999988E-002    -1.0620564258943670     
   7.7399999999999997E-002    -1.4329542215682025     
   7.7700000000000005E-002    -1.7467392298136701     
   7.8000000000000014E-002    -1.9936888841258806     
   7.8299999999999995E-002    -2.1682519489646594     
   7.8600000000000003E-002    -2.2684091864745284     
   7.8900000000000012E-002    -2.2961444823004058     
   7.9199999999999993E-002    -2.2574491268514691     
   7.9500000000000001E-002    -2.1608192206733747     
   7.9800000000000010E-002    -2.0167017120667907     
   8.0100000000000018E-002    -1.8369107422736874     
   8.0399999999999999E-002    -1.6328800030180446     
   8.0700000000000008E-002    -1.4150910918755386     
   8.1000000000000003E-002    -1.1925542701738863     
   8.1299999999999997E-002   -0.97152021558288126     
   8.1600000000000006E-002   -0.75597600773023288     
   8.1900000000000014E-002   -0.54773902305965727     
   8.2199999999999995E-002   -0.34614338743225836     
   8.2500000000000004E-002   -0.14934631776838891     
   8.2799999999999999E-002     4.5015619458034006E-002
   8.3100000000000007E-002    0.23944091266592249     
   8.3400000000000002E-002    0.43558283010088683     
   8.3700000000000011E-002    0.63364098676570269     
   8.4000000000000005E-002    0.83199957112709733     
   8.4300000000000000E-002     1.0271062382770779     
   8.4599999999999995E-002     1.2133328397369603     
   8.4900000000000003E-002     1.3835385586411064     
   8.5199999999999998E-002     1.5294649853695006     
   8.5500000000000007E-002     1.6421180438209291     
   8.5800000000000001E-002     1.7128119675614357     
   8.6100000000000010E-002     1.7337979824563945     
   8.6399999999999991E-002     1.6988014918593706     
   8.6699999999999999E-002     1.6038651583880466     
   8.7000000000000008E-002     1.4480166079393229     
   8.7300000000000003E-002     1.2333226321359874     
   8.7599999999999997E-002    0.96527878385773391     
   8.7900000000000006E-002    0.65276122168280892     
   8.8200000000000014E-002    0.30798593514179462     
   8.8499999999999995E-002    -5.4284349480318461E-002
   8.8800000000000004E-002   -0.41729725895674186     
   8.9100000000000013E-002   -0.76299201398612770     
   8.9399999999999993E-002    -1.0732928548589307     
   8.9700000000000002E-002    -1.3311657350593933     
   9.0000000000000011E-002    -1.5215547793155082     
   9.0299999999999991E-002    -1.6327666341909506     
   9.0600000000000000E-002    -1.6572671415562183     
   9.0900000000000009E-002    -1.5922012069628408     
   9.1200000000000017E-002    -1.4399976721955738     
   9.1499999999999998E-002    -1.2083005437296066     
   9.1800000000000007E-002   -0.90955092773061708     
   9.2100000000000001E-002   -0.56048552446475597     
   9.2399999999999996E-002   -0.18099038570912018     
   9.2700000000000005E-002    0.20734591640785993     
   9.3000000000000013E-002    0.58213531589355938     
   9.3300000000000008E-002    0.92196428634811411     
   9.3600000000000003E-002     1.2082199150873638     
   9.3899999999999997E-002     1.4255300242925344     
   9.4200000000000006E-002     1.5629045566556101     
   9.4500000000000001E-002     1.6150071016762197     
   9.4800000000000009E-002     1.5816413642379956     
   9.5100000000000004E-002     1.4676709762352402     
   9.5399999999999999E-002     1.2831576809473475     
   9.5699999999999993E-002     1.0417397083901001     
   9.6000000000000002E-002    0.75976239089833797     
   9.6300000000000011E-002    0.45542224143447108     
   9.6600000000000005E-002    0.14695733936746525     
   9.6900000000000000E-002   -0.14825555364188236     
   9.7200000000000009E-002   -0.41465354982033631     
   9.7499999999999989E-002   -0.63960955711102097     
   9.7799999999999998E-002   -0.81374890857056492     
   9.8100000000000007E-002   -0.93110875652561731     
   9.8400000000000015E-002   -0.98949399419804962     
   9.8699999999999996E-002   -0.99007968241521738     
   9.9000000000000005E-002   -0.93692486372821548     
   9.9300000000000013E-002   -0.83686899204117537     
   9.9599999999999994E-002   -0.69885549489846355     
   9.9900000000000003E-002   -0.53336290141494480     
  0.10020000000000001        -0.35210252384465868     
  0.10049999999999999        -0.16742236388896625     
  0.10080000000000000          8.1601262394972451E-003
  0.10110000000000001         0.16225213955120399     
  0.10140000000000000         0.28355100431431191     
  0.10170000000000000         0.36216963079005993     
  0.10200000000000001         0.39016658195886045     
  0.10230000000000002         0.36260687340053188     
  0.10260000000000000         0.27755154733452958     
  0.10290000000000001         0.13666737218428615     
  0.10320000000000000         -5.4337722242449260E-002
  0.10350000000000001        -0.28637309903574248     
  0.10380000000000000        -0.54705523043800675     
  0.10410000000000001        -0.82118356590187869     
  0.10440000000000001         -1.0924547147200094     
  0.10470000000000000         -1.3438792642282706     
  0.10500000000000000         -1.5593531674910359     
  0.10530000000000000         -1.7251181371207949     
  0.10560000000000000         -1.8298723952741440     
  0.10590000000000001         -1.8663512052053832     
  0.10620000000000000         -1.8318358808255155     
  0.10650000000000001         -1.7271783757313486     
  0.10679999999999999         -1.5575178407547412     
  0.10710000000000000         -1.3316500617714908     
  0.10740000000000001         -1.0603763571504601     
  0.10770000000000000        -0.75681560973970008     
  0.10800000000000000        -0.43491222687536535     
  0.10830000000000001        -0.10819291751499283     
  0.10859999999999999         0.20992614993437186     
  0.10890000000000000         0.50738092160029424     
  0.10920000000000001         0.77385411786484370     
  0.10950000000000001          1.0006095245129778     
  0.10979999999999999          1.1810120779494930     
  0.11009999999999999          1.3109424028399204     
  0.11040000000000001          1.3880403005346764     
  0.11070000000000001          1.4126170474581983     
  0.11100000000000000          1.3877359045903148     
  0.11130000000000000          1.3183874813628336     
  0.11160000000000002          1.2121776816561649     
  0.11190000000000001          1.0790684061522668     
  0.11220000000000001         0.93032028885795981     
  0.11250000000000000         0.77882805189673121     
  0.11280000000000000         0.63754344657796480     
  0.11309999999999999         0.51877379013233949     
  0.11340000000000001         0.43384811311203819     
  0.11369999999999998         0.39095530504585696     
  0.11400000000000000         0.39523588985648317     
  0.11430000000000000         0.44876146940812589     
  0.11460000000000002         0.54849476035351019     
  0.11489999999999999         0.68793236222928700     
  0.11520000000000001         0.85765589845300649     
  0.11550000000000001          1.0447720720031644     
  0.11580000000000000          1.2353019869576158     
  0.11609999999999999          1.4148993143807580     
  0.11640000000000002          1.5692517582214762     
  0.11670000000000001          1.6863573189145313     
  0.11700000000000001          1.7563212124873999     
  0.11730000000000000          1.7715988744054201     
  0.11760000000000000          1.7284165806936400     
  0.11789999999999999          1.6253098677050914     
  0.11820000000000001          1.4628857752523601     
  0.11850000000000001          1.2443298112806573     
  0.11880000000000000         0.97387163115827136     
  0.11910000000000000         0.65660521218439527     
  0.11940000000000002         0.29893639839612263     
  0.11970000000000001         -9.2649205245654898E-002
  0.12000000000000001        -0.51038525999147666     
  0.12030000000000000        -0.94470217760319741     
  0.12060000000000000         -1.3849109827436781     
  0.12089999999999999         -1.8179763002581701     
  0.12119999999999999         -2.2280049557084887     
  0.12150000000000001         -2.5977833930820111     
  0.12180000000000001         -2.9075574122170451     
  0.12210000000000000         -3.1370792124158129     
  0.12239999999999999         -3.2672853968050646     
  0.12270000000000002         -3.2804465795839093     
  0.12300000000000001         -3.1632581114666039     
  0.12330000000000001         -2.9086398638733613     
  0.12360000000000000         -2.5160430046110491     
  0.12390000000000000         -1.9934202246546420     
  0.12419999999999999         -1.3575256645269889     
  0.12450000000000001        -0.63283215671943616     
  0.12480000000000001         0.14883611057021895     
  0.12509999999999999         0.95044853125718021     
  0.12540000000000001          1.7327533514833533     
  0.12570000000000003          2.4556262376765865     
  0.12600000000000000          3.0818504378934648     
  0.12630000000000002          3.5797924227364391     
  0.12659999999999999          3.9241499534274453     
  0.12690000000000001          4.0986715433260628     
  0.12719999999999998          4.0967416747721046     
  0.12750000000000000          3.9200849159510938     
  0.12780000000000002          3.5794802570877238     
  0.12809999999999999          3.0930679631700144     
  0.12840000000000001          2.4837871493870125     
  0.12869999999999998          1.7790855216881880     
  0.12900000000000000          1.0084927420787331     
  0.12930000000000003         0.20153384832579935     
  0.12959999999999999        -0.61202725082423370     
  0.12990000000000002         -1.4041343171152860     
  0.13019999999999998         -2.1488651624132373     
  0.13050000000000000         -2.8221544904523537     
  0.13080000000000003         -3.4029374104909138     
  0.13109999999999999         -3.8728589326288656     
  0.13140000000000002         -4.2165478394586415     
  0.13169999999999998         -4.4228334610658209     
  0.13200000000000001         -4.4846279540804090     
  0.13229999999999997         -4.3998117370262690     
  0.13260000000000000         -4.1726112529930930     
  0.13290000000000002         -3.8129992438409346     
  0.13319999999999999         -3.3377648011807679     
  0.13350000000000001         -2.7702987588630634     
  0.13380000000000003         -2.1395369086808174     
  0.13410000000000000         -1.4786943393826206     
  0.13440000000000002        -0.82406882586988317     
  0.13469999999999999        -0.21198971893855534     
  0.13500000000000001         0.32310671178640504     
  0.13529999999999998         0.75141682335867799     
  0.13560000000000000          1.0507953245918777     
  0.13590000000000002          1.2083026186157149     
  0.13619999999999999          1.2224913086903304     
  0.13650000000000001          1.1035879389335399     
  0.13680000000000003         0.87371380252942288     
  0.13710000000000000         0.56587295625810086     
  0.13740000000000002         0.22153930640408825     
  0.13769999999999999        -0.11237775950713136     
  0.13800000000000001        -0.38716321900725070     
  0.13829999999999998        -0.55696506178375849     
  0.13860000000000000        -0.58308842954006668     
  0.13890000000000002        -0.43712420036807220     
  0.13919999999999999        -0.10565136697475053     
  0.13950000000000001         0.40824854969012847     
  0.13979999999999998          1.0845722668879065     
  0.14010000000000000          1.8863515596156928     
  0.14040000000000002          2.7619170210211514     
  0.14069999999999999          3.6495484382328272     
  0.14100000000000001          4.4815717691735060     
  0.14130000000000004          5.1902028107185458     
  0.14160000000000000          5.7136173674049076     
  0.14189999999999997          6.0012953906853852     
  0.14219999999999999          6.0186663716475266     
  0.14250000000000002          5.7504790310435681     
  0.14279999999999998          5.2023275644382920     
  0.14310000000000000          4.4002370405151368     
  0.14339999999999997          3.3889503253111144     
  0.14369999999999999          2.2275254325047200     
  0.14400000000000002         0.98481722216748757     
  0.14429999999999998        -0.26628442519817597     
  0.14460000000000001         -1.4548498611813585     
  0.14490000000000003         -2.5174963403540502     
  0.14520000000000000         -3.4034625303041501     
  0.14550000000000002         -4.0765698399881636     
  0.14579999999999999         -4.5185692163526596     
  0.14610000000000001         -4.7290477555514627     
  0.14640000000000003         -4.7230234101247675     
  0.14670000000000000         -4.5298120878011332     
  0.14699999999999996         -4.1892614385987770     
  0.14729999999999999         -3.7468322528199849     
  0.14760000000000001         -3.2506538989795786     
  0.14789999999999998         -2.7473327302560620     
  0.14820000000000000         -2.2780231193879246     