  -1.4999999999999999E-002     0.0000000000000000     
  -1.4700000000000000E-002    -4.7377110914958998E-012
  -1.4400000000000000E-002    -6.1317600996702026E-010
  -1.4100000000000000E-002     1.7628807302827454E-009
  -1.3800000000000000E-002     1.1871848393241180E-008
  -1.3500000000000000E-002    -2.2805843880036036E-009
  -1.3200000000000000E-002    -5.8902514865621924E-008
  -1.2899999999999998E-002    -7.4111774495122518E-008
  -1.2600000000000000E-002     6.7649416735093837E-008
  -1.2299999999999998E-002     3.9555499142807093E-007
  -1.2000000000000000E-002     2.0069842321390752E-007
  -1.1699999999999999E-002    -5.3024479029772920E-007
  -1.1399999999999999E-002    -1.2105371069992543E-006
  -1.1099999999999999E-002    -6.5755028799685533E-007
  -1.0799999999999999E-002     1.4345897625389625E-006
  -1.0499999999999999E-002     3.7844902180950157E-006
  -1.0199999999999999E-002     1.3762792150373571E-006
  -9.8999999999999991E-003    -2.7215012323722476E-006
  -9.5999999999999992E-003    -7.6948881542193703E-006
  -9.2999999999999992E-003    -5.8994128266931511E-006
  -8.9999999999999993E-003     4.2938731894537341E-006
  -8.6999999999999994E-003     1.3219218089943752E-005
  -8.3999999999999995E-003     1.1651072782115079E-005
  -8.0999999999999996E-003     7.7341940141195664E-007
  -7.7999999999999988E-003    -1.8231965441373177E-005
  -7.4999999999999997E-003    -1.8953667677124031E-005
  -7.1999999999999998E-003    -3.3313406220258912E-006
  -6.8999999999999981E-003     2.8303162252996117E-005
  -6.5999999999999982E-003     5.9852045524166897E-005
  -6.3000000000000000E-003     8.6984837253112346E-005
  -6.0000000000000001E-003     1.1656707647489384E-004
  -5.6999999999999985E-003     1.5731454186607152E-004
  -5.3999999999999986E-003     2.2017343144398183E-004
  -5.1000000000000004E-003     2.9628953780047596E-004
  -4.7999999999999987E-003     4.0561828063800931E-004
  -4.5000000000000005E-003     5.7836627820506692E-004
  -4.1999999999999989E-003     8.6649210425093770E-004
  -3.8999999999999990E-003     1.3090742286294699E-003
  -3.5999999999999990E-003     1.9297157414257526E-003
  -3.2999999999999991E-003     2.7001472190022469E-003
  -2.9999999999999992E-003     3.6377541255205870E-003
  -2.6999999999999993E-003     4.7214254736900330E-003
  -2.3999999999999994E-003     5.9025641530752182E-003
  -2.0999999999999977E-003     7.1398993022739887E-003
  -1.7999999999999995E-003     8.2290275022387505E-003
  -1.4999999999999979E-003     8.9818201959133148E-003
  -1.1999999999999997E-003     9.0245325118303299E-003
  -8.9999999999999976E-004     7.7594858594238758E-003
  -5.9999999999999810E-004     4.3156198225915432E-003
  -2.9999999999999992E-004    -2.4995116982609034E-003
   0.0000000000000000         -1.4322320930659771E-002
   3.0000000000000165E-004    -3.3215139061212540E-002
   5.9999999999999984E-004    -6.1795629560947418E-002
   9.0000000000000149E-004   -0.10320360213518143     
   1.2000000000000031E-003   -0.16107580065727234     
   1.5000000000000013E-003   -0.23979778587818146     
   1.8000000000000030E-003   -0.34400472044944763     
   2.1000000000000012E-003   -0.47890734672546387     
   2.3999999999999994E-003   -0.64989185333251953     
   2.7000000000000010E-003   -0.86230909824371338     
   2.9999999999999992E-003    -1.1211862564086914     
   3.3000000000000008E-003    -1.4311136007308960     
   3.6000000000000025E-003    -1.7956291437149048     
   3.9000000000000007E-003    -2.2164759635925293     
   4.2000000000000023E-003    -2.6928062438964844     
   4.5000000000000005E-003    -3.2205853462219238     
   4.7999999999999987E-003    -3.7918334007263184     
   5.1000000000000004E-003    -4.3932623863220215     
   5.4000000000000020E-003    -5.0053963661193848     
   5.7000000000000037E-003    -5.6006636619567871     
   5.9999999999999984E-003    -6.1435909271240234     
   6.3000000000000000E-003    -6.5892944335937500     
   6.6000000000000017E-003    -6.8840036392211914     
   6.9000000000000034E-003    -6.9659910202026367     
   7.2000000000000015E-003    -6.7673263549804688     
   7.5000000000000032E-003    -6.2179374694824219     
   7.8000000000000014E-003    -5.2500844001770020     
   8.0999999999999996E-003    -3.8050591945648193     
   8.4000000000000012E-003    -1.8410547971725464     
   8.7000000000000029E-003    0.65953826904296875     
   9.0000000000000011E-003     3.6804938316345215     
   9.2999999999999992E-003     7.1659035682678223     
   9.6000000000000009E-003     11.014892578125000     
   9.8999999999999991E-003     15.079889297485352     
   1.0200000000000001E-002     19.169736862182617     
   1.0500000000000002E-002     23.054962158203125     
   1.0800000000000004E-002     26.483016967773438     
   1.1099999999999999E-002     29.190952301025391     
   1.1400000000000000E-002     30.929334640502930     
   1.1700000000000002E-002     31.480115890502930     
   1.2000000000000004E-002     30.681900024414062     
   1.2300000000000002E-002     28.444854736328125     
   1.2600000000000000E-002     24.769287109375000     
   1.2900000000000002E-002     19.749698638916016     
   1.3200000000000000E-002     13.577615737915039     
   1.3500000000000002E-002     6.5312623977661133     
   1.3800000000000003E-002    -1.0415636301040649     
   1.4100000000000001E-002    -8.7447376251220703     
   1.4400000000000000E-002    -16.166618347167969     
   1.4700000000000001E-002    -22.906320571899414     
   1.4999999999999999E-002    -28.607894897460938     
   1.5300000000000001E-002    -32.983806610107422     
   1.5600000000000003E-002    -35.839050292968750     
   1.5899999999999997E-002    -37.079875946044922     
   1.6199999999999999E-002    -36.722919464111328     
   1.6500000000000001E-002    -34.882961273193359     
   1.6800000000000002E-002    -31.766351699829102     
   1.7100000000000004E-002    -27.643753051757812     
   1.7400000000000006E-002    -22.831624984741211     
   1.7700000000000000E-002    -17.658308029174805     
   1.8000000000000002E-002    -12.445172309875488     
   1.8300000000000004E-002    -7.4749913215637207     
   1.8600000000000005E-002    -2.9818053245544434     
   1.8900000000000000E-002    0.86944174766540527     
   1.9200000000000002E-002     3.9808595180511475     
   1.9500000000000003E-002     6.3272242546081543     
   1.9799999999999998E-002     7.9419827461242676     
   2.0100000000000000E-002     8.9113769531250000     
   2.0400000000000001E-002     9.3542680740356445     
   2.0700000000000003E-002     9.4111385345458984     
   2.0999999999999998E-002     9.2215709686279297     
   2.1299999999999999E-002     8.9163370132446289     
   2.1600000000000001E-002     8.6017303466796875     
   2.1900000000000003E-002     8.3554668426513672     
   2.2200000000000004E-002     8.2198066711425781     
   2.2500000000000006E-002     8.2051162719726562     
   2.2800000000000001E-002     8.2907323837280273     
   2.3100000000000002E-002     8.4338855743408203     
   2.3400000000000004E-002     8.5735988616943359     
   2.3699999999999999E-002     8.6445960998535156     
   2.4000000000000000E-002     8.5804824829101562     
   2.4300000000000002E-002     8.3269557952880859     
   2.4599999999999997E-002     7.8420863151550293     
   2.4900000000000005E-002     7.1069583892822266     
   2.5200000000000000E-002     6.1234469413757324     
   2.5499999999999995E-002     4.9173040390014648     
   2.5800000000000003E-002     3.5349564552307129     
   2.6099999999999998E-002     2.0401074886322021     
   2.6400000000000007E-002    0.51002299785614014     
   2.6700000000000002E-002   -0.97373336553573608     
   2.6999999999999996E-002    -2.3277077674865723     
   2.7300000000000005E-002    -3.4782390594482422     
   2.7600000000000000E-002    -4.3621673583984375     
   2.7900000000000008E-002    -4.9374909400939941     
   2.8200000000000003E-002    -5.1811952590942383     
   2.8499999999999998E-002    -5.0960865020751953     
   2.8800000000000006E-002    -4.7062416076660156     
   2.9100000000000001E-002    -4.0577716827392578     
   2.9400000000000003E-002    -3.2128415107727051     
   2.9700000000000004E-002    -2.2452991008758545     
   3.0000000000000006E-002    -1.2346191406250000     
   3.0300000000000001E-002   -0.25905707478523254     
   3.0600000000000002E-002    0.60868263244628906     
   3.0900000000000004E-002     1.3098988533020020     
   3.1199999999999999E-002     1.7993921041488647     
   3.1500000000000007E-002     2.0525126457214355     
   3.1800000000000002E-002     2.0615165233612061     
   3.2099999999999997E-002     1.8397213220596313     
   3.2400000000000005E-002     1.4153907299041748     
   3.2700000000000000E-002    0.83167040348052979     
   3.3000000000000002E-002    0.14162623882293701     
   3.3300000000000003E-002   -0.59654867649078369     
   3.3599999999999998E-002    -1.3219993114471436     
   3.3900000000000000E-002    -1.9789891242980957     
   3.4200000000000001E-002    -2.5162134170532227     
   3.4500000000000003E-002    -2.8958053588867188     
   3.4799999999999998E-002    -3.0899353027343750     
   3.5099999999999999E-002    -3.0877242088317871     
   3.5400000000000001E-002    -2.8914692401885986     
   3.5699999999999996E-002    -2.5193607807159424     
   3.6000000000000004E-002    -2.0011637210845947     
   3.6299999999999999E-002    -1.3771996498107910     
   3.6600000000000008E-002   -0.69408667087554932     
   3.6900000000000002E-002    -1.1200308799743652E-003
   3.7199999999999997E-002    0.65379226207733154     
   3.7500000000000006E-002     1.2275031805038452     
   3.7800000000000000E-002     1.6851637363433838     
   3.8100000000000009E-002     2.0023436546325684     
   3.8400000000000004E-002     2.1670005321502686     
   3.8699999999999998E-002     2.1779611110687256     
   3.9000000000000007E-002     2.0471951961517334     
   3.9300000000000002E-002     1.7946056127548218     
   3.9600000000000003E-002     1.4496012926101685     
   3.9900000000000005E-002     1.0435621738433838     
   4.0200000000000000E-002    0.61338269710540771     
   4.0500000000000001E-002    0.19207738339900970     
   4.0800000000000003E-002   -0.18772444128990173     
   4.1100000000000005E-002   -0.50131404399871826     
   4.1399999999999999E-002   -0.72816038131713867     
   4.1700000000000008E-002   -0.85749447345733643     
   4.2000000000000003E-002   -0.88492250442504883     
   4.2299999999999997E-002   -0.81493371725082397     
   4.2600000000000006E-002   -0.65859085321426392     
   4.2900000000000001E-002   -0.43298569321632385     
   4.3200000000000002E-002   -0.15966229140758514     
   4.3500000000000004E-002    0.13764415681362152     
   4.3799999999999999E-002    0.43360176682472229     
   4.4100000000000000E-002    0.70581787824630737     
   4.4400000000000002E-002    0.93328201770782471     
   4.4700000000000004E-002     1.1009068489074707     
   4.4999999999999998E-002     1.1970082521438599     
   4.5300000000000000E-002     1.2182703018188477     
   4.5600000000000002E-002     1.1642625331878662     
   4.5899999999999996E-002     1.0419063568115234     
   4.6200000000000005E-002    0.86028444766998291     
   4.6500000000000000E-002    0.63282626867294312     
   4.6799999999999994E-002    0.37308540940284729     
   4.7100000000000003E-002     9.5761030912399292E-002
   4.7399999999999998E-002   -0.18554541468620300     
   4.7700000000000006E-002   -0.45855936408042908     
   4.8000000000000001E-002   -0.71148085594177246     
   4.8300000000000010E-002   -0.93604063987731934     
   4.8600000000000004E-002    -1.1230722665786743     
   4.8899999999999999E-002    -1.2673152685165405     
   4.9200000000000008E-002    -1.3606469631195068     
   4.9500000000000002E-002    -1.3996688127517700     
   4.9800000000000011E-002    -1.3782647848129272     
   5.0100000000000006E-002    -1.2957526445388794     
   5.0400000000000000E-002    -1.1494009494781494     
   5.0700000000000009E-002   -0.94272023439407349     
   5.1000000000000004E-002   -0.67982941865921021     
   5.1299999999999998E-002   -0.37153705954551697     
   5.1600000000000007E-002    -3.0300593003630638E-002
   5.1900000000000002E-002    0.32567217946052551     
   5.2200000000000010E-002    0.67649298906326294     
   5.2500000000000005E-002    0.99952459335327148     
   5.2800000000000000E-002     1.2724303007125854     
   5.3099999999999994E-002     1.4744242429733276     
   5.3400000000000003E-002     1.5888848304748535     
   5.3699999999999998E-002     1.6039316654205322     
   5.4000000000000006E-002     1.5152121782302856     
   5.4300000000000001E-002     1.3249944448471069     
   5.4599999999999996E-002     1.0450698137283325     
   5.4900000000000004E-002    0.69265252351760864     
   5.5199999999999999E-002    0.29276543855667114     
   5.5499999999999994E-002   -0.12764151394367218     
   5.5800000000000002E-002   -0.53755086660385132     
   5.6099999999999997E-002   -0.90942704677581787     
   5.6400000000000006E-002    -1.2165825366973877     
   5.6700000000000000E-002    -1.4398051500320435     
   5.6999999999999995E-002    -1.5654393434524536     
   5.7300000000000004E-002    -1.5891666412353516     
   5.7599999999999998E-002    -1.5136034488677979     
   5.7900000000000007E-002    -1.3501299619674683     
   5.8200000000000002E-002    -1.1144269704818726     
   5.8499999999999996E-002   -0.82816046476364136     
   5.8800000000000005E-002   -0.51349186897277832     
   5.9100000000000000E-002   -0.19432359933853149     
   5.9400000000000008E-002    0.10932566225528717     
   5.9700000000000003E-002    0.37852117419242859     
   6.0000000000000012E-002    0.60145533084869385     
   6.0300000000000006E-002    0.76823461055755615     
   6.0600000000000001E-002    0.87715524435043335     
   6.0900000000000010E-002    0.92725580930709839     
   6.1200000000000004E-002    0.92508703470230103     
   6.1500000000000013E-002    0.87651401758193970     
   6.1800000000000008E-002    0.79235124588012695     
   6.2100000000000002E-002    0.68172830343246460     
   6.2399999999999997E-002    0.55620312690734863     
   6.2700000000000006E-002    0.42515608668327332     
   6.3000000000000000E-002    0.29788276553153992     
   6.3300000000000009E-002    0.18186052143573761     
   6.3600000000000004E-002     8.3073213696479797E-002
   6.3899999999999998E-002     5.8194184675812721E-003
   6.4199999999999993E-002    -4.8513889312744141E-002
   6.4500000000000002E-002    -7.9590387642383575E-002
   6.4800000000000010E-002    -8.9803934097290039E-002
   6.5100000000000005E-002    -8.2450859248638153E-002
   6.5400000000000000E-002    -6.2844514846801758E-002
   6.5700000000000008E-002    -3.5956028848886490E-002
   6.5999999999999989E-002    -8.1915054470300674E-003
   6.6299999999999998E-002     1.5639457851648331E-002
   6.6600000000000006E-002     2.9795188456773758E-002
   6.6900000000000001E-002     3.2033883035182953E-002
   6.7199999999999996E-002     1.9384428858757019E-002
   6.7500000000000004E-002    -7.5795087032020092E-003
   6.7800000000000013E-002    -4.8756815493106842E-002
   6.8099999999999994E-002   -0.10126218944787979     
   6.8400000000000002E-002   -0.16206543147563934     
   6.8700000000000011E-002   -0.22684194147586823     
   6.8999999999999992E-002   -0.29125419259071350     
   6.9300000000000000E-002   -0.35069611668586731     
   6.9600000000000009E-002   -0.40059325098991394     
   6.9900000000000004E-002   -0.43737095594406128     
   7.0199999999999999E-002   -0.45710924267768860     
   7.0500000000000007E-002   -0.45842140913009644     
   7.0800000000000016E-002   -0.43891605734825134     
   7.1099999999999997E-002   -0.39964187145233154     
   7.1400000000000005E-002   -0.34074556827545166     
   7.1700000000000000E-002   -0.26621901988983154     
   7.1999999999999995E-002   -0.17903541028499603     
   7.2300000000000003E-002    -8.4626868367195129E-002
   7.2600000000000012E-002     1.1887451633810997E-002
   7.2900000000000006E-002    0.10523977875709534     
   7.3200000000000001E-002    0.18920060992240906     
   7.3499999999999996E-002    0.26023295521736145     
   7.3800000000000004E-002    0.31383267045021057     
   7.4099999999999999E-002    0.34908390045166016     
   7.4400000000000008E-002    0.36424013972282410     
   7.4700000000000003E-002    0.36085867881774902     
   7.5000000000000011E-002    0.34039419889450073     
   7.5299999999999992E-002    0.30588409304618835     
   7.5600000000000001E-002    0.26064175367355347     
   7.5900000000000009E-002    0.20830042660236359     
   7.6200000000000004E-002    0.15294884145259857     
   7.6499999999999999E-002     9.7475744783878326E-002
   7.6800000000000007E-002     4.5837473124265671E-002
   7.7099999999999988E-002    -3.0329474247992039E-004
   7.7399999999999997E-002    -3.7953354418277740E-002
   7.7700000000000005E-002    -6.6518075764179230E-002
   7.8000000000000014E-002    -8.4208771586418152E-002
   7.8299999999999995E-002    -9.1367445886135101E-002
   7.8600000000000003E-002    -8.7825886905193329E-002
   7.8900000000000012E-002    -7.5278334319591522E-002
   7.9199999999999993E-002    -5.4861560463905334E-002
   7.9500000000000001E-002    -2.9080944135785103E-002
   7.9800000000000010E-002    -1.4279060997068882E-004
   8.0100000000000018E-002     2.8820415958762169E-002
   8.0399999999999999E-002     5.5460117757320404E-002
   8.0700000000000008E-002     7.6815679669380188E-002
   8.1000000000000003E-002     9.1929249465465546E-002
   8.1299999999999997E-002     9.8351970314979553E-002
   8.1600000000000006E-002     9.6779353916645050E-002
   8.1900000000000014E-002     8.6087577044963837E-002
   8.2199999999999995E-002     6.8657197058200836E-002
   8.2500000000000004E-002     4.4536001980304718E-002
   8.2799999999999999E-002     1.6513569280505180E-002
   8.3100000000000007E-002    -1.4287048019468784E-002
   8.3400000000000002E-002    -4.5075230300426483E-002
   8.3700000000000011E-002    -7.4068024754524231E-002
   8.4000000000000005E-002   -0.10001909732818604     
   8.4300000000000000E-002   -0.12053656578063965     
   8.4599999999999995E-002   -0.13587494194507599     
   8.4900000000000003E-002   -0.14370545744895935     
   8.5199999999999998E-002   -0.14555542171001434     
   8.5500000000000007E-002   -0.13957285881042480     
   8.5800000000000001E-002   -0.12840504944324493     
   8.6100000000000010E-002   -0.11115299910306931     
   8.6399999999999991E-002    -9.0894468128681183E-002
   8.6699999999999999E-002    -6.7531213164329529E-002
   8.7000000000000008E-002    -4.4161915779113770E-002
   8.7300000000000003E-002    -2.1278560161590576E-002
   8.7599999999999997E-002    -1.0315568652004004E-003
   8.7900000000000006E-002     1.5740931034088135E-002
   8.8200000000000014E-002     2.8158582746982574E-002
   8.8499999999999995E-002     3.5949997603893280E-002
   8.8800000000000004E-002     3.9210241287946701E-002
   8.9100000000000013E-002     3.8428444415330887E-002
   8.9399999999999993E-002     3.4085091203451157E-002
   8.9700000000000002E-002     2.7475755661725998E-002
   9.0000000000000011E-002     1.8998663872480392E-002
   9.0299999999999991E-002     1.0247792117297649E-002
   9.0600000000000000E-002     1.3654424110427499E-003
   9.0900000000000009E-002    -6.0895802453160286E-003
   9.1200000000000017E-002    -1.1868496425449848E-002
   9.1499999999999998E-002    -1.5552894212305546E-002
   9.1800000000000007E-002    -1.6350129619240761E-002
   9.2100000000000001E-002    -1.4603138901293278E-002
   9.2399999999999996E-002    -9.1824429109692574E-003
   9.2700000000000005E-002    -2.1195095032453537E-003
   9.3000000000000013E-002     8.2316072657704353E-003
   9.3300000000000008E-002     1.9056987017393112E-002
   9.3600000000000003E-002     3.1514957547187805E-002
   9.3899999999999997E-002     4.2575925588607788E-002
   9.4200000000000006E-002     5.2596203982830048E-002
   9.4500000000000001E-002     5.9976864606142044E-002
   9.4800000000000009E-002     6.4216159284114838E-002
   9.5100000000000004E-002     6.5444096922874451E-002
   9.5399999999999999E-002     6.2317397445440292E-002
   9.5699999999999993E-002     5.7044576853513718E-002
   9.6000000000000002E-002     4.8159111291170120E-002
   9.6300000000000011E-002     3.9262041449546814E-002
   9.6600000000000005E-002     2.7933688834309578E-002
   9.6900000000000000E-002     1.8267206847667694E-002
   9.7200000000000009E-002     7.4599497020244598E-003
   9.7499999999999989E-002    -3.5797091550193727E-004
   9.7799999999999998E-002    -8.4785418584942818E-003
   9.8100000000000007E-002    -1.3966999948024750E-002
   9.8400000000000015E-002    -1.9213423132896423E-002
   9.8699999999999996E-002    -2.2363781929016113E-002
   9.9000000000000005E-002    -2.4813143536448479E-002
   9.9300000000000013E-002    -2.6147741824388504E-002
   9.9599999999999994E-002    -2.6377771049737930E-002
   9.9900000000000003E-002    -2.5562757626175880E-002
  0.10020000000000001         -2.3567138239741325E-002
  0.10049999999999999         -2.0850071683526039E-002
  0.10080000000000000         -1.7533453181385994E-002
  0.10110000000000001         -1.3977110385894775E-002
  0.10140000000000000         -1.0667094960808754E-002
  0.10170000000000000         -8.0506382510066032E-003
  0.10200000000000001         -6.2517146579921246E-003
  0.10230000000000002         -5.7035223580896854E-003
  0.10260000000000000         -6.0066753067076206E-003
  0.10290000000000001         -7.2841607034206390E-003
  0.10320000000000000         -8.7409662082791328E-003
  0.10350000000000001         -1.0384282097220421E-002
  0.10380000000000000         -1.1470561847090721E-002
  0.10410000000000001         -1.1833390220999718E-002
  0.10440000000000001         -1.1085879057645798E-002
  0.10470000000000000         -9.6554579213261604E-003
  0.10500000000000000         -7.5030354782938957E-003
  0.10530000000000000         -5.1260204054415226E-003
  0.10560000000000000         -2.6024756953120232E-003
  0.10590000000000001         -4.6432780800387263E-004
  0.10620000000000000          1.1484301649034023E-003
  0.10650000000000001          2.2299773991107941E-003
  0.10679999999999999          2.5881726760417223E-003
  0.10710000000000000          2.7269164565950632E-003
  0.10740000000000001          2.6484495028853416E-003
  0.10770000000000000          2.5885696522891521E-003
  0.10800000000000000          2.3634335957467556E-003
  0.10830000000000001          2.0619232673197985E-003
  0.10859999999999999          1.7775417072698474E-003
  0.10890000000000000          8.3054631249979138E-004
  0.10920000000000001         -1.0277690307702869E-006
  0.10950000000000001         -1.8969741649925709E-003
  0.10979999999999999         -3.1674001365900040E-003
  0.11009999999999999         -5.4232547990977764E-003
  0.11040000000000001         -6.6581130959093571E-003
  0.11070000000000001         -8.0398125573992729E-003
  0.11100000000000000         -7.5545744039118290E-003
  0.11130000000000000         -6.8870713002979755E-003
  0.11160000000000002         -4.3246531859040260E-003
  0.11190000000000001         -1.6434364952147007E-003
  0.11220000000000001          2.3350485134869814E-003
  0.11250000000000000          5.8414512313902378E-003
  0.11280000000000000          9.8625253885984421E-003
  0.11309999999999999          1.2572643347084522E-002
  0.11340000000000001          1.5211146324872971E-002
  0.11369999999999998          1.6348138451576233E-002
  0.11400000000000000          1.7326673492789268E-002
  0.11430000000000000          1.7182037234306335E-002
  0.11460000000000002          1.7192037776112556E-002
  0.11489999999999999          1.6458382830023766E-002
  0.11520000000000001          1.5905382111668587E-002
  0.11550000000000001          1.4789926819503307E-002
  0.11580000000000000          1.3592734001576900E-002
  0.11609999999999999          1.1548837646842003E-002
  0.11640000000000002          8.9188534766435623E-003
  0.11670000000000001          5.3773238323628902E-003
  0.11700000000000001          1.1353277368471026E-003
  0.11730000000000000         -3.7219359073787928E-003
  0.11760000000000000         -8.6569320410490036E-003
  0.11789999999999999         -1.3406934216618538E-002
  0.11820000000000001         -1.7283722758293152E-002
  0.11850000000000001         -1.9975915551185608E-002
  0.11880000000000000         -2.1117318421602249E-002
  0.11910000000000000         -2.1035028621554375E-002
  0.11940000000000002         -1.9396543502807617E-002
  0.11970000000000001         -1.6708046197891235E-002
  0.12000000000000001         -1.2933304533362389E-002
  0.12030000000000000         -9.0202232822775841E-003
  0.12060000000000000         -4.8066745512187481E-003
  0.12089999999999999         -9.1724534286186099E-004
  0.12119999999999999          3.0294945463538170E-003
  0.12150000000000001          6.4641856588423252E-003
  0.12180000000000001          9.4968890771269798E-003
  0.12210000000000000          1.2005141936242580E-002
  0.12239999999999999          1.4027109369635582E-002
  0.12270000000000002          1.5247290022671223E-002
  0.12300000000000001          1.5433927997946739E-002
  0.12330000000000001          1.4359598979353905E-002
  0.12360000000000000          1.2219761498272419E-002
  0.12390000000000000          8.5061993449926376E-003
  0.12419999999999999          3.7910931278020144E-003
  0.12450000000000001         -1.8726394046097994E-003
  0.12480000000000001         -7.6079247519373894E-003
  0.12509999999999999         -1.3126467354595661E-002
  0.12540000000000001         -1.7493790015578270E-002
  0.12570000000000003         -2.0528081804513931E-002
  0.12600000000000000         -2.1546954289078712E-002
  0.12630000000000002         -2.0639898255467415E-002
  0.12659999999999999         -1.7650656402111053E-002
  0.12690000000000001         -1.3052157126367092E-002
  0.12719999999999998         -7.3968237265944481E-003
  0.12750000000000000         -1.0606495197862387E-003
  0.12780000000000002          5.4281111806631088E-003
  0.12809999999999999          1.1332466267049313E-002
  0.12840000000000001          1.6505179926753044E-002
  0.12869999999999998          2.0239837467670441E-002
  0.12900000000000000          2.3266149684786797E-002
  0.12930000000000003          2.4074211716651917E-002
  0.12959999999999999          2.4418316781520844E-002
  0.12990000000000002          2.2066595032811165E-002
  0.13019999999999998          1.9725332036614418E-002
  0.13050000000000000          1.4637421816587448E-002
  0.13080000000000003          1.0037452913820744E-002
  0.13109999999999999          2.8891614638268948E-003
  0.13140000000000002         -3.3617648296058178E-003
  0.13169999999999998         -1.0814727284014225E-002
  0.13200000000000001         -1.6815109178423882E-002
  0.13229999999999997         -2.2541606798768044E-002
  0.13260000000000000         -2.6323758065700531E-002
  0.13290000000000002         -2.8419768437743187E-002
  0.13319999999999999         -2.8538655489683151E-002
  0.13350000000000001         -2.6158301159739494E-002
  0.13380000000000003         -2.2402841597795486E-002
  0.13410000000000000         -1.6620239242911339E-002
  0.13440000000000002         -1.0307455435395241E-002
  0.13469999999999999         -3.0026412568986416E-003
  0.13500000000000001          3.9295163005590439E-003
  0.13529999999999998          1.0545630007982254E-002
  0.13560000000000000          1.6386378556489944E-002
  0.13590000000000002          2.0727982744574547E-002
  0.13619999999999999          2.4339821189641953E-002
  0.13650000000000001          2.5734858587384224E-002
  0.13680000000000003          2.6698993518948555E-002
  0.13710000000000000          2.5038275867700577E-002
  0.13740000000000002          2.2987002506852150E-002
  0.13769999999999999          1.8596546724438667E-002
  0.13800000000000001          1.3799948617815971E-002
  0.13829999999999998          7.5579192489385605E-003
  0.13860000000000000          7.5338780879974365E-004
  0.13890000000000002         -6.1522126197814941E-003
  0.13919999999999999         -1.3007462024688721E-002
  0.13950000000000001         -1.8732883036136627E-002
  0.13979999999999998         -2.3609200492501259E-002
  0.14010000000000000         -2.6376051828265190E-002
  0.14040000000000002         -2.7809178456664085E-002
  0.14069999999999999         -2.6754647493362427E-002
  0.14100000000000001         -2.4205392226576805E-002
  0.14130000000000004         -2.0021639764308929E-002
  0.14160000000000000         -1.4477320946753025E-002
  0.14189999999999997         -8.5282186046242714E-003
  0.14219999999999999         -1.6276193782687187E-003
  0.14250000000000002          4.1453000158071518E-003
  0.14279999999999998          1.0602734982967377E-002
  0.14310000000000000          1.5088782645761967E-002
  0.14339999999999997          1.9830072298645973E-002
  0.14369999999999999          2.2301115095615387E-002
  0.14400000000000002          2.4320855736732483E-002
  0.14429999999999998          2.4315733462572098E-002
  0.14460000000000001          2.3163828998804092E-002
  0.14490000000000003          2.0676597952842712E-002
  0.14520000000000000          1.6473080962896347E-002
  0.14550000000000002          1.1737626045942307E-002
  0.14579999999999999          5.4378751665353775E-003
  0.14610000000000001         -3.7104709190316498E-004
  0.14640000000000003         -7.3512452654540539E-003
  0.14670000000000000         -1.2661696411669254E-002
  0.14699999999999996         -1.8072325736284256E-002
  0.14729999999999999         -2.1128008142113686E-002
  0.14760000000000001         -2.3670323193073273E-002
  0.14789999999999998         -2.3636193946003914E-002
  0.14820000000000000         -2.2600227966904640E-002