  -1.4999999999999999E-002     0.0000000000000000     
  -1.4700000000000000E-002     0.0000000000000000     
  -1.4400000000000000E-002     0.0000000000000000     
  -1.4100000000000000E-002     3.0102794019826402E-034
  -1.3800000000000000E-002     9.6504080117762202E-031
  -1.3500000000000000E-002     1.2405392643165637E-028
  -1.3200000000000000E-002    -4.9253324100610960E-027
  -1.2899999999999998E-002    -1.2783331964330288E-025
  -1.2600000000000000E-002     1.9991293338588251E-024
  -1.2299999999999998E-002     6.6227342127937283E-024
  -1.2000000000000000E-002    -1.3682431418308221E-022
  -1.1699999999999999E-002     1.3225795812333055E-022
  -1.1399999999999999E-002     2.4049300899247192E-021
  -1.1099999999999999E-002    -3.8888369769339068E-021
  -1.0799999999999999E-002    -2.1704650586720316E-020
  -1.0499999999999999E-002     2.4446285797064774E-020
  -1.0199999999999999E-002     1.8326523805705885E-019
  -9.8999999999999991E-003    -1.2923748398376036E-019
  -9.5999999999999992E-003    -9.5983463680996760E-019
  -9.2999999999999992E-003    -3.3378301604860275E-020
  -8.9999999999999993E-003     3.3807407234488869E-018
  -8.6999999999999994E-003     5.1215445973134182E-018
  -8.3999999999999995E-003    -5.3895023121244585E-018
  -8.0999999999999996E-003    -4.1788939553052344E-017
  -7.7999999999999988E-003    -1.8222724374455421E-017
  -7.4999999999999997E-003     2.0835798186550031E-016
  -7.1999999999999998E-003     9.1896973492893396E-017
  -6.8999999999999981E-003    -4.8831227063061760E-016
  -6.5999999999999982E-003    -2.4945533225200931E-016
  -6.3000000000000000E-003    -1.7095609064407400E-016
  -6.0000000000000001E-003     3.0096727036236517E-016
  -5.6999999999999985E-003     7.1135749675206410E-015
  -5.3999999999999986E-003    -2.7940626903615561E-015
  -5.1000000000000004E-003    -2.6694670237324691E-014
  -4.7999999999999987E-003     1.5883106123187017E-014
  -4.5000000000000005E-003     4.2255275342108212E-014
  -4.1999999999999989E-003    -6.7451435875522797E-014
  -3.8999999999999990E-003     1.0946666208037914E-013
  -3.5999999999999990E-003     9.8136654510215526E-014
  -3.2999999999999991E-003    -8.7907079619059525E-013
  -2.9999999999999992E-003     8.0876939260315917E-013
  -2.6999999999999993E-003     1.2746191905763093E-012
  -2.3999999999999994E-003    -3.2227354465619307E-012
  -2.0999999999999977E-003     3.4505681732049931E-012
  -1.7999999999999995E-003     5.3229100814566888E-013
  -1.4999999999999979E-003    -1.2392895737400877E-011
  -1.1999999999999997E-003     1.7840378480071806E-011
  -8.9999999999999976E-004    -2.0149572114991354E-013
  -5.9999999999999810E-004    -2.5136174391926502E-011
  -2.9999999999999992E-004     5.3109634745585055E-011
   0.0000000000000000         -6.8862429647431611E-011
   3.0000000000000165E-004    -2.7281144357460541E-011
   5.9999999999999984E-004     2.3528629045088678E-010
   9.0000000000000149E-004    -3.2644137393234018E-010
   1.2000000000000031E-003     1.7172235855511531E-011
   1.5000000000000013E-003     8.3079815249575972E-010
   1.8000000000000030E-003    -1.3699146261814121E-009
   2.1000000000000012E-003    -2.1798375604564768E-010
   2.3999999999999994E-003     3.2251108450509491E-009
   2.7000000000000010E-003    -3.0421332120056377E-009
   2.9999999999999992E-003    -2.6048865287009448E-009
   3.3000000000000008E-003     7.9760056337363494E-009
   3.6000000000000025E-003    -3.5138500997788924E-009
   3.9000000000000007E-003    -9.7785823882645673E-009
   4.2000000000000023E-003     1.3027441347901458E-008
   4.5000000000000005E-003     4.1217491641987181E-009
   4.7999999999999987E-003    -1.7930764428797374E-008
   5.1000000000000004E-003     6.1604157330918952E-009
   5.4000000000000020E-003     1.2782138014699740E-008
   5.7000000000000037E-003    -1.1885868289596146E-008
   5.9999999999999984E-003    -3.8819072400997356E-009
   6.3000000000000000E-003     8.3868307854118029E-009
   6.6000000000000017E-003     4.4705275037415504E-009
   6.9000000000000034E-003    -4.1764325331428154E-009
   7.2000000000000015E-003    -1.5888252491436106E-008
   7.5000000000000032E-003     1.2445513064562874E-008
   7.8000000000000014E-003     1.8309039617747658E-008
   8.0999999999999996E-003    -3.1446653281363979E-008
   8.4000000000000012E-003     9.7336023685556938E-009
   8.7000000000000029E-003     3.9119022687827965E-008
   9.0000000000000011E-003    -6.1345907909071684E-008
   9.2999999999999992E-003    -1.1130484089960646E-008
   9.6000000000000009E-003     9.5169163216723973E-008
   9.8999999999999991E-003    -5.4792309356344049E-008
   1.0200000000000001E-002    -7.1078318342188140E-008
   1.0500000000000002E-002     1.3688094213648583E-007
   1.0800000000000004E-002     1.1594632809419636E-008
   1.1099999999999999E-002    -2.1789323056964349E-007
   1.1400000000000000E-002    -6.0959521874792699E-008
   1.1700000000000002E-002     3.0398211947613163E-007
   1.2000000000000004E-002     1.0762338433778496E-006
   1.2300000000000002E-002     2.4885550828912528E-006
   1.2600000000000000E-002     4.0528016143071000E-006
   1.2900000000000002E-002     6.2114950196701102E-006
   1.3200000000000000E-002     9.3244434538064525E-006
   1.3500000000000002E-002     1.2291869097680319E-005
   1.3800000000000003E-002     1.9781575247179717E-005
   1.4100000000000001E-002     4.2401552491355687E-005
   1.4400000000000000E-002     7.6228338002692908E-005
   1.4700000000000001E-002     9.9908458651043475E-005
   1.4999999999999999E-002     1.0764106264105067E-004
   1.5300000000000001E-002     1.1828288552351296E-004
   1.5600000000000003E-002     1.4476875367108732E-004
   1.5899999999999997E-002     1.8215419549960643E-004
   1.6199999999999999E-002     2.1614880824927241E-004
   1.6500000000000001E-002     2.2776877449359745E-004
   1.6800000000000002E-002     2.0077974477317184E-004
   1.7100000000000004E-002     1.1085077130701393E-004
   1.7400000000000006E-002    -9.8008822533302009E-005
   1.7700000000000000E-002    -5.2232434973120689E-004
   1.8000000000000002E-002    -1.3182220282033086E-003
   1.8300000000000004E-002    -2.6953280903398991E-003
   1.8600000000000005E-002    -4.8825223930180073E-003
   1.8900000000000000E-002    -8.1867212429642677E-003
   1.9200000000000002E-002    -1.3067161664366722E-002
   1.9500000000000003E-002    -2.0093394443392754E-002
   1.9799999999999998E-002    -2.9915966093540192E-002
   2.0100000000000000E-002    -4.3274514377117157E-002
   2.0400000000000001E-002    -6.0974370688199997E-002
   2.0700000000000003E-002    -8.3871848881244659E-002
   2.0999999999999998E-002   -0.11276036500930786     
   2.1299999999999999E-002   -0.14818206429481506     
   2.1600000000000001E-002   -0.19037096202373505     
   2.1900000000000003E-002   -0.23911944031715393     
   2.2200000000000004E-002   -0.29347440600395203     
   2.2500000000000006E-002   -0.35154703259468079     
   2.2800000000000001E-002   -0.41033223271369934     
   2.3100000000000002E-002   -0.46552640199661255     
   2.3400000000000004E-002   -0.51154679059982300     
   2.3699999999999999E-002   -0.54150658845901489     
   2.4000000000000000E-002   -0.54737621545791626     
   2.4300000000000002E-002   -0.52045917510986328     
   2.4599999999999997E-002   -0.45197963714599609     
   2.4900000000000005E-002   -0.33373463153839111     
   2.5200000000000000E-002   -0.15923663973808289     
   2.5499999999999995E-002     7.5348570942878723E-002
   2.5800000000000003E-002    0.37009859085083008     
   2.6099999999999998E-002    0.72042614221572876     
   2.6400000000000007E-002     1.1164156198501587     
   2.6700000000000002E-002     1.5422091484069824     
   2.6999999999999996E-002     1.9763399362564087     
   2.7300000000000005E-002     2.3925883769989014     
   2.7600000000000000E-002     2.7611970901489258     
   2.7900000000000008E-002     3.0508012771606445     
   2.8200000000000003E-002     3.2310450077056885     
   2.8499999999999998E-002     3.2752530574798584     
   2.8800000000000006E-002     3.1631648540496826     
   2.9100000000000001E-002     2.8834905624389648     
   2.9400000000000003E-002     2.4360740184783936     
   2.9700000000000004E-002     1.8329982757568359     
   3.0000000000000006E-002     1.0989407300949097     
   3.0300000000000001E-002    0.26980164647102356     
   3.0600000000000002E-002   -0.60932552814483643     
   3.0900000000000004E-002    -1.4868015050888062     
   3.1199999999999999E-002    -2.3091442584991455     
   3.1500000000000007E-002    -3.0251660346984863     
   3.1800000000000002E-002    -3.5900082588195801     
   3.2099999999999997E-002    -3.9697096347808838     
   3.2400000000000005E-002    -4.1439990997314453     
   3.2700000000000000E-002    -4.1081771850585938     
   3.3000000000000002E-002    -3.8744535446166992     
   3.3300000000000003E-002    -3.4701845645904541     
   3.3599999999999998E-002    -2.9362158775329590     
   3.3900000000000000E-002    -2.3234672546386719     
   3.4200000000000001E-002    -1.6885951757431030     
   3.4500000000000003E-002    -1.0895330905914307     
   3.4799999999999998E-002   -0.58070707321166992     
   3.5099999999999999E-002   -0.20889607071876526     
   3.5400000000000001E-002    -9.7356326878070831E-003
   3.5699999999999996E-002    -4.5974627137184143E-003
   3.6000000000000004E-002   -0.19984483718872070     
   3.6299999999999999E-002   -0.58591955900192261     
   3.6600000000000008E-002    -1.1383146047592163     
   3.6900000000000002E-002    -1.8199003934860229     
   3.7199999999999997E-002    -2.5824081897735596     
   3.7500000000000006E-002    -3.3695523738861084     
   3.7800000000000000E-002    -4.1221966743469238     
   3.8100000000000009E-002    -4.7793407440185547     
   3.8400000000000004E-002    -5.2828073501586914     
   3.8699999999999998E-002    -5.5818510055541992     
   3.9000000000000007E-002    -5.6339278221130371     
   3.9300000000000002E-002    -5.4073162078857422     
   3.9600000000000003E-002    -4.8861212730407715     
   3.9900000000000005E-002    -4.0685262680053711     
   4.0200000000000000E-002    -2.9672513008117676     
   4.0500000000000001E-002    -1.6133824586868286     
   4.0800000000000003E-002    -5.0992973148822784E-002
   4.1100000000000005E-002     1.6626932621002197     
   4.1399999999999999E-002     3.4586088657379150     
   4.1700000000000008E-002     5.2616767883300781     
   4.2000000000000003E-002     6.9939603805541992     
   4.2299999999999997E-002     8.5769739151000977     
   4.2600000000000006E-002     9.9395465850830078     
   4.2900000000000001E-002     11.019686698913574     
   4.3200000000000002E-002     11.768024444580078     
   4.3500000000000004E-002     12.151019096374512     
   4.3799999999999999E-002     12.152798652648926     
   4.4100000000000000E-002     11.772887229919434     
   4.4400000000000002E-002     11.026362419128418     
   4.4700000000000004E-002     9.9427785873413086     
   4.4999999999999998E-002     8.5602550506591797     
   4.5300000000000000E-002     6.9228434562683105     
   4.5600000000000002E-002     5.0819439888000488     
   4.5899999999999996E-002     3.0892827510833740     
   4.6200000000000005E-002    0.99844712018966675     
   4.6500000000000000E-002    -1.1313998699188232     
   4.6799999999999994E-002    -3.2383227348327637     
   4.7100000000000003E-002    -5.2526965141296387     
   4.7399999999999998E-002    -7.0917482376098633     
   4.7700000000000006E-002    -8.6654472351074219     
   4.8000000000000001E-002    -9.8721599578857422     
   4.8300000000000010E-002    -10.601400375366211     
   4.8600000000000004E-002    -10.747951507568359     
   4.8899999999999999E-002    -10.214492797851562     
   4.9200000000000008E-002    -8.9273490905761719     
   4.9500000000000002E-002    -6.8531179428100586     
   4.9800000000000011E-002    -4.0065369606018066     
   5.0100000000000006E-002   -0.46511921286582947     
   5.0400000000000000E-002     3.6251502037048340     
   5.0700000000000009E-002     8.0540914535522461     
   5.1000000000000004E-002     12.549697875976562     
   5.1299999999999998E-002     16.796384811401367     
   5.1600000000000007E-002     20.458133697509766     
   5.1900000000000002E-002     23.201322555541992     
   5.2200000000000010E-002     24.729030609130859     
   5.2500000000000005E-002     24.806924819946289     
   5.2800000000000000E-002     23.287298202514648     
   5.3099999999999994E-002     20.132242202758789     
   5.3400000000000003E-002     15.418672561645508     
   5.3699999999999998E-002     9.3361721038818359     
   5.4000000000000006E-002     2.1832864284515381     
   5.4300000000000001E-002    -5.6616363525390625     
   5.4599999999999996E-002    -13.765447616577148     
   5.4900000000000004E-002    -21.669961929321289     
   5.5199999999999999E-002    -28.931314468383789     
   5.5499999999999994E-002    -35.149398803710938     
   5.5800000000000002E-002    -39.994621276855469     
   5.6099999999999997E-002    -43.231395721435547     
   5.6400000000000006E-002    -44.726768493652344     
   5.6700000000000000E-002    -44.454650878906250     
   5.6999999999999995E-002    -42.491382598876953     
   5.7300000000000004E-002    -38.999797821044922     
   5.7599999999999998E-002    -34.215702056884766     
   5.7900000000000007E-002    -28.420295715332031     
   5.8200000000000002E-002    -21.922416687011719     
   5.8499999999999996E-002    -15.036085128784180     
   5.8800000000000005E-002    -8.0598497390747070     
   5.9100000000000000E-002    -1.2611747980117798     
   5.9400000000000008E-002     5.1283469200134277     
   5.9700000000000003E-002     10.930260658264160     
   6.0000000000000012E-002     16.013252258300781     
   6.0300000000000006E-002     20.291666030883789     
   6.0600000000000001E-002     23.730926513671875     
   6.0900000000000010E-002     26.330865859985352     
   6.1200000000000004E-002     28.123523712158203     
   6.1500000000000013E-002     29.169273376464844     
   6.1800000000000008E-002     29.544855117797852     
   6.2100000000000002E-002     29.333026885986328     
   6.2399999999999997E-002     28.626367568969727     
   6.2700000000000006E-002     27.512540817260742     
   6.3000000000000000E-002     26.069375991821289     
   6.3300000000000009E-002     24.369602203369141     
   6.3600000000000004E-002     22.470407485961914     
   6.3899999999999998E-002     20.411403656005859     
   6.4199999999999993E-002     18.225366592407227     
   6.4500000000000002E-002     15.930475234985352     
   6.4800000000000010E-002     13.533184051513672     
   6.5100000000000005E-002     11.041413307189941     
   6.5400000000000000E-002     8.4598817825317383     
   6.5700000000000008E-002     5.7977433204650879     
   6.5999999999999989E-002     3.0725777149200439     
   6.6299999999999998E-002    0.31511175632476807     
   6.6600000000000006E-002    -2.4356358051300049     
   6.6900000000000001E-002    -5.1270866394042969     
   6.7199999999999996E-002    -7.6954202651977539     
   6.7500000000000004E-002    -10.071416854858398     
   6.7800000000000013E-002    -12.186501502990723     
   6.8099999999999994E-002    -13.970890998840332     
   6.8400000000000002E-002    -15.366223335266113     
   6.8700000000000011E-002    -16.330009460449219     
   6.8999999999999992E-002    -16.831247329711914     
   6.9300000000000000E-002    -16.864095687866211     
   6.9600000000000009E-002    -16.446411132812500     
   6.9900000000000004E-002    -15.611632347106934     
   7.0199999999999999E-002    -14.418099403381348     
   7.0500000000000007E-002    -12.940693855285645     
   7.0800000000000016E-002    -11.263016700744629     
   7.1099999999999997E-002    -9.4796152114868164     
   7.1400000000000005E-002    -7.6841888427734375     
   7.1700000000000000E-002    -5.9634819030761719     
   7.1999999999999995E-002    -4.3964934349060059     
   7.2300000000000003E-002    -3.0450532436370850     
   7.2600000000000012E-002    -1.9484192132949829     
   7.2900000000000006E-002    -1.1269522905349731     
   7.3200000000000001E-002   -0.57766097784042358     
   7.3499999999999996E-002   -0.27440389990806580     
   7.3800000000000004E-002   -0.17317244410514832     
   7.4099999999999999E-002   -0.21643826365470886     
   7.4400000000000008E-002   -0.33597075939178467     
   7.4700000000000003E-002   -0.46202591061592102     
   7.5000000000000011E-002   -0.52997022867202759     
   7.5299999999999992E-002   -0.48297089338302612     
   7.5600000000000001E-002   -0.27794799208641052     
   7.5900000000000009E-002    0.10873253643512726     
   7.6200000000000004E-002    0.68250292539596558     
   7.6499999999999999E-002     1.4277716875076294     
   7.6800000000000007E-002     2.3123028278350830     
   7.7099999999999988E-002     3.2886781692504883     
   7.7399999999999997E-002     4.2983584403991699     
   7.7700000000000005E-002     5.2767338752746582     
   7.8000000000000014E-002     6.1589899063110352     
   7.8299999999999995E-002     6.8844432830810547     
   7.8600000000000003E-002     7.4008393287658691     
   7.8900000000000012E-002     7.6704134941101074     
   7.9199999999999993E-002     7.6696872711181641     
   7.9500000000000001E-002     7.3924632072448730     
   7.9800000000000010E-002     6.8514156341552734     
   8.0100000000000018E-002     6.0754752159118652     
   8.0399999999999999E-002     5.1084184646606445     
   8.0700000000000008E-002     4.0069513320922852     
   8.1000000000000003E-002     2.8342883586883545     
   8.1299999999999997E-002     1.6559251546859741     
   8.1600000000000006E-002    0.53943800926208496     
   8.1900000000000014E-002   -0.45597144961357117     
   8.2199999999999995E-002    -1.2840570211410522     
   8.2500000000000004E-002    -1.9065527915954590     
   8.2799999999999999E-002    -2.3047976493835449     
   8.3100000000000007E-002    -2.4797616004943848     
   8.3400000000000002E-002    -2.4413597583770752     
   8.3700000000000011E-002    -2.2194623947143555     
   8.4000000000000005E-002    -1.8580772876739502     
   8.4300000000000000E-002    -1.4011811017990112     
   8.4599999999999995E-002   -0.90301513671875000     
   8.4900000000000003E-002   -0.41666334867477417     
   8.5199999999999998E-002     1.5872534364461899E-002
   8.5500000000000007E-002    0.35330569744110107     
   8.5800000000000001E-002    0.56674152612686157     
   8.6100000000000010E-002    0.64475917816162109     
   8.6399999999999991E-002    0.58102655410766602     
   8.6699999999999999E-002    0.38276106119155884     
   8.7000000000000008E-002     7.0688545703887939E-002
   8.7300000000000003E-002   -0.33333480358123779     
   8.7599999999999997E-002   -0.80005502700805664     
   8.7900000000000006E-002    -1.2942399978637695     
   8.8200000000000014E-002    -1.7864100933074951     
   8.8499999999999995E-002    -2.2468528747558594     
   8.8800000000000004E-002    -2.6449141502380371     
   8.9100000000000013E-002    -2.9594032764434814     
   8.9399999999999993E-002    -3.1725280284881592     
   8.9700000000000002E-002    -3.2673661708831787     
   9.0000000000000011E-002    -3.2358176708221436     
   9.0299999999999991E-002    -3.0763559341430664     
   9.0600000000000000E-002    -2.7877957820892334     
   9.0900000000000009E-002    -2.3799273967742920     
   9.1200000000000017E-002    -1.8680740594863892     
   9.1499999999999998E-002    -1.2699609994888306     
   9.1800000000000007E-002   -0.61490517854690552     
   9.2100000000000001E-002     6.5366178750991821E-002
   9.2399999999999996E-002    0.73716884851455688     
   9.2700000000000005E-002     1.3603724241256714     
   9.3000000000000013E-002     1.8990784883499146     
   9.3300000000000008E-002     2.3221044540405273     
   9.3600000000000003E-002     2.6007831096649170     
   9.3899999999999997E-002     2.7194838523864746     
   9.4200000000000006E-002     2.6717891693115234     
   9.4500000000000001E-002     2.4636332988739014     
   9.4800000000000009E-002     2.1163387298583984     
   9.5100000000000004E-002     1.6568136215209961     
   9.5399999999999999E-002     1.1232373714447021     
   9.5699999999999993E-002    0.56174325942993164     
   9.6000000000000002E-002     1.3471174985170364E-002
   9.6300000000000011E-002   -0.47865033149719238     
   9.6600000000000005E-002   -0.87668126821517944     
   9.6900000000000000E-002    -1.1590591669082642     
   9.7200000000000009E-002    -1.3090965747833252     
   9.7499999999999989E-002    -1.3231352567672729     
   9.7799999999999998E-002    -1.2141305208206177     
   9.8100000000000007E-002   -0.99905222654342651     
   9.8400000000000015E-002   -0.70539414882659912     
   9.8699999999999996E-002   -0.36667487025260925     
   9.9000000000000005E-002    -1.3044925406575203E-002
   9.9300000000000013E-002    0.32214638590812683     
   9.9599999999999994E-002    0.61237627267837524     
   9.9900000000000003E-002    0.83995306491851807     
  0.10020000000000001         0.98909175395965576     
  0.10049999999999999          1.0567554235458374     
  0.10080000000000000          1.0448690652847290     
  0.10110000000000001         0.96117246150970459     
  0.10140000000000000         0.82302057743072510     
  0.10170000000000000         0.64434665441513062     
  0.10200000000000001         0.44400998950004578     
  0.10230000000000002         0.24474240839481354     
  0.10260000000000000          5.8648213744163513E-002
  0.10290000000000001         -9.7263135015964508E-002
  0.10320000000000000        -0.20830246806144714     
  0.10350000000000001        -0.27528816461563110     
  0.10380000000000000        -0.29154008626937866     
  0.10410000000000001        -0.25692051649093628     
  0.10440000000000001        -0.18523368239402771     
  0.10470000000000000         -8.1623204052448273E-002
  0.10500000000000000          4.2058639228343964E-002
  0.10530000000000000         0.16465273499488831     
  0.10560000000000000         0.27752628922462463     
  0.10590000000000001         0.36667680740356445     
  0.10620000000000000         0.41539296507835388     
  0.10650000000000001         0.42033207416534424     
  0.10679999999999999         0.37691733241081238     
  0.10710000000000000         0.28164881467819214     
  0.10740000000000001         0.14282435178756714     
  0.10770000000000000         -3.1040400266647339E-002
  0.10800000000000000        -0.23133765161037445     
  0.10830000000000001        -0.44188624620437622     
  0.10859999999999999        -0.64648669958114624     
  0.10890000000000000        -0.83347070217132568     
  0.10920000000000001        -0.98878633975982666     
  0.10950000000000001         -1.0979380607604980     
  0.10979999999999999         -1.1574318408966064     
  0.11009999999999999         -1.1626929044723511     
  0.11040000000000001         -1.1096014976501465     
  0.11070000000000001         -1.0042254924774170     
  0.11100000000000000        -0.85345238447189331     
  0.11130000000000000        -0.66319954395294189     
  0.11160000000000002        -0.44830995798110962     
  0.11190000000000001        -0.22082877159118652     
  0.11220000000000001          9.5772687345743179E-003
  0.11250000000000000         0.22663421928882599     
  0.11280000000000000         0.41956618428230286     
  0.11309999999999999         0.58052206039428711     
  0.11340000000000001         0.69982928037643433     
  0.11369999999999998         0.77406257390975952     
  0.11400000000000000         0.80257064104080200     
  0.11430000000000000         0.78640830516815186     
  0.11460000000000002         0.72953832149505615     
  0.11489999999999999         0.63946968317031860     
  0.11520000000000001         0.52726113796234131     
  0.11550000000000001         0.40015178918838501     
  0.11580000000000000         0.27020227909088135     
  0.11609999999999999         0.15046320855617523     
  0.11640000000000002          4.4739466160535812E-002
  0.11670000000000001         -3.7628635764122009E-002
  0.11700000000000001         -8.8211990892887115E-002
  0.11730000000000000        -0.11188123375177383     
  0.11760000000000000        -0.10656227916479111     
  0.11789999999999999         -7.2446212172508240E-002
  0.11820000000000001         -2.1239582449197769E-002
  0.11850000000000001          4.4342033565044403E-002
  0.11880000000000000         0.11757211387157440     
  0.11910000000000000         0.18533946573734283     
  0.11940000000000002         0.24541397392749786     
  0.11970000000000001         0.29136770963668823     
  0.12000000000000001         0.31517565250396729     
  0.12030000000000000         0.31723490357398987     
  0.12060000000000000         0.29569637775421143     
  0.12089999999999999         0.24979943037033081     
  0.12119999999999999         0.18375597894191742     
  0.12150000000000001         0.10013508051633835     
  0.12180000000000001          5.0245025195181370E-003
  0.12210000000000000         -9.7056902945041656E-002
  0.12239999999999999        -0.19946390390396118     
  0.12270000000000002        -0.29387009143829346     
  0.12300000000000001        -0.37751108407974243     
  0.12330000000000001        -0.44261035323143005     
  0.12360000000000000        -0.48323667049407959     
  0.12390000000000000        -0.50230711698532104     
  0.12419999999999999        -0.49429515004158020     
  0.12450000000000001        -0.45863363146781921     
  0.12480000000000001        -0.40511092543601990     
  0.12509999999999999        -0.33175608515739441     
  0.12540000000000001        -0.24434107542037964     
  0.12570000000000003        -0.15536059439182281     
  0.12600000000000000         -6.4894981682300568E-002
  0.12630000000000002          2.0197812467813492E-002
  0.12659999999999999          8.9383378624916077E-002
  0.12690000000000001         0.14576956629753113     
  0.12719999999999998         0.18458889424800873     
  0.12750000000000000         0.20142306387424469     
  0.12780000000000002         0.20237696170806885     
  0.12809999999999999         0.18759320676326752     
  0.12840000000000001         0.15776187181472778     
  0.12869999999999998         0.11979060620069504     
  0.12900000000000000          7.5739249587059021E-002
  0.12930000000000003          2.9117627069354057E-002
  0.12959999999999999         -1.4990709722042084E-002
  0.12990000000000002         -5.3011491894721985E-002
  0.13019999999999998         -8.2863703370094299E-002
  0.13050000000000000        -0.10236698389053345     
  0.13080000000000003        -0.10778216272592545     
  0.13109999999999999        -0.10002588480710983     
  0.13140000000000002         -8.0189451575279236E-002
  0.13169999999999998         -4.6465829014778137E-002
  0.13200000000000001         -3.5487716086208820E-003
  0.13229999999999997          4.3912284076213837E-002
  0.13260000000000000          9.6261903643608093E-002
  0.13290000000000002         0.14645637571811676     
  0.13319999999999999         0.18843321502208710     
  0.13350000000000001         0.22304406762123108     
  0.13380000000000003         0.24418866634368896     
  0.13410000000000000         0.24875605106353760     
  0.13440000000000002         0.24170784652233124     
  0.13469999999999999         0.21862182021141052     
  0.13500000000000001         0.18129572272300720     
  0.13529999999999998         0.13755643367767334     
  0.13560000000000000          8.5905797779560089E-002
  0.13590000000000002          3.0376443639397621E-002
  0.13619999999999999         -2.1640628576278687E-002
  0.13650000000000001         -7.1989893913269043E-002
  0.13680000000000003        -0.11570847779512405     
  0.13710000000000000        -0.14896762371063232     
  0.13740000000000002        -0.17420536279678345     
  0.13769999999999999        -0.18733571469783783     
  0.13800000000000001        -0.18808080255985260     
  0.13829999999999998        -0.18031407892704010     
  0.13860000000000000        -0.16073992848396301     
  0.13890000000000002        -0.13228468596935272     
  0.13919999999999999         -9.8847441375255585E-002
  0.13950000000000001         -5.8864794671535492E-002
  0.13979999999999998         -1.8862742930650711E-002
  0.14010000000000000          1.8223911523818970E-002
  0.14040000000000002          5.3251300007104874E-002
  0.14069999999999999          7.9119428992271423E-002
  0.14100000000000001          9.5187127590179443E-002
  0.14130000000000004         0.10308586061000824     
  0.14160000000000000          9.7251623868942261E-002
  0.14189999999999997          8.1537477672100067E-002
  0.14219999999999999          5.9461060911417007E-002
  0.14250000000000002          2.8643609955906868E-002
  0.14279999999999998         -4.5953346416354179E-003
  0.14310000000000000         -3.7054754793643951E-002
  0.14339999999999997         -6.9501712918281555E-002
  0.14369999999999999         -9.5554307103157043E-002
  0.14400000000000002        -0.11403370648622513     
  0.14429999999999998        -0.12610951066017151     
  0.14460000000000001        -0.12819531559944153     
  0.14490000000000003        -0.12215246260166168     
  0.14520000000000000        -0.10890453308820724     
  0.14550000000000002         -8.7245963513851166E-002
  0.14579999999999999         -6.0747962445020676E-002
  0.14610000000000001         -3.0028665438294411E-002
  0.14640000000000003          2.9737553559243679E-003
  0.14670000000000000          3.5709772258996964E-002
  0.14699999999999996          6.7925356328487396E-002
  0.14729999999999999          9.5543548464775085E-002
  0.14760000000000001         0.11789789050817490     
  0.14789999999999998         0.13442909717559814     
  0.14820000000000000         0.14005336165428162     