  -1.4999999999999999E-002     0.0000000000000000     
  -1.4700000000000000E-002     0.0000000000000000     
  -1.4400000000000000E-002     0.0000000000000000     
  -1.4100000000000000E-002     0.0000000000000000     
  -1.3800000000000000E-002     0.0000000000000000     
  -1.3500000000000000E-002     0.0000000000000000     
  -1.3200000000000000E-002     0.0000000000000000     
  -1.2899999999999998E-002     0.0000000000000000     
  -1.2600000000000000E-002     0.0000000000000000     
  -1.2299999999999998E-002     0.0000000000000000     
  -1.2000000000000000E-002     0.0000000000000000     
  -1.1699999999999999E-002     0.0000000000000000     
  -1.1399999999999999E-002    -1.6501078000938117E-035
  -1.1099999999999999E-002     2.9360205310230674E-034
  -1.0799999999999999E-002    -1.2502264041758144E-033
  -1.0499999999999999E-002    -3.5609584650665571E-033
  -1.0199999999999999E-002     2.2477766242225319E-032
  -9.8999999999999991E-003     3.4677350774222294E-032
  -9.5999999999999992E-003    -3.2042915707511116E-031
  -9.2999999999999992E-003    -2.9662523190175072E-031
  -8.9999999999999993E-003     2.8728922066864995E-030
  -8.6999999999999994E-003     3.8229886190436995E-030
  -8.3999999999999995E-003    -1.6293499737199692E-029
  -8.0999999999999996E-003    -5.3772331177687274E-029
  -7.7999999999999988E-003     4.9540316792015067E-029
  -7.4999999999999997E-003     6.0085407961060894E-028
  -7.1999999999999998E-003    -2.4412038343232911E-028
  -6.8999999999999981E-003    -3.5915550493509817E-027
  -6.5999999999999982E-003     9.2047645391150780E-028
  -6.3000000000000000E-003     7.1221251418269527E-027
  -6.0000000000000001E-003     2.3983446900826831E-026
  -5.6999999999999985E-003     1.1305905189820965E-026
  -5.3999999999999986E-003    -3.0433233134630506E-025
  -5.1000000000000004E-003     1.4107985963782246E-025
  -4.7999999999999987E-003     1.1242279613510364E-024
  -4.5000000000000005E-003    -1.6818798489237851E-024
  -4.1999999999999989E-003     3.1206515023049534E-024
  -3.8999999999999990E-003    -4.6680859843671478E-024
  -3.5999999999999990E-003    -3.0012557082488070E-023
  -3.2999999999999991E-003     1.1930484943782705E-022
  -2.9999999999999992E-003    -1.5299250437390446E-022
  -2.6999999999999993E-003     1.1791343764053651E-023
  -2.3999999999999994E-003     5.4737838949870900E-022
  -2.0999999999999977E-003    -2.2300435904744087E-021
  -1.7999999999999995E-003     4.3324723571394219E-021
  -1.4999999999999979E-003    -3.0203546870964809E-021
  -1.1999999999999997E-003    -5.1375472948361801E-021
  -8.9999999999999976E-004     2.5577389045658550E-020
  -5.9999999999999810E-004    -6.9265862060248695E-020
  -2.9999999999999992E-004     1.1764874822537779E-019
   0.0000000000000000         -8.1031995748281203E-020
   3.0000000000000165E-004    -2.2706149173611237E-019
   5.9999999999999984E-004     1.1296134575364765E-018
   9.0000000000000149E-004    -2.5499579461233439E-018
   1.2000000000000031E-003     2.3457274664743077E-018
   1.5000000000000013E-003     4.3242512610628502E-018
   1.8000000000000030E-003    -2.0344890977545940E-017
   2.1000000000000012E-003     3.4092242328928135E-017
   2.3999999999999994E-003    -6.6585119362956416E-018
   2.7000000000000010E-003    -1.0378764847622887E-016
   2.9999999999999992E-003     2.4245494905008734E-016
   3.3000000000000008E-003    -1.6765357535717849E-016
   3.6000000000000025E-003    -3.9253904937796191E-016
   3.9000000000000007E-003     1.2153659655216617E-015
   4.2000000000000023E-003    -1.1372268585000973E-015
   4.5000000000000005E-003    -1.1880435413794349E-015
   4.7999999999999987E-003     4.8566065516506170E-015
   5.1000000000000004E-003    -5.1547007391954548E-015
   5.4000000000000020E-003    -2.7747655857572086E-015
   5.7000000000000037E-003     1.5658877867323964E-014
   5.9999999999999984E-003    -1.8706107694191516E-014
   6.3000000000000000E-003    -2.5501646353973638E-015
   6.6000000000000017E-003     4.0351653496448897E-014
   6.9000000000000034E-003    -5.8461549945661162E-014
   7.2000000000000015E-003     1.9644222094264072E-014
   7.5000000000000032E-003     7.4231345083362182E-014
   7.8000000000000014E-003    -1.6434251149614193E-013
   8.0999999999999996E-003     1.4960271519856572E-013
   8.4000000000000012E-003     5.5788324128521957E-014
   8.7000000000000029E-003    -4.0774984300454009E-013
   9.0000000000000011E-003     6.2280768649974894E-013
   9.2999999999999992E-003    -2.6156794829049201E-013
   9.6000000000000009E-003    -8.1954506115505810E-013
   9.8999999999999991E-003     1.9015041277659073E-012
   1.0200000000000001E-002    -1.5510271018925881E-012
   1.0500000000000002E-002    -1.0491552288396933E-012
   1.0800000000000004E-002     4.5263306991394359E-012
   1.1099999999999999E-002    -5.3229482453731602E-012
   1.1400000000000000E-002     4.2005824816768178E-013
   1.1700000000000002E-002     8.5382152736901418E-012
   1.2000000000000004E-002    -1.3968851249324121E-011
   1.2300000000000002E-002     7.3489409002647221E-012
   1.2600000000000000E-002     1.1686648176967296E-011
   1.2900000000000002E-002    -2.9776462545649807E-011
   1.3200000000000000E-002     2.6443404757547917E-011
   1.3500000000000002E-002     6.8264170358101062E-012
   1.3800000000000003E-002    -5.0793765027368210E-011
   1.4100000000000001E-002     6.5495255052727686E-011
   1.4400000000000000E-002    -2.1903496377762011E-011
   1.4700000000000001E-002    -6.3285258977696657E-011
   1.4999999999999999E-002     1.2526576997906602E-010
   1.5300000000000001E-002    -9.8201585752022424E-011
   1.5600000000000003E-002    -2.4868268902467072E-011
   1.5899999999999997E-002     1.7730862611475828E-010
   1.6199999999999999E-002    -2.5701593631133335E-010
   1.6500000000000001E-002     1.6489458409818525E-010
   1.6800000000000002E-002     1.6242107658825944E-010
   1.7100000000000004E-002    -5.7809268483310916E-010
   1.7400000000000006E-002     5.1862653061007791E-010
   1.7700000000000000E-002     3.1523408883238346E-010
   1.8000000000000002E-002    -4.9447157479676207E-010
   1.8300000000000004E-002    -1.3579097846161403E-009
   1.8600000000000005E-002     6.4681621170237236E-011
   1.8900000000000000E-002     1.2163690499278346E-008
   1.9200000000000002E-002    -1.5818491405639179E-008
   1.9500000000000003E-002    -4.3357101020546907E-008
   1.9799999999999998E-002     1.1756159068454508E-007
   2.0100000000000000E-002     7.3564670799441956E-008
   2.0400000000000001E-002    -6.0036808235963690E-007
   2.0700000000000003E-002     1.1257549914489573E-007
   2.0999999999999998E-002     5.3734538596472703E-006
   2.1299999999999999E-002     1.4672361430712044E-005
   2.1600000000000001E-002     2.4616821974632330E-005
   2.1900000000000003E-002     3.3912536309799179E-005
   2.2200000000000004E-002     4.4523971155285835E-005
   2.2500000000000006E-002     6.1075072153471410E-005
   2.2800000000000001E-002     9.0038782218471169E-005
   2.3100000000000002E-002     1.3484263035934418E-004
   2.3400000000000004E-002     1.9405968487262726E-004
   2.3699999999999999E-002     2.7399737155064940E-004
   2.4000000000000000E-002     3.9253808790817857E-004
   2.4300000000000002E-002     5.5323186097666621E-004
   2.4599999999999997E-002     7.4528681579977274E-004
   2.4900000000000005E-002     9.7547465702518821E-004
   2.5200000000000000E-002     1.2453483650460839E-003
   2.5499999999999995E-002     1.5314911724999547E-003
   2.5800000000000003E-002     1.8275927286595106E-003
   2.6099999999999998E-002     2.1051662042737007E-003
   2.6400000000000007E-002     2.2399378940463066E-003
   2.6700000000000002E-002     2.0666525233536959E-003
   2.6999999999999996E-002     1.4075742801651359E-003
   2.7300000000000005E-002    -4.7373105189763010E-006
   2.7600000000000000E-002    -2.5377485435456038E-003
   2.7900000000000008E-002    -6.6265533678233624E-003
   2.8200000000000003E-002    -1.2805701233446598E-002
   2.8499999999999998E-002    -2.1728329360485077E-002
   2.8800000000000006E-002    -3.4110832959413528E-002
   2.9100000000000001E-002    -5.0657462328672409E-002
   2.9400000000000003E-002    -7.2025537490844727E-002
   2.9700000000000004E-002    -9.8767988383769989E-002
   3.0000000000000006E-002   -0.13115534186363220     
   3.0300000000000001E-002   -0.16903585195541382     
   3.0600000000000002E-002   -0.21177954971790314     
   3.0900000000000004E-002   -0.25805112719535828     
   3.1199999999999999E-002   -0.30563452839851379     
   3.1500000000000007E-002   -0.35142552852630615     
   3.1800000000000002E-002   -0.39135727286338806     
   3.2099999999999997E-002   -0.42039921879768372     
   3.2400000000000005E-002   -0.43279129266738892     
   3.2700000000000000E-002   -0.42228576540946960     
   3.3000000000000002E-002   -0.38249874114990234     
   3.3300000000000003E-002   -0.30744960904121399     
   3.3599999999999998E-002   -0.19223099946975708     
   3.3900000000000000E-002    -3.3625543117523193E-002
   3.4200000000000001E-002    0.16915705800056458     
   3.4500000000000003E-002    0.41387960314750671     
   3.4799999999999998E-002    0.69475573301315308     
   3.5099999999999999E-002     1.0021570920944214     
   3.5400000000000001E-002     1.3226892948150635     
   3.5699999999999996E-002     1.6394046545028687     
   3.6000000000000004E-002     1.9325562715530396     
   3.6299999999999999E-002     2.1806535720825195     
   3.6600000000000008E-002     2.3617062568664551     
   3.6900000000000002E-002     2.4549491405487061     
   3.7199999999999997E-002     2.4425795078277588     
   3.7500000000000006E-002     2.3114001750946045     
   3.7800000000000000E-002     2.0543570518493652     
   3.8100000000000009E-002     1.6718393564224243     
   3.8400000000000004E-002     1.1722897291183472     
   3.8699999999999998E-002    0.57264339923858643     
   3.9000000000000007E-002   -0.10248247534036636     
   3.9300000000000002E-002   -0.82184994220733643     
   3.9600000000000003E-002    -1.5489330291748047     
   3.9900000000000005E-002    -2.2444522380828857     
   4.0200000000000000E-002    -2.8689625263214111     
   4.0500000000000001E-002    -3.3853824138641357     
   4.0800000000000003E-002    -3.7616863250732422     
   4.1100000000000005E-002    -3.9730756282806396     
   4.1399999999999999E-002    -4.0039067268371582     
   4.1700000000000008E-002    -3.8489985466003418     
   4.2000000000000003E-002    -3.5141270160675049     
   4.2299999999999997E-002    -3.0156066417694092     
   4.2600000000000006E-002    -2.3795919418334961     
   4.2900000000000001E-002    -1.6402974128723145     
   4.3200000000000002E-002   -0.83798897266387939     
   4.3500000000000004E-002    -1.6572013497352600E-002
   4.3799999999999999E-002    0.77924776077270508     
   4.4100000000000000E-002     1.5063718557357788     
   4.4400000000000002E-002     2.1258900165557861     
   4.4700000000000004E-002     2.6055214405059814     
   4.4999999999999998E-002     2.9210326671600342     
   4.5300000000000000E-002     3.0575919151306152     
   4.5600000000000002E-002     3.0105867385864258     
   4.5899999999999996E-002     2.7860121726989746     
   4.6200000000000005E-002     2.3997282981872559     
   4.6500000000000000E-002     1.8765649795532227     
   4.6799999999999994E-002     1.2491077184677124     
   4.7100000000000003E-002    0.55580097436904907     
   4.7399999999999998E-002   -0.16120769083499908     
   4.7700000000000006E-002   -0.85866415500640869     
   4.8000000000000001E-002    -1.4945130348205566     
   4.8300000000000010E-002    -2.0306053161621094     
   4.8600000000000004E-002    -2.4351239204406738     
   4.8899999999999999E-002    -2.6847822666168213     
   4.9200000000000008E-002    -2.7666938304901123     
   4.9500000000000002E-002    -2.6791999340057373     
   4.9800000000000011E-002    -2.4324812889099121     
   5.0100000000000006E-002    -2.0481650829315186     
   5.0400000000000000E-002    -1.5583698749542236     
   5.0700000000000009E-002    -1.0033679008483887     
   5.1000000000000004E-002   -0.42882543802261353     
   5.1299999999999998E-002    0.11737731099128723     
   5.1600000000000007E-002    0.58871769905090332     
   5.1900000000000002E-002    0.94394373893737793     
   5.2200000000000010E-002     1.1504771709442139     
   5.2500000000000005E-002     1.1871640682220459     
   5.2800000000000000E-002     1.0463236570358276     
   5.3099999999999994E-002    0.73482286930084229     
   5.3400000000000003E-002    0.27382722496986389     
   5.3699999999999998E-002   -0.30249813199043274     
   5.4000000000000006E-002   -0.94955706596374512     
   5.4300000000000001E-002    -1.6152360439300537     
   5.4599999999999996E-002    -2.2439217567443848     
   5.4900000000000004E-002    -2.7806131839752197     
   5.5199999999999999E-002    -3.1751234531402588     
   5.5499999999999994E-002    -3.3854458332061768     
   5.5800000000000002E-002    -3.3802909851074219     
   5.6099999999999997E-002    -3.1420307159423828     
   5.6400000000000006E-002    -2.6675226688385010     
   5.6700000000000000E-002    -1.9682047367095947     
   5.6999999999999995E-002    -1.0689665079116821     
   5.7300000000000004E-002    -6.7491680383682251E-003
   5.7599999999999998E-002     1.1715580224990845     
   5.7900000000000007E-002     2.4117889404296875     
   5.8200000000000002E-002     3.6560461521148682     
   5.8499999999999996E-002     4.8462619781494141     
   5.8800000000000005E-002     5.9270229339599609     
   5.9100000000000000E-002     6.8477430343627930     
   5.9400000000000008E-002     7.5665268898010254     
   5.9700000000000003E-002     8.0520334243774414     
   6.0000000000000012E-002     8.2849340438842773     
   6.0300000000000006E-002     8.2579030990600586     
   6.0600000000000001E-002     7.9762277603149414     
   6.0900000000000010E-002     7.4574627876281738     
   6.1200000000000004E-002     6.7296395301818848     
   6.1500000000000013E-002     5.8287916183471680     
   6.1800000000000008E-002     4.7966036796569824     
   6.2100000000000002E-002     3.6780829429626465     
   6.2399999999999997E-002     2.5190353393554688     
   6.2700000000000006E-002     1.3632034063339233     
   6.3000000000000000E-002    0.24969118833541870     
   6.3300000000000009E-002   -0.78752076625823975     
   6.3600000000000004E-002    -1.7208478450775146     
   6.3899999999999998E-002    -2.5296313762664795     
   6.4199999999999993E-002    -3.2002532482147217     
   6.4500000000000002E-002    -3.7250900268554688     
   6.4800000000000010E-002    -4.1025257110595703     
   6.5100000000000005E-002    -4.3359222412109375     
   6.5400000000000000E-002    -4.4328784942626953     
   6.5700000000000008E-002    -4.4050116539001465     
   6.5999999999999989E-002    -4.2673840522766113     
   6.6299999999999998E-002    -4.0383415222167969     
   6.6600000000000006E-002    -3.7391202449798584     
   6.6900000000000001E-002    -3.3929049968719482     
   6.7199999999999996E-002    -3.0242626667022705     
   6.7500000000000004E-002    -2.6586019992828369     
   6.7800000000000013E-002    -2.3205020427703857     
   6.8099999999999994E-002    -2.0312201976776123     
   6.8400000000000002E-002    -1.8074827194213867     
   6.8700000000000011E-002    -1.6607052087783813     
   6.8999999999999992E-002    -1.5951744318008423     
   6.9300000000000000E-002    -1.6062933206558228     
   6.9600000000000009E-002    -1.6804423332214355     
   6.9900000000000004E-002    -1.7966636419296265     
   7.0199999999999999E-002    -1.9277303218841553     
   7.0500000000000007E-002    -2.0415737628936768     
   7.0800000000000016E-002    -2.1042070388793945     
   7.1099999999999997E-002    -2.0838897228240967     
   7.1400000000000005E-002    -1.9553790092468262     
   7.1700000000000000E-002    -1.7027560472488403     
   7.1999999999999995E-002    -1.3222517967224121     
   7.2300000000000003E-002   -0.82596153020858765     
   7.2600000000000012E-002   -0.24338945746421814     
   7.2900000000000006E-002    0.37953248620033264     
   7.3200000000000001E-002    0.98313599824905396     
   7.3499999999999996E-002     1.4974471330642700     
   7.3800000000000004E-002     1.8479180335998535     
   7.4099999999999999E-002     1.9634375572204590     
   7.4400000000000008E-002     1.7864807844161987     
   7.4700000000000003E-002     1.2814071178436279     
   7.5000000000000011E-002    0.44251704216003418     
   7.5299999999999992E-002   -0.69886076450347900     
   7.5600000000000001E-002    -2.0704863071441650     
   7.5900000000000009E-002    -3.5593574047088623     
   7.6200000000000004E-002    -5.0180907249450684     
   7.6499999999999999E-002    -6.2744393348693848     
   7.6800000000000007E-002    -7.1455235481262207     
   7.7099999999999988E-002    -7.4563016891479492     
   7.7399999999999997E-002    -7.0602231025695801     
   7.7700000000000005E-002    -5.8584342002868652     
   7.8000000000000014E-002    -3.8174800872802734     
   7.8299999999999995E-002   -0.98206794261932373     
   7.8600000000000003E-002     2.5192856788635254     
   7.8900000000000012E-002     6.4765405654907227     
   7.9199999999999993E-002     10.609334945678711     
   7.9500000000000001E-002     14.587178230285645     
   7.9800000000000010E-002     18.054813385009766     
   8.0100000000000018E-002     20.663244247436523     
   8.0399999999999999E-002     22.103418350219727     
   8.0700000000000008E-002     22.137422561645508     
   8.1000000000000003E-002     20.623611450195312     
   8.1299999999999997E-002     17.534435272216797     
   8.1600000000000006E-002     12.966073036193848     
   8.1900000000000014E-002     7.1361904144287109     
   8.2199999999999995E-002    0.36814180016517639     
   8.2500000000000004E-002    -6.9297347068786621     
   8.2799999999999999E-002    -14.298051834106445     
   8.3100000000000007E-002    -21.259210586547852     
   8.3400000000000002E-002    -27.355825424194336     
   8.3700000000000011E-002    -32.186573028564453     
   8.4000000000000005E-002    -35.434242248535156     
   8.4300000000000000E-002    -36.887351989746094     
   8.4599999999999995E-002    -36.453971862792969     
   8.4900000000000003E-002    -34.164466857910156     
   8.5199999999999998E-002    -30.163005828857422     
   8.5500000000000007E-002    -24.692127227783203     
   8.5800000000000001E-002    -18.071121215820312     
   8.6100000000000010E-002    -10.670365333557129     
   8.6399999999999991E-002    -2.8833527565002441     
   8.6699999999999999E-002     4.9006509780883789     
   8.7000000000000008E-002     12.321669578552246     
   8.7300000000000003E-002     19.065937042236328     
   8.7599999999999997E-002     24.879640579223633     
   8.7900000000000006E-002     29.579286575317383     
   8.8200000000000014E-002     33.054039001464844     
   8.8499999999999995E-002     35.261466979980469     
   8.8800000000000004E-002     36.221214294433594     
   8.9100000000000013E-002     36.005447387695312     
   8.9399999999999993E-002     34.728599548339844     
   8.9700000000000002E-002     32.534152984619141     
   9.0000000000000011E-002     29.581317901611328     
   9.0299999999999991E-002     26.034751892089844     
   9.0600000000000000E-002     22.056520462036133     
   9.0900000000000009E-002     17.796499252319336     
   9.1200000000000017E-002     13.388076782226562     
   9.1499999999999998E-002     8.9451103210449219     
   9.1800000000000007E-002     4.5623636245727539     
   9.2100000000000001E-002    0.31569224596023560     
   9.2399999999999996E-002    -3.7355153560638428     
   9.2700000000000005E-002    -7.5416617393493652     
   9.3000000000000013E-002    -11.061387062072754     
   9.3300000000000008E-002    -14.257392883300781     
   9.3600000000000003E-002    -17.094003677368164     
   9.3899999999999997E-002    -19.533338546752930     
   9.4200000000000006E-002    -21.537397384643555     
   9.4500000000000001E-002    -23.069995880126953     
   9.4800000000000009E-002    -24.099502563476562     
   9.5100000000000004E-002    -24.601461410522461     
   9.5399999999999999E-002    -24.562187194824219     
   9.5699999999999993E-002    -23.984468460083008     
   9.6000000000000002E-002    -22.891006469726562     
   9.6300000000000011E-002    -21.322128295898438     
   9.6600000000000005E-002    -19.336156845092773     
   9.6900000000000000E-002    -17.009359359741211     
   9.7200000000000009E-002    -14.432735443115234     
   9.7499999999999989E-002    -11.703225135803223     
   9.7799999999999998E-002    -8.9191446304321289     
   9.8100000000000007E-002    -6.1759629249572754     
   9.8400000000000015E-002    -3.5604619979858398     
   9.8699999999999996E-002    -1.1451727151870728     
   9.9000000000000005E-002     1.0173821449279785     
   9.9300000000000013E-002     2.8940503597259521     
   9.9599999999999994E-002     4.4691548347473145     
   9.9900000000000003E-002     5.7490506172180176     
  0.10020000000000001          6.7576990127563477     
  0.10049999999999999          7.5327453613281250     
  0.10080000000000000          8.1175661087036133     
  0.10110000000000001          8.5618820190429688     
  0.10140000000000000          8.9161119461059570     
  0.10170000000000000          9.2249336242675781     
  0.10200000000000001          9.5215587615966797     
  0.10230000000000002          9.8254919052124023     
  0.10260000000000000          10.145418167114258     
  0.10290000000000001          10.474380493164062     
  0.10320000000000000          10.791070938110352     
  0.10350000000000001          11.059762954711914     
  0.10380000000000000          11.239312171936035     
  0.10410000000000001          11.286583900451660     
  0.10440000000000001          11.158672332763672     
  0.10470000000000000          10.816179275512695     
  0.10500000000000000          10.231155395507812     
  0.10530000000000000          9.3914566040039062     
  0.10560000000000000          8.3019971847534180     
  0.10590000000000001          6.9812192916870117     
  0.10620000000000000          5.4636058807373047     
  0.10650000000000001          3.7997994422912598     
  0.10679999999999999          2.0539801120758057     
  0.10710000000000000         0.29355549812316895     
  0.10740000000000001         -1.4126514196395874     
  0.10770000000000000         -2.9965012073516846     
  0.10800000000000000         -4.3958148956298828     
  0.10830000000000001         -5.5587558746337891     
  0.10859999999999999         -6.4509468078613281     
  0.10890000000000000         -7.0535287857055664     
  0.10920000000000001         -7.3620362281799316     
  0.10950000000000001         -7.3884840011596680     
  0.10979999999999999         -7.1627192497253418     
  0.11009999999999999         -6.7289381027221680     
  0.11040000000000001         -6.1396245956420898     
  0.11070000000000001         -5.4520616531372070     
  0.11100000000000000         -4.7260437011718750     
  0.11130000000000000         -4.0218305587768555     
  0.11160000000000002         -3.3924603462219238     
  0.11190000000000001         -2.8787205219268799     
  0.11220000000000001         -2.5071294307708740     
  0.11250000000000000         -2.2914483547210693     
  0.11280000000000000         -2.2300362586975098     
  0.11309999999999999         -2.3049116134643555     
  0.11340000000000001         -2.4817306995391846     
  0.11369999999999998         -2.7167642116546631     
  0.11400000000000000         -2.9622528553009033     
  0.11430000000000000         -3.1681225299835205     
  0.11460000000000002         -3.2863340377807617     
  0.11489999999999999         -3.2749230861663818     
  0.11520000000000001         -3.1060328483581543     
  0.11550000000000001         -2.7679378986358643     
  0.11580000000000000         -2.2639007568359375     
  0.11609999999999999         -1.6100255250930786     
  0.11640000000000002        -0.83764487504959106     
  0.11670000000000001          9.5323659479618073E-003
  0.11700000000000001         0.88094604015350342     
  0.11730000000000000          1.7263677120208740     
  0.11760000000000000          2.4988355636596680     
  0.11789999999999999          3.1566147804260254     
  0.11820000000000001          3.6669464111328125     
  0.11850000000000001          4.0107183456420898     
  0.11880000000000000          4.1832647323608398     
  0.11910000000000000          4.1901822090148926     
  0.11940000000000002          4.0481095314025879     
  0.11970000000000001          3.7809858322143555     
  0.12000000000000001          3.4194869995117188     
  0.12030000000000000          2.9963130950927734     
  0.12060000000000000          2.5426802635192871     
  0.12089999999999999          2.0870599746704102     
  0.12119999999999999          1.6547026634216309     
  0.12150000000000001          1.2648074626922607     
  0.12180000000000001         0.93128931522369385     
  0.12210000000000000         0.66259580850601196     
  0.12239999999999999         0.46291673183441162     
  0.12270000000000002         0.33213251829147339     
  0.12300000000000001         0.26474329829216003     
  0.12330000000000001         0.25374847650527954     
  0.12360000000000000         0.28922793269157410     
  0.12390000000000000         0.35839971899986267     
  0.12419999999999999         0.44495171308517456     
  0.12450000000000001         0.53131222724914551     
  0.12480000000000001         0.60075235366821289     
  0.12509999999999999         0.63609135150909424     
  0.12540000000000001         0.62042075395584106     
  0.12570000000000003         0.53946375846862793     
  0.12600000000000000         0.38510876893997192     
  0.12630000000000002         0.15663462877273560     
  0.12659999999999999        -0.14222623407840729     
  0.12690000000000001        -0.50110340118408203     
  0.12719999999999998        -0.90164691209793091     
  0.12750000000000000         -1.3177483081817627     
  0.12780000000000002         -1.7204768657684326     
  0.12809999999999999         -2.0802822113037109     
  0.12840000000000001         -2.3688006401062012     
  0.12869999999999998         -2.5590860843658447     
  0.12900000000000000         -2.6298830509185791     
  0.12930000000000003         -2.5700206756591797     
  0.12959999999999999         -2.3782782554626465     
  0.12990000000000002         -2.0620224475860596     
  0.13019999999999998         -1.6372054815292358     
  0.13050000000000000         -1.1293076276779175     
  0.13080000000000003        -0.57143521308898926     
  0.13109999999999999         -7.6436437666416168E-004
  0.13140000000000002         0.54591059684753418     
  0.13169999999999998          1.0331454277038574     
  0.13200000000000001          1.4279772043228149     
  0.13229999999999997          1.7041110992431641     
  0.13260000000000000          1.8446087837219238     
  0.13290000000000002          1.8423439264297485     
  0.13319999999999999          1.6999304294586182     
  0.13350000000000001          1.4288069009780884     
  0.13380000000000003          1.0492687225341797     
  0.13410000000000000         0.59023624658584595     
  0.13440000000000002          8.5861831903457642E-002
  0.13469999999999999        -0.42735543847084045     
  0.13500000000000001        -0.91314816474914551     
  0.13529999999999998         -1.3369674682617188     
  0.13560000000000000         -1.6677180528640747     
  0.13590000000000002         -1.8815897703170776     
  0.13619999999999999         -1.9638197422027588     
  0.13650000000000001         -1.9092228412628174     
  0.13680000000000003         -1.7214577198028564     
  0.13710000000000000         -1.4130843877792358     
  0.13740000000000002         -1.0061165094375610     
  0.13769999999999999        -0.52926748991012573     
  0.13800000000000001         -1.6154134646058083E-002
  0.13829999999999998         0.49855083227157593     
  0.13860000000000000         0.98070514202117920     
  0.13890000000000002          1.3983516693115234     
  0.13919999999999999          1.7244231700897217     
  0.13950000000000001          1.9403165578842163     
  0.13979999999999998          2.0355455875396729     
  0.14010000000000000          2.0086236000061035     
  0.14040000000000002          1.8658282756805420     
  0.14069999999999999          1.6219077110290527     
  0.14100000000000001          1.2991020679473877     
  0.14130000000000004         0.92343288660049438     
  0.14160000000000000         0.52356237173080444     
  0.14189999999999997         0.12813657522201538     
  0.14219999999999999        -0.23521021008491516     
  0.14250000000000002        -0.54204809665679932     
  0.14279999999999998        -0.77364283800125122     
  0.14310000000000000        -0.91810119152069092     
  0.14339999999999997        -0.96941137313842773     
  0.14369999999999999        -0.92870825529098511     
  0.14400000000000002        -0.80403250455856323     
  0.14429999999999998        -0.60964727401733398     
  0.14460000000000001        -0.36494931578636169     
  0.14490000000000003         -9.2373028397560120E-002
  0.14520000000000000         0.18428190052509308     
  0.14550000000000002         0.44094306230545044     
  0.14579999999999999         0.65512776374816895     
  0.14610000000000001         0.80829828977584839     
  0.14640000000000003         0.88734662532806396     
  0.14670000000000000         0.88523322343826294     
  0.14699999999999996         0.80085188150405884     
  0.14729999999999999         0.63974833488464355     
  0.14760000000000001         0.41439637541770935     
  0.14789999999999998         0.14147317409515381     
  0.14820000000000000        -0.15920171141624451     