  -1.4999999999999999E-002     0.0000000000000000     
  -1.4700000000000000E-002     0.0000000000000000     
  -1.4400000000000000E-002     0.0000000000000000     
  -1.4100000000000000E-002     0.0000000000000000     
  -1.3800000000000000E-002     0.0000000000000000     
  -1.3500000000000000E-002     0.0000000000000000     
  -1.3200000000000000E-002     0.0000000000000000     
  -1.2899999999999998E-002     0.0000000000000000     
  -1.2600000000000000E-002     0.0000000000000000     
  -1.2299999999999998E-002     0.0000000000000000     
  -1.2000000000000000E-002     0.0000000000000000     
  -1.1699999999999999E-002     0.0000000000000000     
  -1.1399999999999999E-002     0.0000000000000000     
  -1.1099999999999999E-002     0.0000000000000000     
  -1.0799999999999999E-002     0.0000000000000000     
  -1.0499999999999999E-002     0.0000000000000000     
  -1.0199999999999999E-002     0.0000000000000000     
  -9.8999999999999991E-003     0.0000000000000000     
  -9.5999999999999992E-003     0.0000000000000000     
  -9.2999999999999992E-003     0.0000000000000000     
  -8.9999999999999993E-003     0.0000000000000000     
  -8.6999999999999994E-003     0.0000000000000000     
  -8.3999999999999995E-003     0.0000000000000000     
  -8.0999999999999996E-003     0.0000000000000000     
  -7.7999999999999988E-003     0.0000000000000000     
  -7.4999999999999997E-003     0.0000000000000000     
  -7.1999999999999998E-003     0.0000000000000000     
  -6.8999999999999981E-003     0.0000000000000000     
  -6.5999999999999982E-003     0.0000000000000000     
  -6.3000000000000000E-003     0.0000000000000000     
  -6.0000000000000001E-003     0.0000000000000000     
  -5.6999999999999985E-003     0.0000000000000000     
  -5.3999999999999986E-003     0.0000000000000000     
  -5.1000000000000004E-003     0.0000000000000000     
  -4.7999999999999987E-003     0.0000000000000000     
  -4.5000000000000005E-003     0.0000000000000000     
  -4.1999999999999989E-003     0.0000000000000000     
  -3.8999999999999990E-003     0.0000000000000000     
  -3.5999999999999990E-003     0.0000000000000000     
  -3.2999999999999991E-003     0.0000000000000000     
  -2.9999999999999992E-003     0.0000000000000000     
  -2.6999999999999993E-003     0.0000000000000000     
  -2.3999999999999994E-003     0.0000000000000000     
  -2.0999999999999977E-003     0.0000000000000000     
  -1.7999999999999995E-003     0.0000000000000000     
  -1.4999999999999979E-003     0.0000000000000000     
  -1.1999999999999997E-003     0.0000000000000000     
  -8.9999999999999976E-004     0.0000000000000000     
  -5.9999999999999810E-004     0.0000000000000000     
  -2.9999999999999992E-004     0.0000000000000000     
   0.0000000000000000          0.0000000000000000     
   3.0000000000000165E-004     0.0000000000000000     
   5.9999999999999984E-004     0.0000000000000000     
   9.0000000000000149E-004     0.0000000000000000     
   1.2000000000000031E-003     0.0000000000000000     
   1.5000000000000013E-003     0.0000000000000000     
   1.8000000000000030E-003     0.0000000000000000     
   2.1000000000000012E-003     0.0000000000000000     
   2.3999999999999994E-003     0.0000000000000000     
   2.7000000000000010E-003     0.0000000000000000     
   2.9999999999999992E-003     0.0000000000000000     
   3.3000000000000008E-003     0.0000000000000000     
   3.6000000000000025E-003     0.0000000000000000     
   3.9000000000000007E-003     0.0000000000000000     
   4.2000000000000023E-003     0.0000000000000000     
   4.5000000000000005E-003     0.0000000000000000     
   4.7999999999999987E-003     0.0000000000000000     
   5.1000000000000004E-003     0.0000000000000000     
   5.4000000000000020E-003     0.0000000000000000     
   5.7000000000000037E-003     0.0000000000000000     
   5.9999999999999984E-003     0.0000000000000000     
   6.3000000000000000E-003     0.0000000000000000     
   6.6000000000000017E-003     0.0000000000000000     
   6.9000000000000034E-003     0.0000000000000000     
   7.2000000000000015E-003     0.0000000000000000     
   7.5000000000000032E-003     0.0000000000000000     
   7.8000000000000014E-003     0.0000000000000000     
   8.0999999999999996E-003     0.0000000000000000     
   8.4000000000000012E-003     0.0000000000000000     
   8.7000000000000029E-003     0.0000000000000000     
   9.0000000000000011E-003     0.0000000000000000     
   9.2999999999999992E-003     0.0000000000000000     
   9.6000000000000009E-003     0.0000000000000000     
   9.8999999999999991E-003     0.0000000000000000     
   1.0200000000000001E-002     0.0000000000000000     
   1.0500000000000002E-002     0.0000000000000000     
   1.0800000000000004E-002     0.0000000000000000     
   1.1099999999999999E-002     0.0000000000000000     
   1.1400000000000000E-002     0.0000000000000000     
   1.1700000000000002E-002     0.0000000000000000     
   1.2000000000000004E-002     0.0000000000000000     
   1.2300000000000002E-002     0.0000000000000000     
   1.2600000000000000E-002     0.0000000000000000     
   1.2900000000000002E-002     0.0000000000000000     
   1.3200000000000000E-002     0.0000000000000000     
   1.3500000000000002E-002     0.0000000000000000     
   1.3800000000000003E-002     0.0000000000000000     
   1.4100000000000001E-002     0.0000000000000000     
   1.4400000000000000E-002     0.0000000000000000     
   1.4700000000000001E-002     0.0000000000000000     
   1.4999999999999999E-002     0.0000000000000000     
   1.5300000000000001E-002     0.0000000000000000     
   1.5600000000000003E-002     0.0000000000000000     
   1.5899999999999997E-002     0.0000000000000000     
   1.6199999999999999E-002     0.0000000000000000     
   1.6500000000000001E-002     0.0000000000000000     
   1.6800000000000002E-002     0.0000000000000000     
   1.7100000000000004E-002     0.0000000000000000     
   1.7400000000000006E-002     0.0000000000000000     
   1.7700000000000000E-002     0.0000000000000000     
   1.8000000000000002E-002     0.0000000000000000     
   1.8300000000000004E-002     0.0000000000000000     
   1.8600000000000005E-002     0.0000000000000000     
   1.8900000000000000E-002     0.0000000000000000     
   1.9200000000000002E-002     0.0000000000000000     
   1.9500000000000003E-002     0.0000000000000000     
   1.9799999999999998E-002     0.0000000000000000     
   2.0100000000000000E-002     0.0000000000000000     
   2.0400000000000001E-002     0.0000000000000000     
   2.0700000000000003E-002     0.0000000000000000     
   2.0999999999999998E-002     0.0000000000000000     
   2.1299999999999999E-002     0.0000000000000000     
   2.1600000000000001E-002    -2.2690120758648027E-038
   2.1900000000000003E-002    -1.3943029581831533E-036
   2.2200000000000004E-002     7.2851247146083976E-036
   2.2500000000000006E-002    -1.4910548371357080E-035
   2.2800000000000001E-002    -6.8494370318201028E-037
   2.3100000000000002E-002    -4.9348034831724305E-036
   2.3400000000000004E-002    -1.3247244108281418E-034
   2.3699999999999999E-002     5.6419122525429335E-034
   2.4000000000000000E-002    -9.0957086973654915E-034
   2.4300000000000002E-002    -8.3805855661638303E-034
   2.4599999999999997E-002     4.3097702692618116E-033
   2.4900000000000005E-002    -3.8926870675924549E-033
   2.5200000000000000E-002    -4.5572490848331256E-033
   2.5499999999999995E-002     1.6759334976294822E-032
   2.5800000000000003E-002    -2.7678311310111671E-032
   2.6099999999999998E-002     5.3929283795274760E-032
   2.6400000000000007E-002    -1.2024232951741865E-031
   2.6700000000000002E-002     1.7056809313356680E-031
   2.6999999999999996E-002    -5.2212502444174608E-033
   2.7300000000000005E-002    -3.2454776095996539E-031
   2.7600000000000000E-002    -9.4456521951669679E-031
   2.7900000000000008E-002     8.3085758299907587E-030
   2.8200000000000003E-002    -2.1838841349813346E-029
   2.8499999999999998E-002     4.0065137717389587E-029
   2.8800000000000006E-002    -3.4772321975926475E-028
   2.9100000000000001E-002     3.0579233789391753E-027
   2.9400000000000003E-002    -1.4580910590292232E-026
   2.9700000000000004E-002     3.0330357586675364E-026
   3.0000000000000006E-002     9.3116474216362882E-026
   3.0300000000000001E-002    -1.1178177949135119E-024
   3.0600000000000002E-002     5.2959754398204535E-024
   3.0900000000000004E-002    -1.5098369625351208E-023
   3.1199999999999999E-002     1.7450911117832068E-023
   3.1500000000000007E-002     7.6702099369084951E-023
   3.1800000000000002E-002    -5.4953031557856930E-022
   3.2099999999999997E-002     1.8237297834419968E-021
   3.2400000000000005E-002    -3.2327256302716663E-021
   3.2700000000000000E-002    -1.4013942386703475E-021
   3.3000000000000002E-002     3.1219142628074076E-020
   3.3300000000000003E-002    -1.1482446467100229E-019
   3.3599999999999998E-002     2.3291278323945395E-019
   3.3900000000000000E-002    -1.5637405656140103E-019
   3.4200000000000001E-002    -7.6062237924297782E-019
   3.4500000000000003E-002     3.5224923045419499E-018
   3.4799999999999998E-002    -8.7935412127886612E-018
   3.5099999999999999E-002     1.5441512366271301E-017
   3.5400000000000001E-002    -1.5903247882237021E-017
   3.5699999999999996E-002    -2.5640148533854608E-017
   3.6000000000000004E-002     2.3539457242048255E-016
   3.6299999999999999E-002    -8.6705610727941264E-016
   3.6600000000000008E-002     1.8779666042976502E-015
   3.6900000000000002E-002    -1.1249033737389482E-015
   3.7199999999999997E-002    -8.5586718106993689E-015
   3.7500000000000006E-002     3.6388635222105854E-014
   3.7800000000000000E-002    -6.5969948311700279E-014
   3.8100000000000009E-002    -6.7322948784299809E-015
   3.8400000000000004E-002     3.8385783742611931E-013
   3.8699999999999998E-002    -1.0406652988120909E-012
   3.9000000000000007E-002     8.2278719956729828E-013
   3.9300000000000002E-002     3.0747499987724777E-012
   3.9600000000000003E-002    -1.1647773907381940E-011
   3.9900000000000005E-002     1.3272160013151858E-011
   4.0200000000000000E-002     2.3756391207902426E-011
   4.0500000000000001E-002    -1.1472376512251526E-010
   4.0800000000000003E-002     1.4171318189023128E-010
   4.1100000000000005E-002     2.2362035464300340E-010
   4.1399999999999999E-002    -1.1147934362962418E-009
   4.1700000000000008E-002     1.2085039820526028E-009
   4.2000000000000003E-002     2.8865903793201201E-009
   4.2299999999999997E-002    -1.1136297094180687E-008
   4.2600000000000006E-002     5.5879592949079080E-009
   4.2900000000000001E-002     4.5555842790297857E-008
   4.3200000000000002E-002    -9.4830101209717687E-008
   4.3500000000000004E-002    -1.0920718448548388E-007
   4.3799999999999999E-002     5.7249294120034334E-007
   4.4100000000000000E-002     1.0485713940638872E-008
   4.4400000000000002E-002    -2.9164064195998622E-006
   4.4700000000000004E-002     2.3835784284796278E-006
   4.4999999999999998E-002     2.9462119166765462E-005
   4.5300000000000000E-002     6.5661427810914360E-005
   4.5600000000000002E-002     8.2092221671325582E-005
   4.5899999999999996E-002     8.3642829171819838E-005
   4.6200000000000005E-002     1.0772108538715380E-004
   4.6500000000000000E-002     1.7310525331931626E-004
   4.6799999999999994E-002     2.7568276187709805E-004
   4.7100000000000003E-002     4.1879280900162293E-004
   4.7399999999999998E-002     6.1381759019418607E-004
   4.7700000000000006E-002     8.7816157649747706E-004
   4.8000000000000001E-002     1.2416268843854460E-003
   4.8300000000000010E-002     1.7302424776772241E-003
   4.8600000000000004E-002     2.3571082356952239E-003
   4.8899999999999999E-002     3.1382490121492773E-003
   4.9200000000000008E-002     4.0935675794481624E-003
   4.9500000000000002E-002     5.2206447786571769E-003
   4.9800000000000011E-002     6.4666706702070365E-003
   5.0100000000000006E-002     7.7273294258838610E-003
   5.0400000000000000E-002     8.8601696930132312E-003
   5.0700000000000009E-002     9.6543423908529991E-003
   5.1000000000000004E-002     9.7707996813103937E-003
   5.1299999999999998E-002     8.7309513422657581E-003
   5.1600000000000007E-002     5.9521429119669400E-003
   5.1900000000000002E-002     7.5396795395805266E-004
   5.2200000000000010E-002    -7.6828468048674298E-003
   5.2500000000000005E-002    -2.0283818628938716E-002
   5.2800000000000000E-002    -3.7929325563341110E-002
   5.3099999999999994E-002    -6.1361110325191426E-002
   5.3400000000000003E-002    -9.1153554548040860E-002
   5.3699999999999998E-002   -0.12752833569715971     
   5.4000000000000006E-002   -0.17008800226941689     
   5.4300000000000001E-002   -0.21767802346387999     
   5.4599999999999996E-002   -0.26828212702015364     
   5.4900000000000004E-002   -0.31888058150691379     
   5.5199999999999999E-002   -0.36538984182161904     
   5.5499999999999994E-002   -0.40273597541845518     
   5.5800000000000002E-002   -0.42509210955905985     
   5.6099999999999997E-002   -0.42611993510702462     
   5.6400000000000006E-002   -0.39943379127380929     
   5.6700000000000000E-002   -0.33921573256828097     
   5.6999999999999995E-002   -0.24091479443413455     
   5.7300000000000004E-002   -0.10188876104456623     
   5.7599999999999998E-002     7.7917234011559255E-002
   5.7900000000000007E-002    0.29538561340903574     
   5.8200000000000002E-002    0.54393254811992886     
   5.8499999999999996E-002    0.81338604374947998     
   5.8800000000000005E-002     1.0902482070723138     
   5.9100000000000000E-002     1.3582448437004082     
   5.9400000000000008E-002     1.5993404438336327     
   5.9700000000000003E-002     1.7948813376375128     
   6.0000000000000012E-002     1.9269769497074805     
   6.0300000000000006E-002     1.9800897398533621     
   6.0600000000000001E-002     1.9424345645896821     
   6.0900000000000010E-002     1.8072972618727690     
   6.1200000000000004E-002     1.5739027750032548     
   6.1500000000000013E-002     1.2479102502951207     
   6.1800000000000008E-002    0.84163839483422009     
   6.2100000000000002E-002    0.37315393293764920     
   6.2399999999999997E-002   -0.13457196802988669     
   6.2700000000000006E-002   -0.65494359310341821     
   6.3000000000000000E-002    -1.1600324332224172     
   6.3300000000000009E-002    -1.6221964897840842     
   6.3600000000000004E-002    -2.0160710800761592     
   6.3899999999999998E-002    -2.3208037843340463     
   6.4199999999999993E-002    -2.5209134408958960     
   6.4500000000000002E-002    -2.6078717602205614     
   6.4800000000000010E-002    -2.5807762259910163     
   6.5100000000000005E-002    -2.4455080964408467     
   6.5400000000000000E-002    -2.2150057188212315     
   6.5700000000000008E-002    -1.9078561971731247     
   6.5999999999999989E-002    -1.5464211291101506     
   6.6299999999999998E-002    -1.1558630543769368     
   6.6600000000000006E-002   -0.76162794333166772     
   6.6900000000000001E-002   -0.38756948914427269     
   6.7199999999999996E-002    -5.4886510347825879E-002
   6.7500000000000004E-002    0.21966575659938581     
   6.7800000000000013E-002    0.42473741142036658     
   6.8099999999999994E-002    0.55429900448304892     
   6.8400000000000002E-002    0.60835729023786200     
   6.8700000000000011E-002    0.59213088072693765     
   6.8999999999999992E-002    0.51494516985917294     
   6.9300000000000000E-002    0.39001877749554836     
   6.9600000000000009E-002    0.23267208361022895     
   6.9900000000000004E-002     5.9056667801655860E-002
   7.0199999999999999E-002   -0.11436720691829461     
   7.0500000000000007E-002   -0.27235162721247635     
   7.0800000000000016E-002   -0.40173316034968298     
   7.1099999999999997E-002   -0.49143409743633448     
   7.1400000000000005E-002   -0.53354918744221713     
   7.1700000000000000E-002   -0.52327303265103708     
   7.1999999999999995E-002   -0.45857670229176861     
   7.2300000000000003E-002   -0.34074018942288475     
   7.2600000000000012E-002   -0.17387420173545021     
   7.2900000000000006E-002     3.5659265719168332E-002
   7.3200000000000001E-002    0.27898210356780861     
   7.3499999999999996E-002    0.54563422063886513     
   7.3800000000000004E-002    0.82392716190515891     
   7.4099999999999999E-002     1.1013805507409025     
   7.4400000000000008E-002     1.3654447641592640     
   7.4700000000000003E-002     1.6039864411882192     
   7.5000000000000011E-002     1.8059714123447250     
   7.5299999999999992E-002     1.9621839067483364     
   7.5600000000000001E-002     2.0650377154047916     
   7.5900000000000009E-002     2.1096394211779099     
   7.6200000000000004E-002     2.0937692077707482     
   7.6499999999999999E-002     2.0173990124556838     
   7.6800000000000007E-002     1.8833742523159316     
   7.7099999999999988E-002     1.6967275412748606     
   7.7399999999999997E-002     1.4640940078907434     
   7.7700000000000005E-002     1.1940884601692332     
   7.8000000000000014E-002    0.89630769813131295     
   7.8299999999999995E-002    0.58049061457871787     
   7.8600000000000003E-002    0.25727889518206393     
   7.8900000000000012E-002    -6.3203984288696446E-002
   7.9199999999999993E-002   -0.37166856594990172     
   7.9500000000000001E-002   -0.65917711555881908     
   7.9800000000000010E-002   -0.91850096637471168     
   8.0100000000000018E-002    -1.1437314623452615     
   8.0399999999999999E-002    -1.3304040397172443     
   8.0700000000000008E-002    -1.4763829227797345     
   8.1000000000000003E-002    -1.5811047967134613     
   8.1299999999999997E-002    -1.6456907805357304     
   8.1600000000000006E-002    -1.6732630197227181     
   8.1900000000000014E-002    -1.6679947078752733     
   8.2199999999999995E-002    -1.6349954254825860     
   8.2500000000000004E-002    -1.5798806928589713     
   8.2799999999999999E-002    -1.5081144327683944     
   8.3100000000000007E-002    -1.4244480774147092     
   8.3400000000000002E-002    -1.3325171929996671     
   8.3700000000000011E-002    -1.2347803414935399     
   8.4000000000000005E-002    -1.1320081379010531     
   8.4300000000000000E-002    -1.0233301738660714     
   8.4599999999999995E-002   -0.90694207766585677     
   8.4900000000000003E-002   -0.77998776517363311     
   8.5199999999999998E-002   -0.63922431489705644     
   8.5500000000000007E-002   -0.48179431381760729     
   8.5800000000000001E-002   -0.30533162878937059     
   8.6100000000000010E-002   -0.10883246088661691     
   8.6399999999999991E-002    0.10696559565611086     
   8.6699999999999999E-002    0.33980092989778932     
   8.7000000000000008E-002    0.58538644160758935     
   8.7300000000000003E-002    0.83761268184125193     
   8.7599999999999997E-002     1.0888839780386945     
   8.7900000000000006E-002     1.3303483273086023     
   8.8200000000000014E-002     1.5522391735170586     
   8.8499999999999995E-002     1.7443509727857958     
   8.8800000000000004E-002     1.8965639791280040     
   8.9100000000000013E-002     1.9991225876800840     
   8.9399999999999993E-002     2.0432857666154831     
   8.9700000000000002E-002     2.0220315394100652     
   9.0000000000000011E-002     1.9302402116069786     
   9.0299999999999991E-002     1.7653123464781473     
   9.0600000000000000E-002     1.5280440362637435     
   9.0900000000000009E-002     1.2226703469377895     
   9.1200000000000017E-002    0.85716885837189238     
   9.1499999999999998E-002    0.44368039601796916     
   9.1800000000000007E-002    -2.0784123366066609E-003
   9.2100000000000001E-002   -0.46112083917001279     
   9.2399999999999996E-002   -0.91179710005971926     
   9.2700000000000005E-002    -1.3313757179890953     
   9.3000000000000013E-002    -1.6971704762160158     
   9.3300000000000008E-002    -1.9879610800795930     
   9.3600000000000003E-002    -2.1856676990343615     
   9.3899999999999997E-002    -2.2766843572116358     
   9.4200000000000006E-002    -2.2532005702123286     
   9.4500000000000001E-002    -2.1139482355844024     
   9.4800000000000009E-002    -1.8645162272116806     
   9.5100000000000004E-002    -1.5172946399009462     
   9.5399999999999999E-002    -1.0907945771882979     
   9.5699999999999993E-002   -0.60845027274494612     
   9.6000000000000002E-002    -9.7310115311975309E-002
   9.6300000000000011E-002    0.41399311569189479     
   9.6600000000000005E-002    0.89694394037292291     
   9.6900000000000000E-002     1.3248707499261059     
   9.7200000000000009E-002     1.6751133028089669     
   9.7499999999999989E-002     1.9300891994362885     
   9.7799999999999998E-002     2.0781786250298779     
   9.8100000000000007E-002     2.1148765549043347     
   9.8400000000000015E-002     2.0423528106649300     
   9.8699999999999996E-002     1.8689679503777512     
   9.9000000000000005E-002     1.6091376231246812     
   9.9300000000000013E-002     1.2817813795392823     
   9.9599999999999994E-002    0.90852980278724260     
   9.9900000000000003E-002    0.51279581354179804     
  0.10020000000000001         0.11802121125573239     
  0.10049999999999999        -0.25423143512631441     
  0.10080000000000000        -0.58477265850907489     
  0.10110000000000001        -0.85837831890873328     
  0.10140000000000000         -1.0644542548767184     
  0.10170000000000000         -1.1968156970922372     
  0.10200000000000001         -1.2541643170067616     
  0.10230000000000002         -1.2396465819737799     
  0.10260000000000000         -1.1600238958605900     
  0.10290000000000001         -1.0253940683993470     
  0.10320000000000000        -0.84801015740399777     
  0.10350000000000001        -0.64140397617894962     
  0.10380000000000000        -0.42013723536439151     
  0.10410000000000001        -0.19850009914494748     
  0.10440000000000001          1.0023100575988320E-002
  0.10470000000000000         0.19281224727802204     
  0.10500000000000000         0.33911351841597837     
  0.10530000000000000         0.44006977284128190     
  0.10560000000000000         0.48899799352241047     
  0.10590000000000001         0.48193794895378872     
  0.10620000000000000         0.41743619447568214     
  0.10650000000000001         0.29700626319881351     
  0.10679999999999999         0.12520552013078223     
  0.10710000000000000         -9.0984770340501342E-002
  0.10740000000000001        -0.34160473300730398     
  0.10770000000000000        -0.61433897421649319     
  0.10800000000000000        -0.89560169040900028     
  0.10830000000000001         -1.1704059523473376     
  0.10859999999999999         -1.4235365021689184     
  0.10890000000000000         -1.6406302321309525     
  0.10920000000000001         -1.8083987532342860     
  0.10950000000000001         -1.9159906264152440     
  0.10979999999999999         -1.9554098854712691     
  0.11009999999999999         -1.9215514827926015     
  0.11040000000000001         -1.8130220424311645     
  0.11070000000000001         -1.6319539280507698     
  0.11100000000000000         -1.3835070082829546     
  0.11130000000000000         -1.0761248744801719     
  0.11160000000000002        -0.72064918888137797     
  0.11190000000000001        -0.32982404561867629     
  0.11220000000000001          8.1697324649062431E-002
  0.11250000000000000         0.49846543794036080     
  0.11280000000000000         0.90447430567601095     
  0.11309999999999999          1.2833589157789902     
  0.11340000000000001          1.6198947261611245     
  0.11369999999999998          1.8994333888516550     
  0.11400000000000000          2.1093678939317968     
  0.11430000000000000          2.2401457619364393     
  0.11460000000000002          2.2844357294106601     
  0.11489999999999999          2.2397644215738239     
  0.11520000000000001          2.1080327796568099     
  0.11550000000000001          1.8950949348846251     
  0.11580000000000000          1.6125729039639793     
  0.11609999999999999          1.2759487906925884     
  0.11640000000000002         0.90378654420194238     
  0.11670000000000001         0.51814915479870294     
  0.11700000000000001         0.14142578932692029     
  0.11730000000000000        -0.20454005379292717     
  0.11760000000000000        -0.49903237253366228     
  0.11789999999999999        -0.72545147989973091     
  0.11820000000000001        -0.87165672134910999     
  0.11850000000000001        -0.92987515126402442     
  0.11880000000000000        -0.89860551420546031     
  0.11910000000000000        -0.78157794537162673     
  0.11940000000000002        -0.58664984373811002     
  0.11970000000000001        -0.32626328802728377     
  0.12000000000000001         -1.5725950169293235E-002
  0.12030000000000000         0.32813290821809460     
  0.12060000000000000         0.68710765412457953     
  0.12089999999999999          1.0431840078386028     
  0.12119999999999999          1.3790930529586714     
  0.12150000000000001          1.6782000101832999     
  0.12180000000000001          1.9257633849165998     
  0.12210000000000000          2.1088271801809881     
  0.12239999999999999          2.2160584332302733     
  0.12270000000000002          2.2387775706965272     
  0.12300000000000001          2.1710512323778062     
  0.12330000000000001          2.0095280999882448     
  0.12360000000000000          1.7551635533816921     
  0.12390000000000000          1.4125192842832064     
  0.12419999999999999         0.99058724253595187     
  0.12450000000000001         0.50348275418174104     
  0.12480000000000001         -3.1049064013502381E-002
  0.12509999999999999        -0.59104870145436550     
  0.12540000000000001         -1.1514141909807929     
  0.12570000000000003         -1.6860532660653700     
  0.12600000000000000         -2.1683248066008183     
  0.12630000000000002         -2.5734770479355689     
  0.12659999999999999         -2.8806692900922641     
  0.12690000000000001         -3.0735237421441894     
  0.12719999999999998         -3.1429473113058748     
  0.12750000000000000         -3.0870958573705423     
  0.12780000000000002         -2.9110023619245027     
  0.12809999999999999         -2.6280167260440379     
  0.12840000000000001         -2.2574452680865278     
  0.12869999999999998         -1.8229672122668674     
  0.12900000000000000         -1.3522822346867898     
  0.12930000000000003        -0.87311732163529499     
  0.12959999999999999        -0.41197934733477481     
  0.12990000000000002          7.1042001543855093E-003
  0.13019999999999998         0.36571379438139928     
  0.13050000000000000         0.65125850873829272     
  0.13080000000000003         0.85717253329864851     
  0.13109999999999999         0.98426053884127995     
  0.13140000000000002          1.0389551787215066     
  0.13169999999999998          1.0327030270943744     
  0.13200000000000001         0.98127598698350660     
  0.13229999999999997         0.90202307686742422     
  0.13260000000000000         0.81321165351290414     
  0.13290000000000002         0.73232643563419586     
  0.13319999999999999         0.67382838474188267     
  0.13350000000000001         0.64888997137805671     
  0.13380000000000003         0.66374978224610004     
  0.13410000000000000         0.71946850395034678     
  0.13440000000000002         0.81177693560734943     
  0.13469999999999999         0.93055011023393774     
  0.13500000000000001          1.0613734194480156     
  0.13529999999999998          1.1859447707704867     
  0.13560000000000000          1.2831531114916075     
  0.13590000000000002          1.3318932497945823     
  0.13619999999999999          1.3117737003197476     
  0.13650000000000001          1.2056039081432175     
  0.13680000000000003          1.0019915053967665     
  0.13710000000000000         0.69571638832976213     
  0.13740000000000002         0.29000897912895152     
  0.13769999999999999        -0.20291275179350166     
  0.13800000000000001        -0.76302507833371180     
  0.13829999999999998         -1.3621309926365157     
  0.13860000000000000         -1.9664131530872453     
  0.13890000000000002         -2.5393096117641090     
  0.13919999999999999         -3.0431277448140861     
  0.13950000000000001         -3.4436046550112138     
  0.13979999999999998         -3.7121203007901755     
  0.14010000000000000         -3.8276915889250063     
  0.14040000000000002         -3.7801363162487576     
  0.14069999999999999         -3.5696964993318829     
  0.14100000000000001         -3.2069376756781907     
  0.14130000000000004         -2.7125936708315379     
  0.14160000000000000         -2.1142234474010735     
  0.14189999999999997         -1.4441499894432184     
  0.14219999999999999        -0.73735095377530513     
  0.14250000000000002         -2.6843137741474621E-002
  0.14279999999999998         0.65728312720495907     
  0.14310000000000000          1.2902523686138565     
  0.14339999999999997          1.8545702314662158     
  0.14369999999999999          2.3387709225265265     
  0.14400000000000002          2.7382952688654569     
  0.14429999999999998          3.0542905367775575     
  0.14460000000000001          3.2910312959320436     
  0.14490000000000003          3.4558042100276651     
  0.14520000000000000          3.5564002367599699     
  0.14550000000000002          3.5992860668778519     
  0.14579999999999999          3.5905567758905903     
  0.14610000000000001          3.5333482223386596     
  0.14640000000000003          3.4289274421553841     
  0.14670000000000000          3.2782020014122253     
  0.14699999999999996          3.0803135870889946     
  0.14729999999999999          2.8352487849555104     
  0.14760000000000001          2.5451756332439004     
  0.14789999999999998          2.2133739947172586     
  0.14820000000000000          1.8466534925112867     