  -1.4999999999999999E-002     0.0000000000000000     
  -1.4700000000000000E-002     0.0000000000000000     
  -1.4400000000000000E-002     0.0000000000000000     
  -1.4100000000000000E-002     0.0000000000000000     
  -1.3800000000000000E-002     0.0000000000000000     
  -1.3500000000000000E-002     0.0000000000000000     
  -1.3200000000000000E-002     0.0000000000000000     
  -1.2899999999999998E-002     0.0000000000000000     
  -1.2600000000000000E-002     0.0000000000000000     
  -1.2299999999999998E-002     0.0000000000000000     
  -1.2000000000000000E-002     0.0000000000000000     
  -1.1699999999999999E-002     0.0000000000000000     
  -1.1399999999999999E-002     0.0000000000000000     
  -1.1099999999999999E-002     0.0000000000000000     
  -1.0799999999999999E-002     0.0000000000000000     
  -1.0499999999999999E-002     0.0000000000000000     
  -1.0199999999999999E-002     0.0000000000000000     
  -9.8999999999999991E-003     0.0000000000000000     
  -9.5999999999999992E-003     0.0000000000000000     
  -9.2999999999999992E-003     0.0000000000000000     
  -8.9999999999999993E-003     0.0000000000000000     
  -8.6999999999999994E-003     0.0000000000000000     
  -8.3999999999999995E-003     0.0000000000000000     
  -8.0999999999999996E-003     0.0000000000000000     
  -7.7999999999999988E-003     0.0000000000000000     
  -7.4999999999999997E-003     0.0000000000000000     
  -7.1999999999999998E-003     0.0000000000000000     
  -6.8999999999999981E-003     0.0000000000000000     
  -6.5999999999999982E-003     0.0000000000000000     
  -6.3000000000000000E-003     0.0000000000000000     
  -6.0000000000000001E-003     0.0000000000000000     
  -5.6999999999999985E-003     0.0000000000000000     
  -5.3999999999999986E-003     0.0000000000000000     
  -5.1000000000000004E-003     0.0000000000000000     
  -4.7999999999999987E-003     0.0000000000000000     
  -4.5000000000000005E-003     0.0000000000000000     
  -4.1999999999999989E-003     0.0000000000000000     
  -3.8999999999999990E-003     0.0000000000000000     
  -3.5999999999999990E-003     0.0000000000000000     
  -3.2999999999999991E-003     0.0000000000000000     
  -2.9999999999999992E-003     0.0000000000000000     
  -2.6999999999999993E-003     0.0000000000000000     
  -2.3999999999999994E-003     0.0000000000000000     
  -2.0999999999999977E-003     0.0000000000000000     
  -1.7999999999999995E-003     0.0000000000000000     
  -1.4999999999999979E-003     0.0000000000000000     
  -1.1999999999999997E-003     0.0000000000000000     
  -8.9999999999999976E-004     0.0000000000000000     
  -5.9999999999999810E-004     0.0000000000000000     
  -2.9999999999999992E-004     0.0000000000000000     
   0.0000000000000000          0.0000000000000000     
   3.0000000000000165E-004     0.0000000000000000     
   5.9999999999999984E-004     0.0000000000000000     
   9.0000000000000149E-004     0.0000000000000000     
   1.2000000000000031E-003     0.0000000000000000     
   1.5000000000000013E-003     0.0000000000000000     
   1.8000000000000030E-003     3.4117357658977748E-038
   2.1000000000000012E-003    -1.1683777164413675E-037
   2.3999999999999994E-003     9.9403741007993830E-037
   2.7000000000000010E-003    -4.9110428778250674E-036
   2.9999999999999992E-003     1.4935697424736259E-035
   3.3000000000000008E-003     2.1442425054586734E-035
   3.6000000000000025E-003    -3.1742694546963207E-034
   3.9000000000000007E-003     6.1722587252646379E-034
   4.2000000000000023E-003    -9.5006275029428890E-034
   4.5000000000000005E-003    -5.5080076076815124E-034
   4.7999999999999987E-003     6.1894949980190806E-033
   5.1000000000000004E-003    -1.1847558597831734E-032
   5.4000000000000020E-003    -3.0124436744155447E-033
   5.7000000000000037E-003     6.9051249842360903E-032
   5.9999999999999984E-003    -1.7101753680084878E-031
   6.3000000000000000E-003     1.4196083421908616E-031
   6.6000000000000017E-003     3.8508405981116984E-031
   6.9000000000000034E-003    -1.5827726105881291E-030
   7.2000000000000015E-003     2.3393345266626500E-030
   7.5000000000000032E-003     5.3804895740733349E-031
   7.8000000000000014E-003    -1.0176215444247237E-029
   8.0999999999999996E-003     2.2315572627377761E-029
   8.4000000000000012E-003    -1.6332417479396450E-029
   8.7000000000000029E-003    -4.0089530838480619E-029
   9.0000000000000011E-003     1.5155503975860123E-028
   9.2999999999999992E-003    -2.2443076108236443E-028
   9.6000000000000009E-003     2.7847884804298245E-029
   9.8999999999999991E-003     6.8898610305283880E-028
   1.0200000000000001E-002    -1.7870115453439682E-027
   1.0500000000000002E-002     2.0844365392050375E-027
   1.0800000000000004E-002     9.0221122069319443E-028
   1.1099999999999999E-002    -9.3574920725795205E-027
   1.1400000000000000E-002     2.0195002566671870E-026
   1.1700000000000002E-002    -1.8158067086839324E-026
   1.2000000000000004E-002    -2.3504772870580114E-026
   1.2300000000000002E-002     1.1715071445939591E-025
   1.2600000000000000E-002    -2.0294232961581413E-025
   1.2900000000000002E-002     1.0285934135908141E-025
   1.3200000000000000E-002     3.9703753882245064E-025
   1.3500000000000002E-002    -1.2221632988842414E-024
   1.3800000000000003E-002     1.5639966375604175E-024
   1.4100000000000001E-002     9.1436120542505455E-026
   1.4400000000000000E-002    -4.6313261379536359E-024
   1.4700000000000001E-002     9.7215464063366657E-024
   1.4999999999999999E-002    -8.2433070786822184E-024
   1.5300000000000001E-002    -8.0387188364181135E-024
   1.5600000000000003E-002     3.7620990537616019E-023
   1.5899999999999997E-002    -5.7806580314290399E-023
   1.6199999999999999E-002     2.8316436745604338E-023
   1.6500000000000001E-002     7.7861815921648584E-023
   1.6800000000000002E-002    -2.2679465028405776E-022
   1.7100000000000004E-002     2.9613510481943081E-022
   1.7400000000000006E-002    -1.0729763621225897E-022
   1.7700000000000000E-002    -4.6762502545908965E-022
   1.8000000000000002E-002     1.3180072218820032E-021
   1.8300000000000004E-002    -1.8214810027811629E-021
   1.8600000000000005E-002     6.6634003089377540E-022
   1.8900000000000000E-002     3.5228860772384431E-021
   1.9200000000000002E-002    -9.7952563546039698E-021
   1.9500000000000003E-002     1.1482316518720498E-020
   1.9799999999999998E-002     2.9743598859459183E-021
   2.0100000000000000E-002    -3.7294605410291829E-020
   2.0400000000000001E-002     6.5231963179917273E-020
   2.0700000000000003E-002    -2.7035061493531598E-020
   2.0999999999999998E-002    -1.1469921030760597E-019
   2.1299999999999999E-002     2.7015142762046206E-019
   2.1600000000000001E-002    -1.9397549563172541E-019
   2.1900000000000003E-002    -2.9918326772740091E-019
   2.2200000000000004E-002     9.3429667547956526E-019
   2.2500000000000006E-002    -8.6341292849647906E-019
   2.2800000000000001E-002    -6.4146090713327258E-019
   2.3100000000000002E-002     2.9595316508060828E-018
   2.3400000000000004E-002    -3.6099299411966183E-018
   2.3699999999999999E-002    -3.8429699156862871E-019
   2.4000000000000000E-002     9.0908964933212641E-018
   2.4300000000000002E-002    -1.5782140718751722E-017
   2.4599999999999997E-002     1.0990161161355777E-017
   2.4900000000000005E-002    -5.2215350558653877E-018
   2.5200000000000000E-002     1.7771861621383636E-017
   2.5499999999999995E-002     1.2866214368842528E-016
   2.5800000000000003E-002    -1.0012008569836393E-015
   2.6099999999999998E-002     2.1754169589374469E-015
   2.6400000000000007E-002     1.7181485794085373E-015
   2.6700000000000002E-002    -1.8827721354113482E-014
   2.6999999999999996E-002     3.2666962777772505E-014
   2.7300000000000005E-002     2.9362453746429422E-014
   2.7600000000000000E-002    -2.0611214173348517E-013
   2.7900000000000008E-002     2.4989980097351753E-013
   2.8200000000000003E-002     2.7154065827053652E-013
   2.8499999999999998E-002    -9.9164857988000746E-013
   2.8800000000000006E-002     9.2348626171554924E-013
   2.9100000000000001E-002    -2.5972659260378665E-012
   2.9400000000000003E-002     8.4906100007203882E-012
   2.9700000000000004E-002     1.2857810328563025E-011
   3.0000000000000006E-002    -1.2652387182667697E-010
   3.0300000000000001E-002     1.8400263387699937E-010
   3.0600000000000002E-002     4.9358995518104756E-010
   3.0900000000000004E-002    -2.0180728636358767E-009
   3.1199999999999999E-002     6.8514160738517570E-010
   3.1500000000000007E-002     9.2287052914348655E-009
   3.1800000000000002E-002    -1.6598931288703586E-008
   3.2099999999999997E-002    -1.9279527742865606E-008
   3.2400000000000005E-002     9.0014164404969536E-008
   3.2700000000000000E-002    -1.9843776967520191E-008
   3.3000000000000002E-002    -3.0497515597025953E-007
   3.3300000000000003E-002     2.7528158290592316E-007
   3.3599999999999998E-002     1.3477485807834668E-006
   3.3900000000000000E-002     3.1260138995385265E-006
   3.4200000000000001E-002     1.1665258388970164E-005
   3.4500000000000003E-002     3.0042855119400075E-005
   3.4799999999999998E-002     5.0417452439384218E-005
   3.5099999999999999E-002     6.7874197781667232E-005
   3.5400000000000001E-002     8.8557073157371612E-005
   3.5699999999999996E-002     1.2188193076980878E-004
   3.6000000000000004E-002     1.7749350864269386E-004
   3.6299999999999999E-002     2.6798069884252478E-004
   3.6600000000000008E-002     4.0777544874121864E-004
   3.6900000000000002E-002     5.9913697646508252E-004
   3.7199999999999997E-002     8.3641898023845140E-004
   3.7500000000000006E-002     1.1461363958631399E-003
   3.7800000000000000E-002     1.5782164499578213E-003
   3.8100000000000009E-002     2.1345595987545679E-003
   3.8400000000000004E-002     2.7910975924696907E-003
   3.8699999999999998E-002     3.5766817789640165E-003
   3.9000000000000007E-002     4.4824170007983777E-003
   3.9300000000000002E-002     5.3963690827141808E-003
   3.9600000000000003E-002     6.2251347088916331E-003
   3.9900000000000005E-002     6.8523648884601107E-003
   4.0200000000000000E-002     7.0100282480029252E-003
   4.0500000000000001E-002     6.3415845569627927E-003
   4.0800000000000003E-002     4.4190739261121270E-003
   4.1100000000000005E-002     6.9245824473918721E-004
   4.1399999999999999E-002    -5.4801201748621298E-003
   4.1700000000000008E-002    -1.4857860613048945E-002
   4.2000000000000003E-002    -2.8259457238162144E-002
   4.2299999999999997E-002    -4.6405546155287247E-002
   4.2600000000000006E-002    -6.9953469286660575E-002
   4.2900000000000001E-002    -9.9367823985756942E-002
   4.3200000000000002E-002   -0.13462660822726136     
   4.3500000000000004E-002   -0.17521032752227317     
   4.3799999999999999E-002   -0.21998536753521503     
   4.4100000000000000E-002   -0.26691463390661951     
   4.4400000000000002E-002   -0.31305246845297674     
   4.4700000000000004E-002   -0.35457827854122215     
   4.4999999999999998E-002   -0.38675016039490195     
   4.5300000000000000E-002   -0.40413883734256117     
   4.5600000000000002E-002   -0.40097208533695294     
   4.5899999999999996E-002   -0.37148754418791441     
   4.6200000000000005E-002   -0.31049447695894727     
   4.6500000000000000E-002   -0.21401099341287533     
   4.6799999999999994E-002    -7.9840370951149264E-002
   4.7100000000000003E-002     9.1792605908316727E-002
   4.7399999999999998E-002    0.29780511511023811     
   4.7700000000000006E-002    0.53193379403007057     
   4.8000000000000001E-002    0.78470783429215629     
   4.8300000000000010E-002     1.0436788155456505     
   4.8600000000000004E-002     1.2939807849805973     
   4.8899999999999999E-002     1.5192185774593980     
   4.9200000000000008E-002     1.7026600044069724     
   4.9500000000000002E-002     1.8284082719599084     
   4.9800000000000011E-002     1.8828461661089264     
   5.0100000000000006E-002     1.8560014735579884     
   5.0400000000000000E-002     1.7424883111991250     
   5.0700000000000009E-002     1.5424408324261449     
   5.1000000000000004E-002     1.2617849429010768     
   5.1299999999999998E-002    0.91212707471789223     
   5.1600000000000007E-002    0.51002192397722101     
   5.1900000000000002E-002     7.5987738734243138E-002
   5.2200000000000010E-002   -0.36719833216586117     
   5.2500000000000005E-002   -0.79589909838772854     
   5.2800000000000000E-002    -1.1878393996200316     
   5.3099999999999994E-002    -1.5237507833310673     
   5.3400000000000003E-002    -1.7885589046853383     
   5.3699999999999998E-002    -1.9728344652875833     
   5.4000000000000006E-002    -2.0733499001394762     
   5.4300000000000001E-002    -2.0930175923800221     
   5.4599999999999996E-002    -2.0403864409988444     
   5.4900000000000004E-002    -1.9286499964926662     
   5.5199999999999999E-002    -1.7742536551941015     
   5.5499999999999994E-002    -1.5954156646556115     
   5.5800000000000002E-002    -1.4100666608168808     
   5.6099999999999997E-002    -1.2342951338506296     
   5.6400000000000006E-002    -1.0811527879627008     
   5.6700000000000000E-002   -0.95925318241888036     
   5.6999999999999995E-002   -0.87225781257393109     
   5.7300000000000004E-002   -0.81892878622802456     
   5.7599999999999998E-002   -0.79326499764811231     
   5.7900000000000007E-002   -0.78532988176173291     
   5.8200000000000002E-002   -0.78261150082429864     
   5.8499999999999996E-002   -0.77129772182634326     
   5.8800000000000005E-002   -0.73766042568202117     
   5.9100000000000000E-002   -0.66963017697198346     
   5.9400000000000008E-002   -0.55808176951861732     
   5.9700000000000003E-002   -0.39764648348035436     
   6.0000000000000012E-002   -0.18732244165543932     
   6.0300000000000006E-002     6.9180544649315889E-002
   6.0600000000000001E-002    0.36394935421282071     
   6.0900000000000010E-002    0.68540458173550434     
   6.1200000000000004E-002     1.0191788709350291     
   6.1500000000000013E-002     1.3492558285933853     
   6.1800000000000008E-002     1.6590364391668189     
   6.2100000000000002E-002     1.9328812286409232     
   6.2399999999999997E-002     2.1569452642602442     
   6.2700000000000006E-002     2.3198985992311094     
   6.3000000000000000E-002     2.4136232629779926     
   6.3300000000000009E-002     2.4337358534286295     
   6.3600000000000004E-002     2.3794640082982710     
   6.3899999999999998E-002     2.2533319942901997     
   6.4199999999999993E-002     2.0608576927589652     
   6.4500000000000002E-002     1.8100572234095651     
   6.4800000000000010E-002     1.5110079979501307     
   6.5100000000000005E-002     1.1749022514181071     
   6.5400000000000000E-002    0.81356047486465788     
   6.5700000000000008E-002    0.43908522104336889     
   6.5999999999999989E-002     6.3234653430733090E-002
   6.6299999999999998E-002   -0.30276652475640642     
   6.6600000000000006E-002   -0.64878550878878372     
   6.6900000000000001E-002   -0.96560928658787759     
   6.7199999999999996E-002    -1.2451811923028870     
   6.7500000000000004E-002    -1.4806334303157556     
   6.7800000000000013E-002    -1.6663245165272400     
   6.8099999999999994E-002    -1.7979216815921930     
   6.8400000000000002E-002    -1.8720478223795212     
   6.8700000000000011E-002    -1.8865796891607758     
   6.8999999999999992E-002    -1.8409319853723289     
   6.9300000000000000E-002    -1.7358924960201776     
   6.9600000000000009E-002    -1.5736308940600523     
   6.9900000000000004E-002    -1.3583971369614680     
   7.0199999999999999E-002    -1.0965208703557252     
   7.0500000000000007E-002   -0.79661648218610681     
   7.0800000000000016E-002   -0.46940440051913956     
   7.1099999999999997E-002   -0.12775646108158334     
   7.1400000000000005E-002    0.21352752119147356     
   7.1700000000000000E-002    0.53837888105227805     
   7.1999999999999995E-002    0.83040164489774071     
   7.2300000000000003E-002     1.0737866750713749     
   7.2600000000000012E-002     1.2542316583476349     
   7.2900000000000006E-002     1.3603290381965536     
   7.3200000000000001E-002     1.3847252336563969     
   7.3499999999999996E-002     1.3247159440604221     
   7.3800000000000004E-002     1.1828250072353832     
   7.4099999999999999E-002    0.96707942727107365     
   7.4400000000000008E-002    0.69071873990035293     
   7.4700000000000003E-002    0.37143401231061723     
   7.5000000000000011E-002     3.0282576479475409E-002
   7.5299999999999992E-002   -0.30975991078411447     
   7.5600000000000001E-002   -0.62510974571613431     
   7.5900000000000009E-002   -0.89328298589383337     
   7.6200000000000004E-002    -1.0944619866698346     
   7.6499999999999999E-002    -1.2127225365412571     
   7.6800000000000007E-002    -1.2370969596496906     
   7.7099999999999988E-002    -1.1621383231636813     
   7.7399999999999997E-002   -0.98833423883922933     
   7.7700000000000005E-002   -0.72245664811547705     
   7.8000000000000014E-002   -0.37681811305823665     
   7.8299999999999995E-002     3.1362384248037944E-002
   7.8600000000000003E-002    0.48030369752404312     
   7.8900000000000012E-002    0.94498931696584876     
   7.9199999999999993E-002     1.3984796994744570     
   7.9500000000000001E-002     1.8133142071154325     
   7.9800000000000010E-002     2.1628795010288115     
   8.0100000000000018E-002     2.4229277072238489     
   8.0399999999999999E-002     2.5734314522232893     
   8.0700000000000008E-002     2.5997613395761476     
   8.1000000000000003E-002     2.4943302855542910     
   8.1299999999999997E-002     2.2573252813192397     
   8.1600000000000006E-002     1.8970178169722125     
   8.1900000000000014E-002     1.4302303153762519     
   8.2199999999999995E-002    0.88137663573499125     
   8.2500000000000004E-002    0.28102872515190036     
   8.2799999999999999E-002   -0.33568492407749151     
   8.3100000000000007E-002   -0.93162472500457838     
   8.3400000000000002E-002    -1.4703634041958225     
   8.3700000000000011E-002    -1.9189105586865693     
   8.4000000000000005E-002    -2.2503412383838679     
   8.4300000000000000E-002    -2.4459017730669643     
   8.4599999999999995E-002    -2.4968846520470862     
   8.4900000000000003E-002    -2.4050203493571516     
   8.5199999999999998E-002    -2.1824701354002087     
   8.5500000000000007E-002    -1.8505593274635075     
   8.5800000000000001E-002    -1.4381966927362591     
   8.6100000000000010E-002   -0.97946016363556110     
   8.6399999999999991E-002   -0.51053568745724220     
   8.6699999999999999E-002    -6.6961636736667884E-002
   8.7000000000000008E-002    0.31925950447342633     
   8.7300000000000003E-002    0.62181534987881193     
   8.7599999999999997E-002    0.82149512122315116     
   8.7900000000000006E-002    0.90758240685282132     
   8.8200000000000014E-002    0.87825267912070970     
   8.8499999999999995E-002    0.73997881266638466     
   8.8800000000000004E-002    0.50639834336539724     
   8.9100000000000013E-002    0.19709169012253369     
   8.9399999999999993E-002   -0.16365785798541088     
   8.9700000000000002E-002   -0.54874747108264188     
   9.0000000000000011E-002   -0.93026436404668544     
   9.0299999999999991E-002    -1.2809134109492675     
   9.0600000000000000E-002    -1.5753661894337867     
   9.0900000000000009E-002    -1.7915042858817145     
   9.1200000000000017E-002    -1.9116743014069328     
   9.1499999999999998E-002    -1.9241311385831352     
   9.1800000000000007E-002    -1.8231348908701506     
   9.2100000000000001E-002    -1.6098889684112443     
   9.2399999999999996E-002    -1.2927230674072288     
   9.2700000000000005E-002   -0.88700477426000557     
   9.3000000000000013E-002   -0.41518134369638737     
   9.3300000000000008E-002     9.4900476591803340E-002
   9.3600000000000003E-002    0.61089092924637534     
   9.3899999999999997E-002     1.0978065962232080     
   9.4200000000000006E-002     1.5203386408106283     
   9.4500000000000001E-002     1.8449354091887855     
   9.4800000000000009E-002     2.0426869350240260     
   9.5100000000000004E-002     2.0915897541455948     
   9.5399999999999999E-002     1.9783924467662977     
   9.5699999999999993E-002     1.7000346882639938     
   9.6000000000000002E-002     1.2645897553354786     
   9.6300000000000011E-002    0.69158104181893520     
   9.6600000000000005E-002     1.1052321831327205E-002
   9.6900000000000000E-002   -0.73778425495213718     
   9.7200000000000009E-002    -1.5090335292366603     
   9.7499999999999989E-002    -2.2524651225017820     
   9.7799999999999998E-002    -2.9161570892953819     
   9.8100000000000007E-002    -3.4503056657444660     
   9.8400000000000015E-002    -3.8103037586561612     
   9.8699999999999996E-002    -3.9595830450784320     
   9.9000000000000005E-002    -3.8722512761822898     
   9.9300000000000013E-002    -3.5351085027285807     
   9.9599999999999994E-002    -2.9490524141595316     
   9.9900000000000003E-002    -2.1299467634912617     
  0.10020000000000001         -1.1080996916890413     
  0.10049999999999999          7.3026764237702935E-002
  0.10080000000000000          1.3588193929530732     
  0.10110000000000001          2.6861543022818921     
  0.10140000000000000          3.9870450798921553     
  0.10170000000000000          5.1930412907975949     
  0.10200000000000001          6.2393506109312966     
  0.10230000000000002          7.0695087268490227     
  0.10260000000000000          7.6386495428064052     
  0.10290000000000001          7.9171400386643143     
  0.10320000000000000          7.8928033542335356     
  0.10350000000000001          7.5720595974863443     
  0.10380000000000000          6.9792477854135626     
  0.10410000000000001          6.1549850267957282     
  0.10440000000000001          5.1525987836532678     
  0.10470000000000000          4.0348229348705225     
  0.10500000000000000          2.8688164093900168     
  0.10530000000000000          1.7200962089001308     
  0.10560000000000000         0.64815169625642710     
  0.10590000000000001        -0.29751912899601507     
  0.10620000000000000         -1.0808151985065741     
  0.10650000000000001         -1.6819127698536960     
  0.10679999999999999         -2.0966487798730853     
  0.10710000000000000         -2.3359635739909379     
  0.10740000000000001         -2.4233203569986301     
  0.10770000000000000         -2.3918880314079161     
  0.10800000000000000         -2.2801846877804479     
  0.10830000000000001         -2.1279933437167955     
  0.10859999999999999         -1.9727748503374798     
  0.10890000000000000         -1.8456946563050423     
  0.10920000000000001         -1.7707432488454273     
  0.10950000000000001         -1.7631561265642119     
  0.10979999999999999         -1.8295554919756967     
  0.11009999999999999         -1.9692480034377908     
  0.11040000000000001         -2.1753958105104658     
  0.11070000000000001         -2.4377630962443391     
  0.11100000000000000         -2.7447522543323259     
  0.11130000000000000         -3.0852023793522392     
  0.11160000000000002         -3.4483322204226710     
  0.11190000000000001         -3.8240424072995438     
  0.11220000000000001         -4.2034378835065809     
  0.11250000000000000         -4.5770004218432803     
  0.11280000000000000         -4.9331670210979439     
  0.11309999999999999         -5.2568456766931320     
  0.11340000000000001         -5.5290795100298453     
  0.11369999999999998         -5.7280220497218863     
  0.11400000000000000         -5.8289564576115822     
  0.11430000000000000         -5.8061582467932737     
  0.11460000000000002         -5.6360765151039232     
  0.11489999999999999         -5.3010402175948741     
  0.11520000000000001         -4.7921163339601947     
  0.11550000000000001         -4.1111546232693748     
  0.11580000000000000         -3.2728306724996998     
  0.11609999999999999         -2.3045571047829014     
  0.11640000000000002         -1.2471567162762156     
  0.11670000000000001        -0.15027905031762145     
  0.11700000000000001         0.93111902250476852     
  0.11730000000000000          1.9410495051344085     
  0.11760000000000000          2.8260153169461546     
  0.11789999999999999          3.5407143577480582     
  0.11820000000000001          4.0533369882264196     
  0.11850000000000001          4.3466449301702852     
  0.11880000000000000          4.4187816438968213     
  0.11910000000000000          4.2829284936526335     
  0.11940000000000002          3.9677933707671684     
  0.11970000000000001          3.5134868612814643     
  0.12000000000000001          2.9676746058334729     
  0.12030000000000000          2.3814990935236935     
  0.12060000000000000          1.8055872407498690     
  0.12089999999999999          1.2878025355532010     
  0.12119999999999999         0.86899871533530870     
  0.12150000000000001         0.58031787745016317     
  0.12180000000000001         0.44166512625867149     
  0.12210000000000000         0.46244362041483633     
  0.12239999999999999         0.64112168493827681     
  0.12270000000000002         0.96521737910746452     
  0.12300000000000001          1.4130396676874426     
  0.12330000000000001          1.9556841250958854     
  0.12360000000000000          2.5592406541946673     
  0.12390000000000000          3.1857586981012247     
  0.12419999999999999          3.7956190654107331     
  0.12450000000000001          4.3491237485420982     
  0.12480000000000001          4.8085987572110582     
  0.12509999999999999          5.1384266135925714     
  0.12540000000000001          5.3064840653611469     
  0.12570000000000003          5.2849582646478908     
  0.12600000000000000          5.0512764334033875     
  0.12630000000000002          4.5888363688275504     
  0.12659999999999999          3.8878689595057665     
  0.12690000000000001          2.9479290077454863     
  0.12719999999999998          1.7795034700165644     
  0.12750000000000000         0.40760446705530029     
  0.12780000000000002         -1.1274460662269936     
  0.12809999999999999         -2.7663990878953655     
  0.12840000000000001         -4.4306004237473644     
  0.12869999999999998         -6.0224653554894587     
  0.12900000000000000         -7.4284137103038574     
  0.12930000000000003         -8.5245704022185578     
  0.12959999999999999         -9.1851472916557810     
  0.12990000000000002         -9.2933891403714313     
  0.13019999999999998         -8.7544692376318949     
  0.13050000000000000         -7.5085488272333691     
  0.13080000000000003         -5.5433149548586016     
  0.13109999999999999         -2.9042599990883673     
  0.13140000000000002         0.29937953179234000     
  0.13169999999999998          3.8948392360140573     
  0.13200000000000001          7.6528634515568115     
  0.13229999999999997          11.299834352173974     
  0.13260000000000000          14.537307147320234     
  0.13290000000000002          17.066579824326730     
  0.13319999999999999          18.616244572825309     
  0.13350000000000001          18.968698257880874     
  0.13380000000000003          17.984208095601275     
  0.13410000000000000          15.620563337951239     
  0.13440000000000002          11.943789368105911     
  0.13469999999999999          7.1289200140205367     
  0.13500000000000001          1.4512577871459484     
  0.13529999999999998         -4.7315284522896732     
  0.13560000000000000         -11.007239728650944     
  0.13590000000000002         -16.942245212403350     
  0.13619999999999999         -22.116214691195978     
  0.13650000000000001         -26.156748335700115     
  0.13680000000000003         -28.769400575282418     
  0.13710000000000000         -29.761382107223838     
  0.13740000000000002         -29.055531215538394     
  0.13769999999999999         -26.693831324143446     
  0.13800000000000001         -22.830133659648709     
  0.13829999999999998         -17.713914989304385     
  0.13860000000000000         -11.669292921171063     
  0.13890000000000002         -5.0672475555216465     
  0.13919999999999999          1.7044339395322936     
  0.13950000000000001          8.2691455908310019     
  0.13979999999999998          14.283690632488174     
  0.14010000000000000          19.458454105856049     
  0.14040000000000002          23.568847347784867     
  0.14069999999999999          26.464942326590005     
  0.14100000000000001          28.069542311659632     
  0.14130000000000004          28.373221790926991     
  0.14160000000000000          27.427106556267859     
  0.14189999999999997          25.334564527291491     
  0.14219999999999999          22.238918889272441     
  0.14250000000000002          18.311177622408763     
  0.14279999999999998          13.741069272460891     
  0.14310000000000000          8.7284537243024829     
  0.14339999999999997          3.4762776365506056     
  0.14369999999999999         -1.8181580586846167     
  0.14400000000000002         -6.9664478983804798     
  0.14429999999999998         -11.793682312452972     
  0.14460000000000001         -16.144160850110552     
  0.14490000000000003         -19.882425471849274     
  0.14520000000000000         -22.897053358103790     
  0.14550000000000002         -25.103246615314902     
  0.14579999999999999         -26.446764833952670     
  0.14610000000000001         -26.903432084040446     
  0.14640000000000003         -26.479470654581235     
  0.14670000000000000         -25.210141069770124     
  0.14699999999999996         -23.160288570500441     
  0.14729999999999999         -20.422465109477059     
  0.14760000000000001         -17.110418042116919     
  0.14789999999999998         -13.352421358872107     
  0.14820000000000000         -9.2875549505196773     