  -1.4999999999999999E-002     0.0000000000000000     
  -1.4700000000000000E-002     0.0000000000000000     
  -1.4400000000000000E-002     0.0000000000000000     
  -1.4100000000000000E-002     0.0000000000000000     
  -1.3800000000000000E-002     0.0000000000000000     
  -1.3500000000000000E-002     0.0000000000000000     
  -1.3200000000000000E-002     0.0000000000000000     
  -1.2899999999999998E-002     0.0000000000000000     
  -1.2600000000000000E-002     0.0000000000000000     
  -1.2299999999999998E-002     0.0000000000000000     
  -1.2000000000000000E-002     0.0000000000000000     
  -1.1699999999999999E-002     0.0000000000000000     
  -1.1399999999999999E-002     0.0000000000000000     
  -1.1099999999999999E-002     0.0000000000000000     
  -1.0799999999999999E-002     0.0000000000000000     
  -1.0499999999999999E-002     0.0000000000000000     
  -1.0199999999999999E-002     0.0000000000000000     
  -9.8999999999999991E-003     0.0000000000000000     
  -9.5999999999999992E-003     0.0000000000000000     
  -9.2999999999999992E-003     0.0000000000000000     
  -8.9999999999999993E-003     0.0000000000000000     
  -8.6999999999999994E-003     0.0000000000000000     
  -8.3999999999999995E-003     0.0000000000000000     
  -8.0999999999999996E-003     0.0000000000000000     
  -7.7999999999999988E-003     0.0000000000000000     
  -7.4999999999999997E-003     0.0000000000000000     
  -7.1999999999999998E-003     0.0000000000000000     
  -6.8999999999999981E-003     0.0000000000000000     
  -6.5999999999999982E-003     0.0000000000000000     
  -6.3000000000000000E-003     0.0000000000000000     
  -6.0000000000000001E-003     0.0000000000000000     
  -5.6999999999999985E-003     0.0000000000000000     
  -5.3999999999999986E-003     0.0000000000000000     
  -5.1000000000000004E-003     0.0000000000000000     
  -4.7999999999999987E-003     0.0000000000000000     
  -4.5000000000000005E-003     0.0000000000000000     
  -4.1999999999999989E-003     0.0000000000000000     
  -3.8999999999999990E-003     0.0000000000000000     
  -3.5999999999999990E-003     0.0000000000000000     
  -3.2999999999999991E-003     0.0000000000000000     
  -2.9999999999999992E-003     0.0000000000000000     
  -2.6999999999999993E-003     0.0000000000000000     
  -2.3999999999999994E-003     0.0000000000000000     
  -2.0999999999999977E-003     0.0000000000000000     
  -1.7999999999999995E-003     0.0000000000000000     
  -1.4999999999999979E-003     0.0000000000000000     
  -1.1999999999999997E-003     0.0000000000000000     
  -8.9999999999999976E-004     0.0000000000000000     
  -5.9999999999999810E-004     0.0000000000000000     
  -2.9999999999999992E-004     0.0000000000000000     
   0.0000000000000000          0.0000000000000000     
   3.0000000000000165E-004     0.0000000000000000     
   5.9999999999999984E-004     0.0000000000000000     
   9.0000000000000149E-004     0.0000000000000000     
   1.2000000000000031E-003     0.0000000000000000     
   1.5000000000000013E-003     0.0000000000000000     
   1.8000000000000030E-003     0.0000000000000000     
   2.1000000000000012E-003     0.0000000000000000     
   2.3999999999999994E-003     0.0000000000000000     
   2.7000000000000010E-003     0.0000000000000000     
   2.9999999999999992E-003     0.0000000000000000     
   3.3000000000000008E-003     0.0000000000000000     
   3.6000000000000025E-003     0.0000000000000000     
   3.9000000000000007E-003     0.0000000000000000     
   4.2000000000000023E-003     0.0000000000000000     
   4.5000000000000005E-003     0.0000000000000000     
   4.7999999999999987E-003     0.0000000000000000     
   5.1000000000000004E-003     0.0000000000000000     
   5.4000000000000020E-003     0.0000000000000000     
   5.7000000000000037E-003     0.0000000000000000     
   5.9999999999999984E-003     0.0000000000000000     
   6.3000000000000000E-003     0.0000000000000000     
   6.6000000000000017E-003     0.0000000000000000     
   6.9000000000000034E-003     0.0000000000000000     
   7.2000000000000015E-003     0.0000000000000000     
   7.5000000000000032E-003     0.0000000000000000     
   7.8000000000000014E-003     0.0000000000000000     
   8.0999999999999996E-003     0.0000000000000000     
   8.4000000000000012E-003     0.0000000000000000     
   8.7000000000000029E-003     0.0000000000000000     
   9.0000000000000011E-003     0.0000000000000000     
   9.2999999999999992E-003     0.0000000000000000     
   9.6000000000000009E-003     0.0000000000000000     
   9.8999999999999991E-003     0.0000000000000000     
   1.0200000000000001E-002     2.7151005531864247E-038
   1.0500000000000002E-002     6.5534413177201574E-037
   1.0800000000000004E-002    -1.6273903484799804E-036
   1.1099999999999999E-002    -3.6559728957116645E-036
   1.1400000000000000E-002     1.2893802202987049E-035
   1.1700000000000002E-002    -7.3208139156465559E-035
   1.2000000000000004E-002     2.3081493469426963E-034
   1.2300000000000002E-002    -5.6296674724181281E-034
   1.2600000000000000E-002     7.2401851147640977E-034
   1.2900000000000002E-002    -3.7803333329389057E-034
   1.3200000000000000E-002    -3.5223640217114307E-034
   1.3500000000000002E-002    -3.7143277642367759E-034
   1.3800000000000003E-002     5.9434683139678160E-033
   1.4100000000000001E-002    -1.2952609873596472E-032
   1.4400000000000000E-002     6.2745817131259351E-033
   1.4700000000000001E-002     2.8574907607892815E-032
   1.4999999999999999E-002    -7.1106301544643734E-032
   1.5300000000000001E-002     3.7664194454746815E-032
   1.5600000000000003E-002     1.5318588689644219E-031
   1.5899999999999997E-002    -3.8931965105509657E-031
   1.6199999999999999E-002     2.5499894400998826E-031
   1.6500000000000001E-002     6.1886001464567207E-031
   1.6800000000000002E-002    -1.7385412613655203E-030
   1.7100000000000004E-002     1.3866263977331339E-030
   1.7400000000000006E-002     1.9460495084008888E-030
   1.7700000000000000E-002    -6.6394949240743722E-030
   1.8000000000000002E-002     6.9073958455087666E-030
   1.8300000000000004E-002     2.8694358602680364E-030
   1.8600000000000005E-002    -2.0668969853799617E-029
   1.8900000000000000E-002     3.3080906626877039E-029
   1.9200000000000002E-002    -1.7434603057776294E-029
   1.9500000000000003E-002    -4.9991767420434576E-029
   1.9799999999999998E-002     1.6061232859425846E-028
   2.0100000000000000E-002    -1.9652256987313938E-028
   2.0400000000000001E-002    -9.1552164573215277E-029
   2.0700000000000003E-002     7.8601789813120812E-028
   2.0999999999999998E-002    -1.1718843854290898E-027
   2.1299999999999999E-002    -2.4624177486004073E-028
   2.1600000000000001E-002     3.6487546509950171E-027
   2.1900000000000003E-002    -4.9183521790367336E-027
   2.2200000000000004E-002    -2.3592347288490810E-027
   2.2500000000000006E-002     1.5871920367841201E-026
   2.2800000000000001E-002    -1.5833763833350030E-026
   2.3100000000000002E-002    -1.7457152210743083E-026
   2.3400000000000004E-002     6.3877790274723598E-026
   2.3699999999999999E-002    -6.7977110276392531E-026
   2.4000000000000000E-002     1.1597662493259397E-026
   2.4300000000000002E-002     2.0248548679652512E-025
   2.4599999999999997E-002    -1.2794307413342395E-024
   2.4900000000000005E-002     3.6232873273612049E-024
   2.5200000000000000E-002    -1.3219134906949572E-026
   2.5499999999999995E-002    -3.2070633210603009E-023
   2.5800000000000003E-002     8.5599445977290477E-023
   2.6099999999999998E-002     3.3204245077856234E-023
   2.6400000000000007E-002    -6.9357351218470774E-022
   2.6700000000000002E-002     1.2430223751837818E-021
   2.6999999999999996E-002     2.5207309213041110E-021
   2.7300000000000005E-002    -1.5855742173580267E-020
   2.7600000000000000E-002     2.3995312855385790E-020
   2.7900000000000008E-002     3.7630040742654397E-020
   2.8200000000000003E-002    -2.3147147903687649E-019
   2.8499999999999998E-002     3.7294595855412437E-019
   2.8800000000000006E-002     1.5429084159910816E-019
   2.9100000000000001E-002    -1.4848692182368089E-018
   2.9400000000000003E-002     4.6785574535421792E-019
   2.9700000000000004E-002     9.7098620006655809E-018
   3.0000000000000006E-002    -1.9668665321022632E-017
   3.0300000000000001E-002    -5.8278453027656945E-017
   3.0600000000000002E-002     4.1401711295793740E-016
   3.0900000000000004E-002    -8.9380200551608787E-016
   3.1199999999999999E-002    -4.6563335516150332E-016
   3.1500000000000007E-002     8.0285470480288634E-015
   3.1800000000000002E-002    -1.9877395332369271E-014
   3.2099999999999997E-002     4.0743425056013157E-015
   3.2400000000000005E-002     1.0016797053017770E-013
   3.2700000000000000E-002    -2.4890668461141432E-013
   3.3000000000000002E-002     5.7474946725860592E-014
   3.3300000000000003E-002     9.4418775981064737E-013
   3.3599999999999998E-002    -1.8322297608454797E-012
   3.3900000000000000E-002    -6.7829275623715134E-013
   3.4200000000000001E-002     7.1554285735661336E-012
   3.4500000000000003E-002    -4.9213329566814638E-012
   3.4799999999999998E-002    -2.3727294262849132E-011
   3.5099999999999999E-002     4.5916888870393453E-011
   3.5400000000000001E-002     6.5990465015968308E-011
   3.5699999999999996E-002    -3.6128395334950187E-010
   3.6000000000000004E-002     2.9404198825922645E-010
   3.6299999999999999E-002     1.4621480079565620E-009
   3.6600000000000008E-002    -4.5319097623083622E-009
   3.6900000000000002E-002     3.9509402949900244E-010
   3.7199999999999997E-002     2.4345767826772369E-008
   3.7500000000000006E-002    -4.0597197726772562E-008
   3.7800000000000000E-002    -7.5772600072477120E-008
   3.8100000000000009E-002     2.7897179405752811E-007
   3.8400000000000004E-002     1.1416712685521960E-007
   3.8699999999999998E-002    -1.3506389646806983E-006
   3.9000000000000007E-002     6.4568324021735098E-007
   3.9300000000000002E-002     1.2097449534368473E-005
   3.9600000000000003E-002     2.7868061190506883E-005
   3.9900000000000005E-002     3.7796423941412454E-005
   4.0200000000000000E-002     4.3194414458157769E-005
   4.0500000000000001E-002     5.2964275895008191E-005
   4.0800000000000003E-002     7.5143124883168648E-005
   4.1100000000000005E-002     1.1852745888971550E-004
   4.1399999999999999E-002     1.8745436633911278E-004
   4.1700000000000008E-002     2.8336283568092258E-004
   4.2000000000000003E-002     4.1624944353554211E-004
   4.2299999999999997E-002     5.9842467103721209E-004
   4.2600000000000006E-002     8.3888928462821227E-004
   4.2900000000000001E-002     1.1522131676316508E-003
   4.3200000000000002E-002     1.5558448657146257E-003
   4.3500000000000004E-002     2.0591956867615779E-003
   4.3799999999999999E-002     2.6590004842346193E-003
   4.4100000000000000E-002     3.3473433574559286E-003
   4.4400000000000002E-002     4.1156452166462854E-003
   4.4700000000000004E-002     4.9221086170715411E-003
   4.4999999999999998E-002     5.6746641513757967E-003
   4.5300000000000000E-002     6.2519272817286864E-003
   4.5600000000000002E-002     6.4839643101371747E-003
   4.5899999999999996E-002     6.1344469478509245E-003
   4.6200000000000005E-002     4.9252736908882953E-003
   4.6500000000000000E-002     2.5155183004277465E-003
   4.6799999999999994E-002    -1.5083579297958324E-003
   4.7100000000000003E-002    -7.5736482305537312E-003
   4.7399999999999998E-002    -1.6095157657948278E-002
   4.7700000000000006E-002    -2.7472591300796267E-002
   4.8000000000000001E-002    -4.2037099886693019E-002
   4.8300000000000010E-002    -5.9972220489205919E-002
   4.8600000000000004E-002    -8.1258919639919824E-002
   4.8899999999999999E-002   -0.10566247584289812     
   4.9200000000000008E-002   -0.13270787592984590     
   4.9500000000000002E-002   -0.16161634827529525     
   4.9800000000000011E-002   -0.19134803770073194     
   5.0100000000000006E-002   -0.22067306818277999     
   5.0400000000000000E-002   -0.24820270058514105     
   5.0700000000000009E-002   -0.27249298131938282     
   5.1000000000000004E-002   -0.29219345447880407     
   5.1299999999999998E-002   -0.30614866649695927     
   5.1600000000000007E-002   -0.31350364044381074     
   5.1900000000000002E-002   -0.31379168698884996     
   5.2200000000000010E-002   -0.30692939731781799     
   5.2500000000000005E-002   -0.29329815839792062     
   5.2800000000000000E-002   -0.27353197361291226     
   5.3099999999999994E-002   -0.24850850614322884     
   5.3400000000000003E-002   -0.21913650489192094     
   5.3699999999999998E-002   -0.18623963573087199     
   5.4000000000000006E-002   -0.15037992040763459     
   5.4300000000000001E-002   -0.11174223469736644     
   5.4599999999999996E-002    -7.0153823331322862E-002
   5.4900000000000004E-002    -2.5082136223236073E-002
   5.5199999999999999E-002     2.4141116680234331E-002
   5.5499999999999994E-002     7.8357536785455206E-002
   5.5800000000000002E-002    0.13804110936721425     
   5.6099999999999997E-002    0.20332235822141609     
   5.6400000000000006E-002    0.27367967635401591     
   5.6700000000000000E-002    0.34789904630163093     
   5.6999999999999995E-002    0.42410218017552381     
   5.7300000000000004E-002    0.49972705505916792     
   5.7599999999999998E-002    0.57186578456174075     
   5.7900000000000007E-002    0.63738529679081779     
   5.8200000000000002E-002    0.69345526356978482     
   5.8499999999999996E-002    0.73751494735796896     
   5.8800000000000005E-002    0.76771816652117764     
   5.9100000000000000E-002    0.78297411044811227     
   5.9400000000000008E-002    0.78292790052803340     
   5.9700000000000003E-002    0.76794064081641977     
   6.0000000000000012E-002    0.73878154055473999     
   6.0300000000000006E-002    0.69655874094339154     
   6.0600000000000001E-002    0.64247285281108901     
   6.0900000000000010E-002    0.57769965624944852     
   6.1200000000000004E-002    0.50334919077971740     
   6.1500000000000013E-002    0.42059191892840619     
   6.1800000000000008E-002    0.33087731458018510     
   6.2100000000000002E-002    0.23601341701646095     
   6.2399999999999997E-002    0.13846116895826110     
   6.2700000000000006E-002     4.1581306825568820E-002
   6.3000000000000000E-002    -5.0566190951048084E-002
   6.3300000000000009E-002   -0.13291897504218442     
   6.3600000000000004E-002   -0.20035150223211851     
   6.3899999999999998E-002   -0.24762933663289832     
   6.4199999999999993E-002   -0.27040444722442381     
   6.4500000000000002E-002   -0.26549605076066207     
   6.4800000000000010E-002   -0.23187194340412542     
   6.5100000000000005E-002   -0.17095457650785753     
   6.5400000000000000E-002    -8.6602714103922285E-002
   6.5700000000000008E-002     1.4355340760168978E-002
   6.5999999999999989E-002    0.12328535349068037     
   6.6299999999999998E-002    0.22960318105904687     
   6.6600000000000006E-002    0.32216773855473058     
   6.6900000000000001E-002    0.39016664188249983     
   6.7199999999999996E-002    0.42410372970269883     
   6.7500000000000004E-002    0.41666200460904435     
   6.7800000000000013E-002    0.36367040404426643     
   6.8099999999999994E-002    0.26418448964753516     
   6.8400000000000002E-002    0.12099707665498993     
   6.8700000000000011E-002    -5.9980745229275101E-002
   6.8999999999999992E-002   -0.26989328109223099     
   6.9300000000000000E-002   -0.49794643623999768     
   6.9600000000000009E-002   -0.73210567843644725     
   6.9900000000000004E-002   -0.96016941441997261     
   7.0199999999999999E-002    -1.1705506413402844     
   7.0500000000000007E-002    -1.3528754083338512     
   7.0800000000000016E-002    -1.4988550914201326     
   7.1099999999999997E-002    -1.6020094017334898     
   7.1400000000000005E-002    -1.6584272375013356     
   7.1700000000000000E-002    -1.6660005183289925     
   7.1999999999999995E-002    -1.6248508565324684     
   7.2300000000000003E-002    -1.5365897573430942     
   7.2600000000000012E-002    -1.4043021123102761     
   7.2900000000000006E-002    -1.2323369847848120     
   7.3200000000000001E-002    -1.0260256977180617     
   7.3499999999999996E-002   -0.79190523627393894     
   7.3800000000000004E-002   -0.53736220795468892     
   7.4099999999999999E-002   -0.27108600305148745     
   7.4400000000000008E-002    -2.5854217118759237E-003
   7.4700000000000003E-002    0.25735474863667918     
   7.5000000000000011E-002    0.49747022708739941     
   7.5299999999999992E-002    0.70617673645423551     
   7.5600000000000001E-002    0.87213753439904806     
   7.5900000000000009E-002    0.98530850391286862     
   7.6200000000000004E-002     1.0373311137001551     
   7.6499999999999999E-002     1.0229850371464799     
   7.6800000000000007E-002    0.94046414087732444     
   7.7099999999999988E-002    0.79231211421605963     
   7.7399999999999997E-002    0.58563809100075703     
   7.7700000000000005E-002    0.33194788030847810     
   7.8000000000000014E-002     4.6878506976917311E-002
   7.8299999999999995E-002   -0.25092652722865783     
   7.8600000000000003E-002   -0.54066851422579809     
   7.8900000000000012E-002   -0.80130643219846220     
   7.9199999999999993E-002    -1.0128487070645065     
   7.9500000000000001E-002    -1.1581437533028733     
   7.9800000000000010E-002    -1.2243117509499299     
   8.0100000000000018E-002    -1.2038557399100860     
   8.0399999999999999E-002    -1.0953236359785521     
   8.0700000000000008E-002   -0.90379192373382899     
   8.1000000000000003E-002   -0.64029669893676711     
   8.1299999999999997E-002   -0.32113777227774776     
   8.1600000000000006E-002     3.3313956889641005E-002
   8.1900000000000014E-002    0.40025395692484089     
   8.2199999999999995E-002    0.75619662834188262     
   8.2500000000000004E-002     1.0786853370541749     
   8.2799999999999999E-002     1.3482085082992157     
   8.3100000000000007E-002     1.5493008161968262     
   8.3400000000000002E-002     1.6720269736767150     
   8.3700000000000011E-002     1.7121980132654784     
   8.4000000000000005E-002     1.6720708525358461     
   8.4300000000000000E-002     1.5595543652886690     
   8.4599999999999995E-002     1.3877793059896852     
   8.4900000000000003E-002     1.1738742324961464     
   8.5199999999999998E-002    0.93755421485140644     
   8.5500000000000007E-002    0.69970524233377951     
   8.5800000000000001E-002    0.48051312430263238     
   8.6100000000000010E-002    0.29810747300888085     
   8.6399999999999991E-002    0.16710032597594715     
   8.6699999999999999E-002     9.7684535923938665E-002
   8.7000000000000008E-002     9.4461235520082010E-002
   8.7300000000000003E-002    0.15678228802293148     
   8.7599999999999997E-002    0.27824528637856893     
   8.7900000000000006E-002    0.44770947194181154     
   8.8200000000000014E-002    0.64990630748794231     
   8.8499999999999995E-002    0.86681216043284337     
   8.8800000000000004E-002     1.0788352433120281     
   8.9100000000000013E-002     1.2666987808804961     
   8.9399999999999993E-002     1.4125808953167578     
   8.9700000000000002E-002     1.5014952354576891     
   9.0000000000000011E-002     1.5223746282122548     
   9.0299999999999991E-002     1.4687645886627791     
   9.0600000000000000E-002     1.3393905389117187     
   9.0900000000000009E-002     1.1375707287793215     
   9.1200000000000017E-002    0.87171405355430287     
   9.1499999999999998E-002    0.55361713600307993     
   9.1800000000000007E-002    0.19839647876120559     
   9.2100000000000001E-002   -0.17752756007784232     
   9.2399999999999996E-002   -0.55690732387693487     
   9.2700000000000005E-002   -0.92315667691863368     
   9.3000000000000013E-002    -1.2617888284442458     
   9.3300000000000008E-002    -1.5603148798867110     
   9.3600000000000003E-002    -1.8099904273614200     
   9.3899999999999997E-002    -2.0050106738681492     
   9.4200000000000006E-002    -2.1430922232125482     
   9.4500000000000001E-002    -2.2248708119806793     
   9.4800000000000009E-002    -2.2534531772216724     
   9.5100000000000004E-002    -2.2335692463237393     
   9.5399999999999999E-002    -2.1704726980920412     
   9.5699999999999993E-002    -2.0699105918242537     
   9.6000000000000002E-002    -1.9363513730405089     
   9.6300000000000011E-002    -1.7735866866857180     
   9.6600000000000005E-002    -1.5838875900115426     
   9.6900000000000000E-002    -1.3681643064166842     
   9.7200000000000009E-002    -1.1269186151992443     
   9.7499999999999989E-002   -0.85992238212891747     
   9.7799999999999998E-002   -0.56798401614922156     
   9.8100000000000007E-002   -0.25317232599828010     
   9.8400000000000015E-002     8.0088106572548501E-002
   9.8699999999999996E-002    0.42467450774724114     
   9.9000000000000005E-002    0.77050077489582591     
   9.9300000000000013E-002     1.1040534054514168     
   9.9599999999999994E-002     1.4099192325119603     
   9.9900000000000003E-002     1.6703074991870324     
  0.10020000000000001          1.8680237081980877     
  0.10049999999999999          1.9863088161491405     
  0.10080000000000000          2.0115085834075117     
  0.10110000000000001          1.9342229232357511     
  0.10140000000000000          1.7507707030746396     
  0.10170000000000000          1.4643754429331679     
  0.10200000000000001          1.0850823482039758     
  0.10230000000000002         0.63063023967997012     
  0.10260000000000000         0.12459231122462278     
  0.10290000000000001        -0.40368070896128039     
  0.10320000000000000        -0.92177080338053585     
  0.10350000000000001         -1.3956726813196312     
  0.10380000000000000         -1.7924729663306138     
  0.10410000000000001         -2.0827809876582108     
  0.10440000000000001         -2.2424595221658024     
  0.10470000000000000         -2.2554661870613266     
  0.10500000000000000         -2.1140531900485957     
  0.10530000000000000         -1.8209085614485367     
  0.10560000000000000         -1.3884344539695235     
  0.10590000000000001        -0.83892183430089062     
  0.10620000000000000        -0.20326355383951267     
  0.10650000000000001         0.48082760421951054     
  0.10679999999999999          1.1707544719468608     
  0.10710000000000000          1.8217621767262528     
  0.10740000000000001          2.3897402905664649     
  0.10770000000000000          2.8345213145725552     
  0.10800000000000000          3.1218860406367099     
  0.10830000000000001          3.2273217670272487     
  0.10859999999999999          3.1371618010550364     
  0.10890000000000000          2.8505343060379893     
  0.10920000000000001          2.3797299594663173     
  0.10950000000000001          1.7499233954793851     
  0.10979999999999999         0.99764544508443009     
  0.11009999999999999         0.16880325640292426     
  0.11040000000000001        -0.68509833720318092     
  0.11070000000000001         -1.5099901249909706     
  0.11100000000000000         -2.2542722181920283     
  0.11130000000000000         -2.8716343241616045     
  0.11160000000000002         -3.3260326479207833     
  0.11190000000000001         -3.5934093930197974     
  0.11220000000000001         -3.6644354528139473     
  0.11250000000000000         -3.5442894651188084     
  0.11280000000000000         -3.2524367829802756     
  0.11309999999999999         -2.8199314605402961     
  0.11340000000000001         -2.2868891047582949     
  0.11369999999999998         -1.6981835597289585     
  0.11400000000000000         -1.0992109942348520     
  0.11430000000000000        -0.53188171124305939     
  0.11460000000000002         -3.0287866881990588E-002
  0.11489999999999999         0.38129847067783640     
  0.11520000000000001         0.69071620580178461     
  0.11550000000000001         0.89819591593883885     
  0.11580000000000000          1.0152071212715050     
  0.11609999999999999          1.0627508105712735     
  0.11640000000000002          1.0681146800071630     
  0.11670000000000001          1.0613484402864906     
  0.11700000000000001          1.0718776471303464     
  0.11730000000000000          1.1241943968919088     
  0.11760000000000000          1.2359277303269209     
  0.11789999999999999          1.4150813939306843     
  0.11820000000000001          1.6594887948478529     
  0.11850000000000001          1.9564497567346990     
  0.11880000000000000          2.2846256621833447     
  0.11910000000000000          2.6159575294270212     
  0.11940000000000002          2.9184411912439003     
  0.11970000000000001          3.1596377502382040     
  0.12000000000000001          3.3097007841771386     
  0.12030000000000000          3.3449377455169440     
  0.12060000000000000          3.2494153919615272     
  0.12089999999999999          3.0171711058166082     
  0.12119999999999999          2.6525016195772153     
  0.12150000000000001          2.1692905622310539     
  0.12180000000000001          1.5901935478167779     
  0.12210000000000000         0.94325975140765905     
  0.12239999999999999         0.26122553321559039     
  0.12270000000000002        -0.42382518169275585     
  0.12300000000000001         -1.0807841711933364     
  0.12330000000000001         -1.6841261554675739     
  0.12360000000000000         -2.2137002948113889     
  0.12390000000000000         -2.6567519071260079     
  0.12419999999999999         -3.0082273247890186     
  0.12450000000000001         -3.2690536637360026     
  0.12480000000000001         -3.4460684214980120     
  0.12509999999999999         -3.5492940787595728     
  0.12540000000000001         -3.5909792294184939     
  0.12570000000000003         -3.5833666510313975     
  0.12600000000000000         -3.5375629588079818     
  0.12630000000000002         -3.4624498940624733     
  0.12659999999999999         -3.3645400945393931     
  0.12690000000000001         -3.2478637482914934     
  0.12719999999999998         -3.1141780670793793     
  0.12750000000000000         -2.9642798221750013     
  0.12780000000000002         -2.7981498899065969     
  0.12809999999999999         -2.6161917110765955     
  0.12840000000000001         -2.4194456007628204     
  0.12869999999999998         -2.2101481003657426     
  0.12900000000000000         -1.9911393961610884     
  0.12930000000000003         -1.7663808841286510     
  0.12959999999999999         -1.5393279408470111     
  0.12990000000000002         -1.3137109111161061     
  0.13019999999999998         -1.0912235698139789     
  0.13050000000000000        -0.87301447463323356     
  0.13080000000000003        -0.65795391067700848     
  0.13109999999999999        -0.44304297307237661     
  0.13140000000000002        -0.22401151926429641     
  0.13169999999999998          4.6589933805414319E-003
  0.13200000000000001         0.24869760340786184     
  0.13229999999999997         0.51435108816795605     
  0.13260000000000000         0.80511804911378704     
  0.13290000000000002          1.1246045638879636     
  0.13319999999999999          1.4723637992488960     
  0.13350000000000001          1.8461885594999998     
  0.13380000000000003          2.2401217216961982     
  0.13410000000000000          2.6449700730096453     
  0.13440000000000002          3.0493827164269334     
  0.13469999999999999          3.4388875814289008     
  0.13500000000000001          3.7988330019069139     
  0.13529999999999998          4.1130153660370183     
  0.13560000000000000          4.3672145008686130     
  0.13590000000000002          4.5481590434236523     
  0.13619999999999999          4.6463741149761404     
  0.13650000000000001          4.6556783123650405     
  0.13680000000000003          4.5749521041091725     
  0.13710000000000000          4.4076521445737171     
  0.13740000000000002          4.1616553528213842     
  0.13769999999999999          3.8491799455505316     
  0.13800000000000001          3.4856648409458728     
  0.13829999999999998          3.0886478399047519     
  0.13860000000000000          2.6766431309243330     
  0.13890000000000002          2.2679642711600110     
  0.13919999999999999          1.8795446989901166     
  0.13950000000000001          1.5246716194403618     
  0.13979999999999998          1.2143896677825818     
  0.14010000000000000         0.95476969101830012     
  0.14040000000000002         0.74763353597723370     
  0.14069999999999999         0.59078769162965505     
  0.14100000000000001         0.47751542153258875     
  0.14130000000000004         0.39825235301983675     
  0.14160000000000000         0.33961856659214984     
  0.14189999999999997         0.28845899732172597     
  0.14219999999999999         0.22886538951610547     
  0.14250000000000002         0.14810929676892837     
  0.14279999999999998          3.3122837089824664E-002
  0.14310000000000000        -0.12447301201599603     
  0.14339999999999997        -0.33029787254464527     
  0.14369999999999999        -0.58500691521957826     
  0.14400000000000002        -0.88383634984804615     
  0.14429999999999998         -1.2184829427198807     
  0.14460000000000001         -1.5744569854319792     
  0.14490000000000003         -1.9357964609513445     
  0.14520000000000000         -2.2825000773759143     
  0.14550000000000002         -2.5955121986505674     
  0.14579999999999999         -2.8566296587959954     
  0.14610000000000001         -3.0511187068775598     
  0.14640000000000003         -3.1697414047741717     
  0.14670000000000000         -3.2104515005631669     
  0.14699999999999996         -3.1786746684556419     
  0.14729999999999999         -3.0885527333315252     
  0.14760000000000001         -2.9614860385087809     
  0.14789999999999998         -2.8244473413297442     
  0.14820000000000000         -2.7070142699111983     