  -1.4999999999999999E-002     0.0000000000000000     
  -1.4700000000000000E-002     0.0000000000000000     
  -1.4400000000000000E-002     0.0000000000000000     
  -1.4100000000000000E-002     0.0000000000000000     
  -1.3800000000000000E-002     0.0000000000000000     
  -1.3500000000000000E-002     0.0000000000000000     
  -1.3200000000000000E-002     0.0000000000000000     
  -1.2899999999999998E-002     0.0000000000000000     
  -1.2600000000000000E-002     0.0000000000000000     
  -1.2299999999999998E-002     0.0000000000000000     
  -1.2000000000000000E-002     0.0000000000000000     
  -1.1699999999999999E-002     0.0000000000000000     
  -1.1399999999999999E-002     0.0000000000000000     
  -1.1099999999999999E-002     0.0000000000000000     
  -1.0799999999999999E-002     0.0000000000000000     
  -1.0499999999999999E-002     0.0000000000000000     
  -1.0199999999999999E-002     0.0000000000000000     
  -9.8999999999999991E-003     0.0000000000000000     
  -9.5999999999999992E-003     0.0000000000000000     
  -9.2999999999999992E-003     0.0000000000000000     
  -8.9999999999999993E-003     0.0000000000000000     
  -8.6999999999999994E-003     0.0000000000000000     
  -8.3999999999999995E-003     0.0000000000000000     
  -8.0999999999999996E-003     0.0000000000000000     
  -7.7999999999999988E-003     0.0000000000000000     
  -7.4999999999999997E-003     0.0000000000000000     
  -7.1999999999999998E-003     0.0000000000000000     
  -6.8999999999999981E-003     0.0000000000000000     
  -6.5999999999999982E-003     0.0000000000000000     
  -6.3000000000000000E-003     0.0000000000000000     
  -6.0000000000000001E-003     0.0000000000000000     
  -5.6999999999999985E-003     0.0000000000000000     
  -5.3999999999999986E-003     0.0000000000000000     
  -5.1000000000000004E-003     0.0000000000000000     
  -4.7999999999999987E-003     0.0000000000000000     
  -4.5000000000000005E-003     0.0000000000000000     
  -4.1999999999999989E-003     0.0000000000000000     
  -3.8999999999999990E-003     0.0000000000000000     
  -3.5999999999999990E-003     0.0000000000000000     
  -3.2999999999999991E-003     0.0000000000000000     
  -2.9999999999999992E-003     0.0000000000000000     
  -2.6999999999999993E-003     0.0000000000000000     
  -2.3999999999999994E-003     0.0000000000000000     
  -2.0999999999999977E-003     0.0000000000000000     
  -1.7999999999999995E-003     0.0000000000000000     
  -1.4999999999999979E-003     0.0000000000000000     
  -1.1999999999999997E-003     0.0000000000000000     
  -8.9999999999999976E-004     0.0000000000000000     
  -5.9999999999999810E-004     0.0000000000000000     
  -2.9999999999999992E-004     0.0000000000000000     
   0.0000000000000000          0.0000000000000000     
   3.0000000000000165E-004     0.0000000000000000     
   5.9999999999999984E-004     0.0000000000000000     
   9.0000000000000149E-004     0.0000000000000000     
   1.2000000000000031E-003     0.0000000000000000     
   1.5000000000000013E-003     0.0000000000000000     
   1.8000000000000030E-003     0.0000000000000000     
   2.1000000000000012E-003     0.0000000000000000     
   2.3999999999999994E-003     0.0000000000000000     
   2.7000000000000010E-003     0.0000000000000000     
   2.9999999999999992E-003     0.0000000000000000     
   3.3000000000000008E-003     0.0000000000000000     
   3.6000000000000025E-003     0.0000000000000000     
   3.9000000000000007E-003     0.0000000000000000     
   4.2000000000000023E-003     0.0000000000000000     
   4.5000000000000005E-003     0.0000000000000000     
   4.7999999999999987E-003     0.0000000000000000     
   5.1000000000000004E-003     0.0000000000000000     
   5.4000000000000020E-003     0.0000000000000000     
   5.7000000000000037E-003     0.0000000000000000     
   5.9999999999999984E-003     0.0000000000000000     
   6.3000000000000000E-003     0.0000000000000000     
   6.6000000000000017E-003     0.0000000000000000     
   6.9000000000000034E-003     0.0000000000000000     
   7.2000000000000015E-003     0.0000000000000000     
   7.5000000000000032E-003     0.0000000000000000     
   7.8000000000000014E-003     0.0000000000000000     
   8.0999999999999996E-003     0.0000000000000000     
   8.4000000000000012E-003     0.0000000000000000     
   8.7000000000000029E-003     0.0000000000000000     
   9.0000000000000011E-003     0.0000000000000000     
   9.2999999999999992E-003     0.0000000000000000     
   9.6000000000000009E-003     0.0000000000000000     
   9.8999999999999991E-003     0.0000000000000000     
   1.0200000000000001E-002     0.0000000000000000     
   1.0500000000000002E-002     0.0000000000000000     
   1.0800000000000004E-002     0.0000000000000000     
   1.1099999999999999E-002     0.0000000000000000     
   1.1400000000000000E-002     0.0000000000000000     
   1.1700000000000002E-002     0.0000000000000000     
   1.2000000000000004E-002     0.0000000000000000     
   1.2300000000000002E-002     0.0000000000000000     
   1.2600000000000000E-002     0.0000000000000000     
   1.2900000000000002E-002     0.0000000000000000     
   1.3200000000000000E-002     0.0000000000000000     
   1.3500000000000002E-002     0.0000000000000000     
   1.3800000000000003E-002     0.0000000000000000     
   1.4100000000000001E-002     0.0000000000000000     
   1.4400000000000000E-002     0.0000000000000000     
   1.4700000000000001E-002     0.0000000000000000     
   1.4999999999999999E-002     0.0000000000000000     
   1.5300000000000001E-002     0.0000000000000000     
   1.5600000000000003E-002     0.0000000000000000     
   1.5899999999999997E-002     0.0000000000000000     
   1.6199999999999999E-002     0.0000000000000000     
   1.6500000000000001E-002     0.0000000000000000     
   1.6800000000000002E-002    -4.3703158406752094E-037
   1.7100000000000004E-002    -2.5145790869667828E-037
   1.7400000000000006E-002     2.7766305317940638E-036
   1.7700000000000000E-002    -8.2106529790791271E-036
   1.8000000000000002E-002     1.5625632098740805E-035
   1.8300000000000004E-002    -5.6351448493620470E-035
   1.8600000000000005E-002     1.3697073753443167E-034
   1.8900000000000000E-002    -2.1469821783364036E-034
   1.9200000000000002E-002     3.2865425375220934E-034
   1.9500000000000003E-002    -3.4631885645815673E-034
   1.9799999999999998E-002     1.1638519004016401E-034
   2.0100000000000000E-002     6.9867397886293215E-034
   2.0400000000000001E-002    -8.5654278323005087E-034
   2.0700000000000003E-002    -3.1931274334365188E-033
   2.0999999999999998E-002     1.0957315469750520E-032
   2.1299999999999999E-002    -1.4919936255001051E-032
   2.1600000000000001E-002    -3.1224744756032566E-033
   2.1900000000000003E-002     6.1131072213264728E-032
   2.2200000000000004E-002    -1.2867243308546505E-031
   2.2500000000000006E-002     7.9966188424851963E-032
   2.2800000000000001E-002     2.4845247878926997E-031
   2.3100000000000002E-002    -7.9440343096844822E-031
   2.3400000000000004E-002     9.0673603276015579E-031
   2.3699999999999999E-002     5.5789580581624506E-031
   2.4000000000000000E-002    -3.9370755497472814E-030
   2.4300000000000002E-002     6.4988810719595731E-030
   2.4599999999999997E-002    -1.8047206383328309E-030
   2.4900000000000005E-002    -1.5070703446957483E-029
   2.5200000000000000E-002     3.5771748417182139E-029
   2.5499999999999995E-002    -3.0402030570197808E-029
   2.5800000000000003E-002    -3.6920803284361393E-029
   2.6099999999999998E-002     1.5698202896257986E-028
   2.6400000000000007E-002    -2.1810456721150277E-028
   2.6700000000000002E-002     2.5486496095059338E-029
   2.6999999999999996E-002     5.1993772193987206E-028
   2.7300000000000005E-002    -1.1355914354661807E-027
   2.7600000000000000E-002     1.0684244924891883E-027
   2.7900000000000008E-002     4.6158303123320989E-028
   2.8200000000000003E-002    -3.7465758270037755E-027
   2.8499999999999998E-002     8.9980493369286701E-027
   2.8800000000000006E-002    -1.1589009064468531E-026
   2.9100000000000001E-002    -3.4715269184437215E-026
   2.9400000000000003E-002     2.9118345490684039E-025
   2.9700000000000004E-002    -8.7314788812692259E-025
   3.0000000000000006E-002     5.3868083928953314E-025
   3.0300000000000001E-002     6.4820867867981292E-024
   3.0600000000000002E-002    -3.1083870974836808E-023
   3.0900000000000004E-002     6.8120852122377141E-023
   3.1199999999999999E-002    -1.5050298238141442E-023
   3.1500000000000007E-002    -4.9073370410176723E-022
   3.1800000000000002E-002     2.1071122004339896E-021
   3.2099999999999997E-002    -4.5253372977460221E-021
   3.2400000000000005E-002     7.7562773797830934E-022
   3.2700000000000000E-002     3.4470213858699290E-020
   3.3000000000000002E-002    -1.4170337299921867E-019
   3.3300000000000003E-002     2.8107822300645038E-019
   3.3599999999999998E-002    -6.8103794815067604E-020
   3.3900000000000000E-002    -1.3835458745636291E-018
   3.4200000000000001E-002     4.4906617868723834E-018
   3.4500000000000003E-002    -6.5991970973051401E-018
   3.4799999999999998E-002     2.2706200944556629E-018
   3.5099999999999999E-002     3.0966216263103255E-018
   3.5400000000000001E-002     2.7242894991176883E-017
   3.5699999999999996E-002    -1.1833933149439403E-016
   3.6000000000000004E-002     5.4939227811579352E-017
   3.6299999999999999E-002     1.0345240624709326E-015
   3.6600000000000008E-002    -5.0181571142088183E-015
   3.6900000000000002E-002     1.4557645428718391E-014
   3.7199999999999997E-002    -2.9693554213737282E-014
   3.7500000000000006E-002     2.6149423952592966E-014
   3.7800000000000000E-002     1.2393528425100023E-013
   3.8100000000000009E-002    -7.9020542777036955E-013
   3.8400000000000004E-002     2.4256653340857610E-012
   3.8699999999999998E-002    -3.8488161197361190E-012
   3.9000000000000007E-002    -2.5055989515393382E-012
   3.9300000000000002E-002     3.3971272865294611E-011
   3.9600000000000003E-002    -9.7020740052289530E-011
   3.9900000000000005E-002     1.0811268829434007E-010
   4.0200000000000000E-002     1.9899324994901647E-010
   4.0500000000000001E-002    -1.0760551293901757E-009
   4.0800000000000003E-002     1.8067980681082114E-009
   4.1100000000000005E-002     4.8367416030152281E-010
   4.1399999999999999E-002    -8.7405965382724995E-009
   4.1700000000000008E-002     1.5618446678669907E-008
   4.2000000000000003E-002     7.4767267538100827E-009
   4.2299999999999997E-002    -7.7361541228666316E-008
   4.2600000000000006E-002     7.1778703032127726E-008
   4.2900000000000001E-002     2.6352263007477546E-007
   4.3200000000000002E-002    -6.3982887834975614E-007
   4.3500000000000004E-002    -8.4583414340576551E-007
   4.3799999999999999E-002     6.5884791953551886E-006
   4.4100000000000000E-002     2.2537543674777281E-005
   4.4400000000000002E-002     3.5738127230717500E-005
   4.4700000000000004E-002     4.1235556997936632E-005
   4.4999999999999998E-002     4.7627403781362685E-005
   4.5300000000000000E-002     6.4750945098020598E-005
   4.5600000000000002E-002     9.9841883485722333E-005
   4.5899999999999996E-002     1.5645086399091075E-004
   4.6200000000000005E-002     2.4178905923623231E-004
   4.6500000000000000E-002     3.6698040305865876E-004
   4.6799999999999994E-002     5.3371584297812538E-004
   4.7100000000000003E-002     7.4577207407326360E-004
   4.7399999999999998E-002     1.0255667942208682E-003
   4.7700000000000006E-002     1.3962216798451485E-003
   4.8000000000000001E-002     1.8568797234799969E-003
   4.8300000000000010E-002     2.4114670558638140E-003
   4.8600000000000004E-002     3.0763815907080688E-003
   4.8899999999999999E-002     3.8319038133036026E-003
   4.9200000000000008E-002     4.6284632186423535E-003
   4.9500000000000002E-002     5.4066259707422903E-003
   4.9800000000000011E-002     6.0748354168382590E-003
   5.0100000000000006E-002     6.4684790015308580E-003
   5.0400000000000000E-002     6.3746409913770230E-003
   5.0700000000000009E-002     5.5567674539642037E-003
   5.1000000000000004E-002     3.6816176700342276E-003
   5.1299999999999998E-002     3.5415864772064126E-004
   5.1600000000000007E-002    -4.8135072141805013E-003
   5.1900000000000002E-002    -1.2224152576439551E-002
   5.2200000000000010E-002    -2.2297502191106600E-002
   5.2500000000000005E-002    -3.5395816682347592E-002
   5.2800000000000000E-002    -5.1706727169660960E-002
   5.3099999999999994E-002    -7.1243047322911757E-002
   5.3400000000000003E-002    -9.3836639273274347E-002
   5.3699999999999998E-002   -0.11908810682474913     
   5.4000000000000006E-002   -0.14627132482137739     
   5.4300000000000001E-002   -0.17432078944276697     
   5.4599999999999996E-002   -0.20195459837559859     
   5.4900000000000004E-002   -0.22771803709940652     
   5.5199999999999999E-002   -0.25005935556269687     
   5.5499999999999994E-002   -0.26742315847056020     
   5.5800000000000002E-002   -0.27836630649401428     
   5.6099999999999997E-002   -0.28173470965106695     
   5.6400000000000006E-002   -0.27674893943755663     
   5.6700000000000000E-002   -0.26310437898313221     
   5.6999999999999995E-002   -0.24099575794093475     
   5.7300000000000004E-002   -0.21110823275425528     
   5.7599999999999998E-002   -0.17455297768482181     
   5.7900000000000007E-002   -0.13276351658795837     
   5.8200000000000002E-002    -8.7341448549221212E-002
   5.8499999999999996E-002    -3.9928641271436360E-002
   5.8800000000000005E-002     7.8787222032142973E-003
   5.9100000000000000E-002     5.4708993426493047E-002
   5.9400000000000008E-002     9.9441281952127980E-002
   5.9700000000000003E-002    0.14123949111409839     
   6.0000000000000012E-002    0.17944612205604749     
   6.0300000000000006E-002    0.21362155274140626     
   6.0600000000000001E-002    0.24347198084849797     
   6.0900000000000010E-002    0.26868343400732186     
   6.1200000000000004E-002    0.28905841247546249     
   6.1500000000000013E-002    0.30434376125840146     
   6.1800000000000008E-002    0.31454473660231308     
   6.2100000000000002E-002    0.31976072140946066     
   6.2399999999999997E-002    0.32046786237710734     
   6.2700000000000006E-002    0.31754583953372695     
   6.3000000000000000E-002    0.31231713382591231     
   6.3300000000000009E-002    0.30650944178113626     
   6.3600000000000004E-002    0.30212321774369855     
   6.3899999999999998E-002    0.30119209846649397     
   6.4199999999999993E-002    0.30551166278219277     
   6.4500000000000002E-002    0.31634633239547050     
   6.4800000000000010E-002    0.33415121715842133     
   6.5100000000000005E-002    0.35834484016821300     
   6.5400000000000000E-002    0.38724930534173119     
   6.5700000000000008E-002    0.41821998300338947     
   6.5999999999999989E-002    0.44780328758162646     
   6.6299999999999998E-002    0.47216968035651341     
   6.6600000000000006E-002    0.48773699443113117     
   6.6900000000000001E-002    0.49152366827505567     
   6.7199999999999996E-002    0.48175941888903751     
   6.7500000000000004E-002    0.45816477834635627     
   6.7800000000000013E-002    0.42201658817977972     
   6.8099999999999994E-002    0.37628241489177583     
   6.8400000000000002E-002    0.32493215857101898     
   6.8700000000000011E-002    0.27282002720081966     
   6.8999999999999992E-002    0.22447861205151076     
   6.9300000000000000E-002    0.18371893660378191     
   6.9600000000000009E-002    0.15271369897851361     
   6.9900000000000004E-002    0.13176153469648977     
   7.0199999999999999E-002    0.11885197666029113     
   7.0500000000000007E-002    0.10982268343022294     
   7.0800000000000016E-002     9.8914634899589293E-002
   7.1099999999999997E-002     7.9370362124081439E-002
   7.1400000000000005E-002     4.4586605513845967E-002
   7.1700000000000000E-002    -1.0944339325817593E-002
   7.1999999999999995E-002    -9.0711021601722397E-002
   7.2300000000000003E-002   -0.19531018035615411     
   7.2600000000000012E-002   -0.32223605363675922     
   7.2900000000000006E-002   -0.46572986785537651     
   7.3200000000000001E-002   -0.61733700953326576     
   7.3499999999999996E-002   -0.76687445389829634     
   7.3800000000000004E-002   -0.90339999687149231     
   7.4099999999999999E-002    -1.0166602926359971     
   7.4400000000000008E-002    -1.0981291618411149     
   7.4700000000000003E-002    -1.1425653980194639     
   7.5000000000000011E-002    -1.1480198855535022     
   7.5299999999999992E-002    -1.1165385715345266     
   7.5600000000000001E-002    -1.0535355959251831     
   7.5900000000000009E-002   -0.96736487812496819     
   7.6200000000000004E-002   -0.86776465369221611     
   7.6499999999999999E-002   -0.76503436122716550     
   7.6800000000000007E-002   -0.66805285127785297     
   7.7099999999999988E-002   -0.58373716567222544     
   7.7399999999999997E-002   -0.51547947144813477     
   7.7700000000000005E-002   -0.46341217539855784     
   7.8000000000000014E-002   -0.42397100987490255     
   7.8299999999999995E-002   -0.39079388846906760     
   7.8600000000000003E-002   -0.35563253238917625     
   7.8900000000000012E-002   -0.30980514469609499     
   7.9199999999999993E-002   -0.24533052734509875     
   7.9500000000000001E-002   -0.15657804596134373     
   7.9800000000000010E-002    -4.1088829714553743E-002
   8.0100000000000018E-002     9.9633674218519097E-002
   8.0399999999999999E-002    0.26002755876076833     
   8.0700000000000008E-002    0.43064588135903747     
   8.1000000000000003E-002    0.59932359337534180     
   8.1299999999999997E-002    0.75205509553973826     
   8.1600000000000006E-002    0.87474636723157317     
   8.1900000000000014E-002    0.95430876982844026     
   8.2199999999999995E-002    0.98049932875205670     
   8.2500000000000004E-002    0.94688572601544507     
   8.2799999999999999E-002    0.85157881201915231     
   8.3100000000000007E-002    0.69773852482929399     
   8.3400000000000002E-002    0.49296387086793891     
   8.3700000000000011E-002    0.24944235822933436     
   8.4000000000000005E-002    -1.7958575121538756E-002
   8.4300000000000000E-002   -0.29180622411259449     
   8.4599999999999995E-002   -0.55457689896678630     
   8.4900000000000003E-002   -0.78879918751615463     
   8.5199999999999998E-002   -0.97969627707129092     
   8.5500000000000007E-002    -1.1145824410556600     
   8.5800000000000001E-002    -1.1850178954514945     
   8.6100000000000010E-002    -1.1862006402439462     
   8.6399999999999991E-002    -1.1179560829354891     
   8.6699999999999999E-002   -0.98369210259336270     
   8.7000000000000008E-002   -0.79087629443080054     
   8.7300000000000003E-002   -0.54986803658171757     
   8.7599999999999997E-002   -0.27348383320867420     
   8.7900000000000006E-002     2.3733933050430256E-002
   8.8200000000000014E-002    0.32660851310168315     
   8.8499999999999995E-002    0.61948261343724553     
   8.8800000000000004E-002    0.88809906404901895     
   8.9100000000000013E-002     1.1187772745762885     
   8.9399999999999993E-002     1.3006742332084400     
   8.9700000000000002E-002     1.4248377202806566     
   9.0000000000000011E-002     1.4861919890411670     
   9.0299999999999991E-002     1.4822973578357335     
   9.0600000000000000E-002     1.4150635766517183     
   9.0900000000000009E-002     1.2894368907451010     
   9.1200000000000017E-002     1.1143509869159836     
   9.1499999999999998E-002    0.90157431505183894     
   9.1800000000000007E-002    0.66562394648731438     
   9.2100000000000001E-002    0.42267227190066126     
   9.2399999999999996E-002    0.18977056226667699     
   9.2700000000000005E-002    -1.6311626535016277E-002
   9.3000000000000013E-002   -0.18023697875823519     
   9.3300000000000008E-002   -0.28912309305719752     
   9.3600000000000003E-002   -0.33370431871174677     
   9.3899999999999997E-002   -0.30886860926293869     
   9.4200000000000006E-002   -0.21468947367117419     
   9.4500000000000001E-002    -5.5997056144822199E-002
   9.4800000000000009E-002    0.15710099344255424     
   9.5100000000000004E-002    0.41045819309102605     
   9.5399999999999999E-002    0.68624555754866989     
   9.5699999999999993E-002    0.96435221481047151     
   9.6000000000000002E-002     1.2239364257057375     
   9.6300000000000011E-002     1.4445358912207809     
   9.6600000000000005E-002     1.6078431515395764     
   9.6900000000000000E-002     1.6988463072626487     
   9.7200000000000009E-002     1.7070553920532703     
   9.7499999999999989E-002     1.6269861111660546     
   9.7799999999999998E-002     1.4587190757135211     
   9.8100000000000007E-002     1.2078806425071456     
   9.8400000000000015E-002    0.88508911112026301     
   9.8699999999999996E-002    0.50515611607490740     
   9.9000000000000005E-002     8.6269668974003899E-002
   9.9300000000000013E-002   -0.35153521377708508     
   9.9599999999999994E-002   -0.78737399189435564     
   9.9900000000000003E-002    -1.2009586229253841     
  0.10020000000000001         -1.5737517552720846     
  0.10049999999999999         -1.8896841735907657     
  0.10080000000000000         -2.1364634682233117     
  0.10110000000000001         -2.3053975842536829     
  0.10140000000000000         -2.3921117232099931     
  0.10170000000000000         -2.3964629013001684     
  0.10200000000000001         -2.3220505382118901     
  0.10230000000000002         -2.1763748618376724     
  0.10260000000000000         -1.9695682744890632     
  0.10290000000000001         -1.7145863183737831     
  0.10320000000000000         -1.4257180599421453     
  0.10350000000000001         -1.1182766745396329     
  0.10380000000000000        -0.80784261827007420     
  0.10410000000000001        -0.50930870713405785     
  0.10440000000000001        -0.23611902492547365     
  0.10470000000000000         -1.8529010886880748E-004
  0.10500000000000000         0.18965037656727191     
  0.10530000000000000         0.32694409781810663     
  0.10560000000000000         0.40889450879831557     
  0.10590000000000001         0.43568778483315462     
  0.10620000000000000         0.41090040917404291     
  0.10650000000000001         0.34130751209468824     
  0.10679999999999999         0.23569864638993199     
  0.10710000000000000         0.10591289458886255     
  0.10740000000000001         -3.5736994835821934E-002
  0.10770000000000000        -0.17506423280861494     
  0.10800000000000000        -0.29881936174783519     
  0.10830000000000001        -0.39325192885682902     
  0.10859999999999999        -0.44685238328455235     
  0.10890000000000000        -0.44922015816518313     
  0.10920000000000001        -0.39319715642320396     
  0.10950000000000001        -0.27417499560432823     
  0.10979999999999999         -9.1870586312881031E-002
  0.11009999999999999         0.15059460689220905     
  0.11040000000000001         0.44505626482161453     
  0.11070000000000001         0.77958956393547396     
  0.11100000000000000          1.1375984583670586     
  0.11130000000000000          1.4990537203039906     
  0.11160000000000002          1.8412691382029109     
  0.11190000000000001          2.1394793217491355     
  0.11220000000000001          2.3697054307067447     
  0.11250000000000000          2.5087555352451432     
  0.11280000000000000          2.5378769913998127     
  0.11309999999999999          2.4430739968708011     
  0.11340000000000001          2.2176693615830558     
  0.11369999999999998          1.8629237540082784     
  0.11400000000000000          1.3887616356305728     
  0.11430000000000000         0.81384364500242867     
  0.11460000000000002         0.16443525219323796     
  0.11489999999999999        -0.52675983653129066     
  0.11520000000000001         -1.2230925254817429     
  0.11550000000000001         -1.8862178777920420     
  0.11580000000000000         -2.4790822813399274     
  0.11609999999999999         -2.9683540113412761     
  0.11640000000000002         -3.3276435706238061     
  0.11670000000000001         -3.5379248114535500     
  0.11700000000000001         -3.5908289939153377     
  0.11730000000000000         -3.4867873102142539     
  0.11760000000000000         -3.2365831165150354     
  0.11789999999999999         -2.8584854706037568     
  0.11820000000000001         -2.3778704831400539     
  0.11850000000000001         -1.8239195355312443     
  0.11880000000000000         -1.2280742376171716     
  0.11910000000000000        -0.62088650630669662     
  0.11940000000000002         -3.1089156130335027E-002
  0.11970000000000001         0.51746708738132341     
  0.12000000000000001          1.0051693373735517     
  0.12030000000000000          1.4187985689205149     
  0.12060000000000000          1.7501190368631825     
  0.12089999999999999          1.9965366008994394     
  0.12119999999999999          2.1597427234854791     
  0.12150000000000001          2.2450407322173334     
  0.12180000000000001          2.2603777948108430     
  0.12210000000000000          2.2153091988123776     
  0.12239999999999999          2.1205957283261583     
  0.12270000000000002          1.9871310916869547     
  0.12300000000000001          1.8257065796626861     
  0.12330000000000001          1.6466776506751906     
  0.12360000000000000          1.4592370186616606     
  0.12390000000000000          1.2714843502897217     
  0.12419999999999999          1.0905098047827835     
  0.12450000000000001         0.92146281915260975     
  0.12480000000000001         0.76831704302835702     
  0.12509999999999999         0.63274094169647332     
  0.12540000000000001         0.51579902698112567     
  0.12570000000000003         0.41587507833017234     
  0.12600000000000000         0.33139887042297111     
  0.12630000000000002         0.25863872594537973     
  0.12659999999999999         0.19442438076775481     
  0.12690000000000001         0.13462634171524623     
  0.12719999999999998          7.5787757369297104E-002
  0.12750000000000000          1.4530743904006549E-002
  0.12780000000000002         -5.1474119294775134E-002
  0.12809999999999999        -0.12384180827935420     
  0.12840000000000001        -0.20329105496901168     
  0.12869999999999998        -0.28918620386791494     
  0.12900000000000000        -0.38021471930220763     
  0.12930000000000003        -0.47345294969232365     
  0.12959999999999999        -0.56558723274744271     
  0.12990000000000002        -0.65133451158111511     
  0.13019999999999998        -0.72546781255094528     
  0.13050000000000000        -0.78109642995443629     
  0.13080000000000003        -0.81199049797412415     
  0.13109999999999999        -0.81133412724111098     
  0.13140000000000002        -0.77366401177108024     
  0.13169999999999998        -0.69511117406452438     
  0.13200000000000001        -0.57395917226131576     
  0.13229999999999997        -0.41228490405778562     
  0.13260000000000000        -0.21531702952592191     
  0.13290000000000002          7.1595957813705979E-003
  0.13319999999999999         0.24223276766901103     
  0.13350000000000001         0.47296841507759346     
  0.13380000000000003         0.68051642212789609     
  0.13410000000000000         0.84514254230322550     
  0.13440000000000002         0.94779948585013574     
  0.13469999999999999         0.97198304614750342     
  0.13500000000000001         0.90525159164829461     
  0.13529999999999998         0.74123012493135576     
  0.13560000000000000         0.47948905791819030     
  0.13590000000000002         0.12751127298378151     
  0.13619999999999999        -0.30132321031158993     
  0.13650000000000001        -0.78637994842845416     
  0.13680000000000003         -1.3035862690207551     
  0.13710000000000000         -1.8246335364161368     
  0.13740000000000002         -2.3217262900841860     
  0.13769999999999999         -2.7669907923908283     
  0.13800000000000001         -3.1369755604980583     
  0.13829999999999998         -3.4119498890844966     
  0.13860000000000000         -3.5794117548329609     
  0.13890000000000002         -3.6327209087255881     
  0.13919999999999999         -3.5725923753811628     
  0.13950000000000001         -3.4061097974718422     
  0.13979999999999998         -3.1459389619558493     
  0.14010000000000000         -2.8091594197547067     
  0.14040000000000002         -2.4154303334400922     
  0.14069999999999999         -1.9861853271052290     
  0.14100000000000001         -1.5421113196309300     
  0.14130000000000004         -1.1032745373427519     
  0.14160000000000000        -0.68660764386051021     
  0.14189999999999997        -0.30622585340319652     
  0.14219999999999999          2.7868536585396786E-002
  0.14250000000000002         0.30871430100499531     
  0.14279999999999998         0.53435187887754410     
  0.14310000000000000         0.70541456260949431     
  0.14339999999999997         0.82631720641665751     
  0.14369999999999999         0.90449048865290749     
  0.14400000000000002         0.94942799696783098     
  0.14429999999999998         0.97297424676960276     
  0.14460000000000001         0.98789350955766864     
  0.14490000000000003          1.0080546421759244     
  0.14520000000000000          1.0469171286816490     
  0.14550000000000002          1.1169693296468708     
  0.14579999999999999          1.2288639780521464     
  0.14610000000000001          1.3904933173344816     
  0.14640000000000003          1.6054050025471795     
  0.14670000000000000          1.8731942046724726     
  0.14699999999999996          2.1872369581435862     
  0.14729999999999999          2.5369102282865015     
  0.14760000000000001          2.9052861740505449     
  0.14789999999999998          3.2723544653404701     
  0.14820000000000000          3.6144351567851629     