  -1.4999999999999999E-002     0.0000000000000000     
  -1.4700000000000000E-002     0.0000000000000000     
  -1.4400000000000000E-002     0.0000000000000000     
  -1.4100000000000000E-002     0.0000000000000000     
  -1.3800000000000000E-002     0.0000000000000000     
  -1.3500000000000000E-002     0.0000000000000000     
  -1.3200000000000000E-002     0.0000000000000000     
  -1.2899999999999998E-002     0.0000000000000000     
  -1.2600000000000000E-002     0.0000000000000000     
  -1.2299999999999998E-002     0.0000000000000000     
  -1.2000000000000000E-002     0.0000000000000000     
  -1.1699999999999999E-002     0.0000000000000000     
  -1.1399999999999999E-002     0.0000000000000000     
  -1.1099999999999999E-002     0.0000000000000000     
  -1.0799999999999999E-002     0.0000000000000000     
  -1.0499999999999999E-002     0.0000000000000000     
  -1.0199999999999999E-002     0.0000000000000000     
  -9.8999999999999991E-003     0.0000000000000000     
  -9.5999999999999992E-003     0.0000000000000000     
  -9.2999999999999992E-003     0.0000000000000000     
  -8.9999999999999993E-003     0.0000000000000000     
  -8.6999999999999994E-003     0.0000000000000000     
  -8.3999999999999995E-003     0.0000000000000000     
  -8.0999999999999996E-003     0.0000000000000000     
  -7.7999999999999988E-003     0.0000000000000000     
  -7.4999999999999997E-003     0.0000000000000000     
  -7.1999999999999998E-003     0.0000000000000000     
  -6.8999999999999981E-003     0.0000000000000000     
  -6.5999999999999982E-003     0.0000000000000000     
  -6.3000000000000000E-003     0.0000000000000000     
  -6.0000000000000001E-003     0.0000000000000000     
  -5.6999999999999985E-003     0.0000000000000000     
  -5.3999999999999986E-003     0.0000000000000000     
  -5.1000000000000004E-003     0.0000000000000000     
  -4.7999999999999987E-003     0.0000000000000000     
  -4.5000000000000005E-003     0.0000000000000000     
  -4.1999999999999989E-003     0.0000000000000000     
  -3.8999999999999990E-003     0.0000000000000000     
  -3.5999999999999990E-003     0.0000000000000000     
  -3.2999999999999991E-003     0.0000000000000000     
  -2.9999999999999992E-003     0.0000000000000000     
  -2.6999999999999993E-003     0.0000000000000000     
  -2.3999999999999994E-003     0.0000000000000000     
  -2.0999999999999977E-003     0.0000000000000000     
  -1.7999999999999995E-003     0.0000000000000000     
  -1.4999999999999979E-003     0.0000000000000000     
  -1.1999999999999997E-003     0.0000000000000000     
  -8.9999999999999976E-004     0.0000000000000000     
  -5.9999999999999810E-004     0.0000000000000000     
  -2.9999999999999992E-004     0.0000000000000000     
   0.0000000000000000          0.0000000000000000     
   3.0000000000000165E-004     0.0000000000000000     
   5.9999999999999984E-004     0.0000000000000000     
   9.0000000000000149E-004     0.0000000000000000     
   1.2000000000000031E-003     0.0000000000000000     
   1.5000000000000013E-003     0.0000000000000000     
   1.8000000000000030E-003     0.0000000000000000     
   2.1000000000000012E-003     0.0000000000000000     
   2.3999999999999994E-003     0.0000000000000000     
   2.7000000000000010E-003     0.0000000000000000     
   2.9999999999999992E-003     0.0000000000000000     
   3.3000000000000008E-003     0.0000000000000000     
   3.6000000000000025E-003     0.0000000000000000     
   3.9000000000000007E-003     0.0000000000000000     
   4.2000000000000023E-003     0.0000000000000000     
   4.5000000000000005E-003     0.0000000000000000     
   4.7999999999999987E-003     0.0000000000000000     
   5.1000000000000004E-003     0.0000000000000000     
   5.4000000000000020E-003     0.0000000000000000     
   5.7000000000000037E-003     0.0000000000000000     
   5.9999999999999984E-003     0.0000000000000000     
   6.3000000000000000E-003     0.0000000000000000     
   6.6000000000000017E-003     0.0000000000000000     
   6.9000000000000034E-003     0.0000000000000000     
   7.2000000000000015E-003     0.0000000000000000     
   7.5000000000000032E-003     0.0000000000000000     
   7.8000000000000014E-003     0.0000000000000000     
   8.0999999999999996E-003     0.0000000000000000     
   8.4000000000000012E-003     0.0000000000000000     
   8.7000000000000029E-003     0.0000000000000000     
   9.0000000000000011E-003     0.0000000000000000     
   9.2999999999999992E-003     0.0000000000000000     
   9.6000000000000009E-003     0.0000000000000000     
   9.8999999999999991E-003     0.0000000000000000     
   1.0200000000000001E-002     0.0000000000000000     
   1.0500000000000002E-002     0.0000000000000000     
   1.0800000000000004E-002     0.0000000000000000     
   1.1099999999999999E-002     0.0000000000000000     
   1.1400000000000000E-002     0.0000000000000000     
   1.1700000000000002E-002     0.0000000000000000     
   1.2000000000000004E-002     0.0000000000000000     
   1.2300000000000002E-002     0.0000000000000000     
   1.2600000000000000E-002     0.0000000000000000     
   1.2900000000000002E-002     0.0000000000000000     
   1.3200000000000000E-002     0.0000000000000000     
   1.3500000000000002E-002     0.0000000000000000     
   1.3800000000000003E-002     0.0000000000000000     
   1.4100000000000001E-002     0.0000000000000000     
   1.4400000000000000E-002     0.0000000000000000     
   1.4700000000000001E-002     0.0000000000000000     
   1.4999999999999999E-002     0.0000000000000000     
   1.5300000000000001E-002     0.0000000000000000     
   1.5600000000000003E-002     0.0000000000000000     
   1.5899999999999997E-002     0.0000000000000000     
   1.6199999999999999E-002     0.0000000000000000     
   1.6500000000000001E-002     0.0000000000000000     
   1.6800000000000002E-002     0.0000000000000000     
   1.7100000000000004E-002     0.0000000000000000     
   1.7400000000000006E-002     0.0000000000000000     
   1.7700000000000000E-002     0.0000000000000000     
   1.8000000000000002E-002     0.0000000000000000     
   1.8300000000000004E-002     0.0000000000000000     
   1.8600000000000005E-002     0.0000000000000000     
   1.8900000000000000E-002     0.0000000000000000     
   1.9200000000000002E-002     0.0000000000000000     
   1.9500000000000003E-002     0.0000000000000000     
   1.9799999999999998E-002     0.0000000000000000     
   2.0100000000000000E-002     0.0000000000000000     
   2.0400000000000001E-002     0.0000000000000000     
   2.0700000000000003E-002     0.0000000000000000     
   2.0999999999999998E-002     0.0000000000000000     
   2.1299999999999999E-002     0.0000000000000000     
   2.1600000000000001E-002     0.0000000000000000     
   2.1900000000000003E-002     0.0000000000000000     
   2.2200000000000004E-002     0.0000000000000000     
   2.2500000000000006E-002     0.0000000000000000     
   2.2800000000000001E-002     0.0000000000000000     
   2.3100000000000002E-002     0.0000000000000000     
   2.3400000000000004E-002     0.0000000000000000     
   2.3699999999999999E-002     0.0000000000000000     
   2.4000000000000000E-002     0.0000000000000000     
   2.4300000000000002E-002     0.0000000000000000     
   2.4599999999999997E-002     0.0000000000000000     
   2.4900000000000005E-002     0.0000000000000000     
   2.5200000000000000E-002     0.0000000000000000     
   2.5499999999999995E-002     0.0000000000000000     
   2.5800000000000003E-002     0.0000000000000000     
   2.6099999999999998E-002     0.0000000000000000     
   2.6400000000000007E-002     0.0000000000000000     
   2.6700000000000002E-002     0.0000000000000000     
   2.6999999999999996E-002     0.0000000000000000     
   2.7300000000000005E-002     0.0000000000000000     
   2.7600000000000000E-002     0.0000000000000000     
   2.7900000000000008E-002     0.0000000000000000     
   2.8200000000000003E-002     0.0000000000000000     
   2.8499999999999998E-002     0.0000000000000000     
   2.8800000000000006E-002     0.0000000000000000     
   2.9100000000000001E-002     0.0000000000000000     
   2.9400000000000003E-002     0.0000000000000000     
   2.9700000000000004E-002     0.0000000000000000     
   3.0000000000000006E-002     0.0000000000000000     
   3.0300000000000001E-002     0.0000000000000000     
   3.0600000000000002E-002     0.0000000000000000     
   3.0900000000000004E-002     0.0000000000000000     
   3.1199999999999999E-002     0.0000000000000000     
   3.1500000000000007E-002     0.0000000000000000     
   3.1800000000000002E-002     0.0000000000000000     
   3.2099999999999997E-002     0.0000000000000000     
   3.2400000000000005E-002     0.0000000000000000     
   3.2700000000000000E-002    -3.6267040587652199E-039
   3.3000000000000002E-002    -1.1927300416737899E-037
   3.3300000000000003E-002     9.1194557414917423E-037
   3.3599999999999998E-002    -7.7094034588147914E-036
   3.3900000000000000E-002     5.4497166157213294E-035
   3.4200000000000001E-002     6.7188320222903171E-035
   3.4500000000000003E-002    -1.2068994483329610E-033
   3.4799999999999998E-002     3.6668258382135665E-033
   3.5099999999999999E-002    -6.3906757423692018E-033
   3.5400000000000001E-002     1.0139284849879186E-032
   3.5699999999999996E-002    -1.6623645135651232E-032
   3.6000000000000004E-002     3.4995201485391011E-032
   3.6299999999999999E-002    -1.3008305522139641E-031
   3.6600000000000008E-002     5.6739096028772611E-031
   3.6900000000000002E-002    -1.7597385110757294E-030
   3.7199999999999997E-002     7.8547979429181433E-031
   3.7500000000000006E-002     3.3823702886668189E-029
   3.7800000000000000E-002    -2.8703759964028065E-028
   3.8100000000000009E-002     1.5935083474403670E-027
   3.8400000000000004E-002    -7.0935254030464821E-027
   3.8699999999999998E-002     2.6953028581197146E-026
   3.9000000000000007E-002    -8.9897991538872310E-026
   3.9300000000000002E-002     2.6753107957897740E-025
   3.9600000000000003E-002    -7.2054299923705050E-025
   3.9900000000000005E-002     1.7910909016821974E-024
   4.0200000000000000E-002    -4.2392505834794598E-024
   4.0500000000000001E-002     9.9312394686586480E-024
   4.0800000000000003E-002    -2.3388778794308930E-023
   4.1100000000000005E-002     5.2046758468957519E-023
   4.1399999999999999E-002    -8.5405291870156580E-023
   4.1700000000000008E-002    -4.4844195616684314E-023
   4.2000000000000003E-002     1.2957582509614679E-021
   4.2299999999999997E-002    -7.7052196604557150E-021
   4.2600000000000006E-002     3.3365534393149905E-020
   4.2900000000000001E-002    -1.1972359317650218E-019
   4.3200000000000002E-002     3.6544513752216088E-019
   4.3500000000000004E-002    -9.2739015744059642E-019
   4.3799999999999999E-002     1.7517555132241772E-018
   4.4100000000000000E-002    -1.1674969274091790E-018
   4.4400000000000002E-002    -8.8774011410244696E-018
   4.4700000000000004E-002     5.4233386303676539E-017
   4.4999999999999998E-002    -1.9330934673970030E-016
   4.5300000000000000E-002     4.9168581004038245E-016
   4.5600000000000002E-002    -7.8518033156732996E-016
   4.5899999999999996E-002    -1.7547722699567762E-016
   4.6200000000000005E-002     6.5730904866950463E-015
   4.6500000000000000E-002    -2.6676068569855568E-014
   4.6799999999999994E-002     6.3341867983082281E-014
   4.7100000000000003E-002    -6.7349242026505356E-014
   4.7399999999999998E-002    -1.7184350110208953E-013
   4.7700000000000006E-002     1.0895385843806763E-012
   4.8000000000000001E-002    -2.7800807665795353E-012
   4.8300000000000010E-002     2.5862140011124121E-012
   4.8600000000000004E-002     8.9108303169049376E-012
   4.8899999999999999E-002    -4.3895425917285410E-011
   4.9200000000000008E-002     7.7897721677808783E-011
   4.9500000000000002E-002     3.6440647323404973E-011
   4.9800000000000011E-002    -5.4292828984775652E-010
   5.0100000000000006E-002     1.1550055405763717E-009
   5.0400000000000000E-002     2.6487186351367852E-010
   5.0700000000000009E-002    -6.6739887111006567E-009
   5.1000000000000004E-002     1.1638295111923916E-008
   5.1299999999999998E-002     1.3021437789385968E-008
   5.1600000000000007E-002    -7.5987979479171099E-008
   5.1900000000000002E-002     3.4535131116026477E-008
   5.2200000000000010E-002     2.9775032971234587E-007
   5.2500000000000005E-002    -3.8945089287081127E-007
   5.2800000000000000E-002    -1.1658570525605467E-006
   5.3099999999999994E-002     2.1105184461663130E-006
   5.3400000000000003E-002     1.2358092195573027E-005
   5.3699999999999998E-002     3.3066543150940997E-005
   5.4000000000000006E-002     6.8548304624439262E-005
   5.4300000000000001E-002     1.0721607722473164E-004
   5.4599999999999996E-002     1.3143781829412504E-004
   5.4900000000000004E-002     1.6277715487432714E-004
   5.5199999999999999E-002     2.4877094135305512E-004
   5.5499999999999994E-002     4.0046972426377794E-004
   5.5800000000000002E-002     6.0379551751100352E-004
   5.6099999999999997E-002     8.7637522986875466E-004
   5.6400000000000006E-002     1.2652401077423436E-003
   5.6700000000000000E-002     1.8123706192528510E-003
   5.6999999999999995E-002     2.5481689870165691E-003
   5.7300000000000004E-002     3.5114051634013016E-003
   5.7599999999999998E-002     4.7509831138121406E-003
   5.7900000000000007E-002     6.2957737649885215E-003
   5.8200000000000002E-002     8.1582692187982531E-003
   5.8499999999999996E-002     1.0340252283229101E-002
   5.8800000000000005E-002     1.2775214098011856E-002
   5.9100000000000000E-002     1.5318486299615908E-002
   5.9400000000000008E-002     1.7770777774050339E-002
   5.9700000000000003E-002     1.9796576027571233E-002
   6.0000000000000012E-002     2.0882064790924471E-002
   6.0300000000000006E-002     2.0390031612133375E-002
   6.0600000000000001E-002     1.7540368838224130E-002
   6.0900000000000010E-002     1.1375041493575738E-002
   6.1200000000000004E-002     8.2151094348270615E-004
   6.1500000000000013E-002    -1.5218410882276379E-002
   6.1800000000000008E-002    -3.7766999034370752E-002
   6.2100000000000002E-002    -6.7638383733031660E-002
   6.2399999999999997E-002   -0.10526221794749446     
   6.2700000000000006E-002   -0.15047513516686806     
   6.3000000000000000E-002   -0.20234507045789041     
   6.3300000000000009E-002   -0.25898284153435291     
   6.3600000000000004E-002   -0.31735380456502860     
   6.3899999999999998E-002   -0.37325742976220333     
   6.4199999999999993E-002   -0.42142202846613053     
   6.4500000000000002E-002   -0.45566444367931247     
   6.4800000000000010E-002   -0.46923017280917101     
   6.5100000000000005E-002   -0.45533479756186956     
   6.5400000000000000E-002   -0.40773060340471901     
   6.5700000000000008E-002   -0.32147394239732208     
   6.5999999999999989E-002   -0.19367606564659701     
   6.6299999999999998E-002    -2.4181608183482250E-002
   6.6600000000000006E-002    0.18387015291244602     
   6.6900000000000001E-002    0.42377887193112862     
   6.7199999999999996E-002    0.68518371733903294     
   6.7500000000000004E-002    0.95442350342730720     
   6.7800000000000013E-002     1.2153324546645337     
   6.8099999999999994E-002     1.4502414360049087     
   6.8400000000000002E-002     1.6412305946959052     
   6.8700000000000011E-002     1.7716972728889999     
   6.8999999999999992E-002     1.8277844013797164     
   6.9300000000000000E-002     1.7997393076315333     
   6.9600000000000009E-002     1.6830758457797614     
   6.9900000000000004E-002     1.4790620133207497     
   7.0199999999999999E-002     1.1948465981017478     
   7.0500000000000007E-002    0.84342695617117869     
   7.0800000000000016E-002    0.44229021485732090     
   7.1099999999999997E-002     1.2350164386202955E-002
   7.1400000000000005E-002   -0.42353663161221533     
   7.1700000000000000E-002   -0.84259085524574928     
   7.1999999999999995E-002    -1.2236762788859465     
   7.2300000000000003E-002    -1.5486236191951903     
   7.2600000000000012E-002    -1.8037121624374564     
   7.2900000000000006E-002    -1.9803122604769783     
   7.3200000000000001E-002    -2.0748673372168014     
   7.3499999999999996E-002    -2.0892202907397319     
   7.3800000000000004E-002    -2.0296761967825745     
   7.4099999999999999E-002    -1.9061207120695300     
   7.4400000000000008E-002    -1.7313562110201488     
   7.4700000000000003E-002    -1.5193348493400904     
   7.5000000000000011E-002    -1.2844284016308052     
   7.5299999999999992E-002    -1.0406876740793365     
   7.5600000000000001E-002   -0.80026335902997303     
   7.5900000000000009E-002   -0.57349928218895307     
   7.6200000000000004E-002   -0.36864220494679856     
   7.6499999999999999E-002   -0.19089309602596094     
   7.6800000000000007E-002    -4.3347385835398988E-002
   7.7099999999999988E-002     7.3062143516388733E-002
   7.7399999999999997E-002    0.15991437411451059     
   7.7700000000000005E-002    0.21984990622310185     
   7.8000000000000014E-002    0.25709001004027954     
   7.8299999999999995E-002    0.27687878716902148     
   7.8600000000000003E-002    0.28441052675843714     
   7.8900000000000012E-002    0.28542072272549035     
   7.9199999999999993E-002    0.28532176258057262     
   7.9500000000000001E-002    0.28852595363923683     
   7.9800000000000010E-002    0.29904053119708962     
   8.0100000000000018E-002    0.31951606847872682     
   8.0399999999999999E-002    0.35106626671440999     
   8.0700000000000008E-002    0.39400584914628389     
   8.1000000000000003E-002    0.44700013184211151     
   8.1299999999999997E-002    0.50746912823027301     
   8.1600000000000006E-002    0.57233531945188432     
   8.1900000000000014E-002    0.63750662160457594     
   8.2199999999999995E-002    0.69879552910363074     
   8.2500000000000004E-002    0.75239326943441753     
   8.2799999999999999E-002    0.79460078172284554     
   8.3100000000000007E-002    0.82276059073283037     
   8.3400000000000002E-002    0.83533490892478923     
   8.3700000000000011E-002    0.83157860678513273     
   8.4000000000000005E-002    0.81212420556943954     
   8.4300000000000000E-002    0.77847456503060641     
   8.4599999999999995E-002    0.73261242708156615     
   8.4900000000000003E-002    0.67721119415820397     
   8.5199999999999998E-002    0.61491308635321928     
   8.5500000000000007E-002    0.54801695103963155     
   8.5800000000000001E-002    0.47844173755574282     
   8.6100000000000010E-002    0.40752373927721486     
   8.6399999999999991E-002    0.33581014182640523     
   8.6699999999999999E-002    0.26331452754512252     
   8.7000000000000008E-002    0.18973665231577552     
   8.7300000000000003E-002    0.11442113679926447     
   8.7599999999999997E-002     3.7038235390638663E-002
   8.7900000000000006E-002    -4.2218330767678780E-002
   8.8200000000000014E-002   -0.12272675975650493     
   8.8499999999999995E-002   -0.20284258037563418     
   8.8800000000000004E-002   -0.28006400527483777     
   8.9100000000000013E-002   -0.35149914597269039     
   8.9399999999999993E-002   -0.41342883128968921     
   8.9700000000000002E-002   -0.46228857441906257     
   9.0000000000000011E-002   -0.49512672847620109     
   9.0299999999999991E-002   -0.50935939078557979     
   9.0600000000000000E-002   -0.50395472154510301     
   9.0900000000000009E-002   -0.47951908995075065     
   9.1200000000000017E-002   -0.43785045433319247     
   9.1499999999999998E-002   -0.38271289009509957     
   9.1800000000000007E-002   -0.31900843949886237     
   9.2100000000000001E-002   -0.25227837424953403     
   9.2399999999999996E-002   -0.18875963759079362     
   9.2700000000000005E-002   -0.13410347529872446     
   9.3000000000000013E-002    -9.3049828316693173E-002
   9.3300000000000008E-002    -6.9192677981105399E-002
   9.3600000000000003E-002    -6.4019085029010547E-002
   9.3899999999999997E-002    -7.7360836640791852E-002
   9.4200000000000006E-002   -0.10733855757697119     
   9.4500000000000001E-002   -0.15026681573053047     
   9.4800000000000009E-002   -0.20158947045879838     
   9.5100000000000004E-002   -0.25608297406614433     
   9.5399999999999999E-002   -0.30849534270465639     
   9.5699999999999993E-002   -0.35439438073208329     
   9.6000000000000002E-002   -0.39001407390025911     
   9.6300000000000011E-002   -0.41291396558835736     
   9.6600000000000005E-002   -0.42223696711605463     
   9.6900000000000000E-002   -0.41807879579104323     
   9.7200000000000009E-002   -0.40183240921443364     
   9.7499999999999989E-002   -0.37570777933866850     
   9.7799999999999998E-002   -0.34203474757558006     
   9.8100000000000007E-002   -0.30331588505080553     
   9.8400000000000015E-002   -0.26162484758318705     
   9.8699999999999996E-002   -0.21831877615561890     
   9.9000000000000005E-002   -0.17421881772603998     
   9.9300000000000013E-002   -0.12910726189108651     
   9.9599999999999994E-002    -8.2081859112693500E-002
   9.9900000000000003E-002    -3.1804721554787196E-002
  0.10020000000000001          2.3546004215311042E-002
  0.10049999999999999          8.5630374271297827E-002
  0.10080000000000000         0.15580195700792920     
  0.10110000000000001         0.23504780876664011     
  0.10140000000000000         0.32320220301124181     
  0.10170000000000000         0.41911130126986684     
  0.10200000000000001         0.52071134183184142     
  0.10230000000000002         0.62466725319098160     
  0.10260000000000000         0.72668243602598892     
  0.10290000000000001         0.82181605242568523     
  0.10320000000000000         0.90460692322604075     
  0.10350000000000001         0.96962705366761170     
  0.10380000000000000          1.0117982888224972     
  0.10410000000000001          1.0266781766777804     
  0.10440000000000001          1.0110832226907149     
  0.10470000000000000         0.96318074970773182     
  0.10500000000000000         0.88254790273776251     
  0.10530000000000000         0.77042936759248271     
  0.10560000000000000         0.62947366891123213     
  0.10590000000000001         0.46345393305646487     
  0.10620000000000000         0.27740726079200417     
  0.10650000000000001          7.6878913130954629E-002
  0.10679999999999999        -0.13235653766097988     
  0.10710000000000000        -0.34406364915727927     
  0.10740000000000001        -0.55213900877643418     
  0.10770000000000000        -0.75076366614598200     
  0.10800000000000000        -0.93404636726173962     
  0.10830000000000001         -1.0962262485681364     
  0.10859999999999999         -1.2316235265155555     
  0.10890000000000000         -1.3344851152304358     
  0.10920000000000001         -1.3993674949908623     
  0.10950000000000001         -1.4210992706419034     
  0.10979999999999999         -1.3950257106530159     
  0.11009999999999999         -1.3178508236955793     
  0.11040000000000001         -1.1878224565588091     
  0.11070000000000001         -1.0053519728967935     
  0.11100000000000000        -0.77372402940011664     
  0.11130000000000000        -0.49906382226419943     
  0.11160000000000002        -0.19064594897855081     
  0.11190000000000001         0.13908297755589016     
  0.11220000000000001         0.47553403820198703     
  0.11250000000000000         0.80233218856161415     
  0.11280000000000000          1.1022792577934766     
  0.11309999999999999          1.3590798268963553     
  0.11340000000000001          1.5581281144629955     
  0.11369999999999998          1.6877633597473576     
  0.11400000000000000          1.7405226022041731     
  0.11430000000000000          1.7134699519021908     
  0.11460000000000002          1.6087535565905355     
  0.11489999999999999          1.4333829399484443     
  0.11520000000000001          1.1985917264576607     
  0.11550000000000001         0.91910216836934566     
  0.11580000000000000         0.61184548802778371     
  0.11609999999999999         0.29441675903897746     
  0.11640000000000002         -1.5804403883499685E-002
  0.11670000000000001        -0.30344402008936200     
  0.11700000000000001        -0.55597521881766276     
  0.11730000000000000        -0.76427385636638689     
  0.11760000000000000        -0.92337632108280587     
  0.11789999999999999         -1.0322804807083727     
  0.11820000000000001         -1.0934699563701287     
  0.11850000000000001         -1.1124115044123073     
  0.11880000000000000         -1.0967441193600500     
  0.11910000000000000         -1.0551867917889624     
  0.11940000000000002        -0.99654264195687503     
  0.11970000000000001        -0.92885618426161898     
  0.12000000000000001        -0.85871495518283680     
  0.12030000000000000        -0.79079617397890090     
  0.12060000000000000        -0.72757428615004471     
  0.12089999999999999        -0.66949476300757382     
  0.12119999999999999        -0.61543619415490625     
  0.12150000000000001        -0.56279451403104908     
  0.12180000000000001        -0.50847039109735803     
  0.12210000000000000        -0.44964327952293992     
  0.12239999999999999        -0.38399828764336785     
  0.12270000000000002        -0.31046322451928976     
  0.12300000000000001        -0.22951433581823322     
  0.12330000000000001        -0.14304296472903466     
  0.12360000000000000         -5.4517932719232665E-002
  0.12390000000000000          3.1456834200520256E-002
  0.12419999999999999         0.10986341933125221     
  0.12450000000000001         0.17558739821158653     
  0.12480000000000001         0.22416892082743178     
  0.12509999999999999         0.25247532328850042     
  0.12540000000000001         0.25885707457939677     
  0.12570000000000003         0.24375821101177397     
  0.12600000000000000         0.20959882455400114     
  0.12630000000000002         0.16055433921886064     
  0.12659999999999999         0.10227315771153878     
  0.12690000000000001          4.1359622927955808E-002
  0.12719999999999998         -1.5072233898452914E-002
  0.12750000000000000         -6.0584029965454755E-002
  0.12780000000000002         -8.9509004453306007E-002
  0.12809999999999999         -9.7468127026637208E-002
  0.12840000000000001         -8.2191368624015659E-002
  0.12869999999999998         -4.3001551680857064E-002
  0.12900000000000000          1.8840203933138011E-002
  0.12930000000000003         0.10017650517089338     
  0.12959999999999999         0.19705135305122656     
  0.12990000000000002         0.30426632307133517     
  0.13019999999999998         0.41615472592862268     
  0.13050000000000000         0.52743351821439965     
  0.13080000000000003         0.63251210136658997     
  0.13109999999999999         0.72660380772852662     
  0.13140000000000002         0.80573230626069403     
  0.13169999999999998         0.86597038576451979     
  0.13200000000000001         0.90457000646133423     
  0.13229999999999997         0.91940592649304165     
  0.13260000000000000         0.90863133042724442     
  0.13290000000000002         0.87198933643820453     
  0.13319999999999999         0.80987547728543952     
  0.13350000000000001         0.72359904524321550     
  0.13380000000000003         0.61664280386510395     
  0.13410000000000000         0.49350837830242655     
  0.13440000000000002         0.36033067667200802     
  0.13469999999999999         0.22489744405927903     
  0.13500000000000001          9.5432744018797422E-002
  0.13529999999999998         -1.9198566737411271E-002
  0.13560000000000000        -0.11047065106186160     
  0.13590000000000002        -0.17136041414241188     
  0.13619999999999999        -0.19654691516754141     
  0.13650000000000001        -0.18363082765240635     
  0.13680000000000003        -0.13332237394906610     
  0.13710000000000000         -4.9272442643420344E-002
  0.13740000000000002          6.1408062123786022E-002
  0.13769999999999999         0.18938655622093936     
  0.13800000000000001         0.32351157562709076     
  0.13829999999999998         0.45164568571391506     
  0.13860000000000000         0.56236963458484723     
  0.13890000000000002         0.64511116668892043     
  0.13919999999999999         0.69156853140110996     
  0.13950000000000001         0.69647355779191500     
  0.13979999999999998         0.65709562302450486     
  0.14010000000000000         0.57420538252479059     
  0.14040000000000002         0.45160892847606759     
  0.14069999999999999         0.29483264463482239     
  0.14100000000000001         0.11186315126523283     
  0.14130000000000004         -8.8264557016942191E-002
  0.14160000000000000        -0.29663259210288739     
  0.14189999999999997        -0.50376771291129252     
  0.14219999999999999        -0.70109586176539906     
  0.14250000000000002        -0.88136111317828281     
  0.14279999999999998         -1.0379250592674616     
  0.14310000000000000         -1.1658850432346100     
  0.14339999999999997         -1.2616300096434827     
  0.14369999999999999         -1.3224710225662974     
  0.14400000000000002         -1.3474548879392856     
  0.14429999999999998         -1.3364026954106194     
  0.14460000000000001         -1.2901921260869180     
  0.14490000000000003         -1.2111352474224049     
  0.14520000000000000         -1.1021857656823997     
  0.14550000000000002        -0.96744216456608001     
  0.14579999999999999        -0.81219574267243999     
  0.14610000000000001        -0.64246639940566830     
  0.14640000000000003        -0.46512808878874290     
  0.14670000000000000        -0.28761474420872535     
  0.14699999999999996        -0.11767151204243120     
  0.14729999999999999          3.7032263667289289E-002
  0.14760000000000001         0.16941945107800827     
  0.14789999999999998         0.27332455111077714     
  0.14820000000000000         0.34411847486206959     