  -1.4999999999999999E-002     0.0000000000000000     
  -1.4700000000000000E-002     2.7989750606138841E-007
  -1.4400000000000000E-002     1.3993708307680208E-006
  -1.4100000000000000E-002    -3.4113959372916725E-006
  -1.3800000000000000E-002    -8.3901059042545967E-006
  -1.3500000000000000E-002    -5.0270441533939447E-006
  -1.3200000000000000E-002     1.2929282092954963E-005
  -1.2899999999999998E-002     2.2288399122771807E-005
  -1.2600000000000000E-002    -5.4869574341864791E-006
  -1.2299999999999998E-002    -3.6276451282901689E-005
  -1.2000000000000000E-002    -5.6955614127218723E-005
  -1.1699999999999999E-002    -3.4566692193038762E-005
  -1.1399999999999999E-002     7.2802536124072503E-006
  -1.1099999999999999E-002     4.4854303268948570E-005
  -1.0799999999999999E-002     1.4667892173747532E-005
  -1.0499999999999999E-002    -3.3028096368070692E-005
  -1.0199999999999999E-002    -8.8323882664553821E-005
  -9.8999999999999991E-003    -1.3335206313058734E-004
  -9.5999999999999992E-003    -1.1305158841423690E-004
  -9.2999999999999992E-003    -1.3991112064104527E-004
  -8.9999999999999993E-003    -9.7879004897549748E-005
  -8.6999999999999994E-003    -5.8037858252646402E-005
  -8.3999999999999995E-003     1.8541762983659282E-005
  -8.0999999999999996E-003     5.9042369684902951E-005
  -7.7999999999999988E-003    -6.9414672907441854E-006
  -7.4999999999999997E-003    -2.1632539574056864E-004
  -7.1999999999999998E-003    -6.7869812482967973E-004
  -6.8999999999999981E-003    -1.3519336935132742E-003
  -6.5999999999999982E-003    -2.3768695537000895E-003
  -6.3000000000000000E-003    -4.0132198482751846E-003
  -6.0000000000000001E-003    -6.5632113255560398E-003
  -5.6999999999999985E-003    -1.0776713490486145E-002
  -5.3999999999999986E-003    -1.7477264627814293E-002
  -5.1000000000000004E-003    -2.7993571013212204E-002
  -4.7999999999999987E-003    -4.4067092239856720E-002
  -4.5000000000000005E-003    -6.8057671189308167E-002
  -4.1999999999999989E-003   -0.10292056947946548     
  -3.8999999999999990E-003   -0.15257188677787781     
  -3.5999999999999990E-003   -0.22162678837776184     
  -3.2999999999999991E-003   -0.31608763337135315     
  -2.9999999999999992E-003   -0.44264265894889832     
  -2.6999999999999993E-003   -0.60935962200164795     
  -2.3999999999999994E-003   -0.82454949617385864     
  -2.0999999999999977E-003    -1.0971066951751709     
  -1.7999999999999995E-003    -1.4354733228683472     
  -1.4999999999999979E-003    -1.8464636802673340     
  -1.1999999999999997E-003    -2.3346309661865234     
  -8.9999999999999976E-004    -2.9006006717681885     
  -5.9999999999999810E-004    -3.5383405685424805     
  -2.9999999999999992E-004    -4.2350611686706543     
   0.0000000000000000         -4.9692983627319336     
   3.0000000000000165E-004    -5.7066340446472168     
   5.9999999999999984E-004    -6.4029588699340820     
   9.0000000000000149E-004    -7.0005803108215332     
   1.2000000000000031E-003    -7.4309082031250000     
   1.5000000000000013E-003    -7.6160955429077148     
   1.8000000000000030E-003    -7.4730901718139648     
   2.1000000000000012E-003    -6.9187297821044922     
   2.3999999999999994E-003    -5.8776674270629883     
   2.7000000000000010E-003    -4.2894964218139648     
   2.9999999999999992E-003    -2.1187770366668701     
   3.3000000000000008E-003    0.63722735643386841     
   3.6000000000000025E-003     3.9396140575408936     
   3.9000000000000007E-003     7.7038989067077637     
   4.2000000000000023E-003     11.795424461364746     
   4.5000000000000005E-003     16.034004211425781     
   4.7999999999999987E-003     20.196882247924805     
   5.1000000000000004E-003     24.032075881958008     
   5.4000000000000020E-003     27.274618148803711     
   5.7000000000000037E-003     29.662895202636719     
   5.9999999999999984E-003     30.961795806884766     
   6.3000000000000000E-003     30.984395980834961     
   6.6000000000000017E-003     29.608016967773438     
   6.9000000000000034E-003     26.792652130126953     
   7.2000000000000015E-003     22.588533401489258     
   7.5000000000000032E-003     17.138536453247070     
   7.8000000000000014E-003     10.671411514282227     
   8.0999999999999996E-003     3.4913301467895508     
   8.4000000000000012E-003    -4.0448684692382812     
   8.7000000000000029E-003    -11.550829887390137     
   9.0000000000000011E-003    -18.638229370117188     
   9.2999999999999992E-003    -24.942636489868164     
   9.6000000000000009E-003    -30.150686264038086     
   9.8999999999999991E-003    -34.020606994628906     
   1.0200000000000001E-002    -36.391784667968750     
   1.0500000000000002E-002    -37.199981689453125     
   1.0800000000000004E-002    -36.470317840576172     
   1.1099999999999999E-002    -34.313835144042969     
   1.1400000000000000E-002    -30.915809631347656     
   1.1700000000000002E-002    -26.516824722290039     
   1.2000000000000004E-002    -21.392663955688477     
   1.2300000000000002E-002    -15.839014053344727     
   1.2600000000000000E-002    -10.147957801818848     
   1.2900000000000002E-002    -4.5926566123962402     
   1.3200000000000000E-002    0.58750283718109131     
   1.3500000000000002E-002     5.1948709487915039     
   1.3800000000000003E-002     9.0821628570556641     
   1.4100000000000001E-002     12.153866767883301     
   1.4400000000000000E-002     14.364682197570801     
   1.4700000000000001E-002     15.717000007629395     
   1.4999999999999999E-002     16.256710052490234     
   1.5300000000000001E-002     16.057744979858398     
   1.5600000000000003E-002     15.226979255676270     
   1.5899999999999997E-002     13.885336875915527     
   1.6199999999999999E-002     12.164203643798828     
   1.6500000000000001E-002     10.198482513427734     
   1.6800000000000002E-002     8.1170587539672852     
   1.7100000000000004E-002     6.0434608459472656     
   1.7400000000000006E-002     4.0834746360778809     
   1.7700000000000000E-002     2.3258342742919922     
   1.8000000000000002E-002    0.84127604961395264     
   1.8300000000000004E-002   -0.32495367527008057     
   1.8600000000000005E-002    -1.1466840505599976     
   1.8900000000000000E-002    -1.6225448846817017     
   1.9200000000000002E-002    -1.7706431150436401     
   1.9500000000000003E-002    -1.6279371976852417     
   1.9799999999999998E-002    -1.2459704875946045     
   2.0100000000000000E-002   -0.68505120277404785     
   2.0400000000000001E-002    -1.8188849091529846E-002
   2.0700000000000003E-002    0.68792927265167236     
   2.0999999999999998E-002     1.3629964590072632     
   2.1299999999999999E-002     1.9464615583419800     
   2.1600000000000001E-002     2.3897233009338379     
   2.1900000000000003E-002     2.6515600681304932     
   2.2200000000000004E-002     2.7124404907226562     
   2.2500000000000006E-002     2.5634992122650146     
   2.2800000000000001E-002     2.2121894359588623     
   2.3100000000000002E-002     1.6812126636505127     
   2.3400000000000004E-002     1.0023163557052612     
   2.3699999999999999E-002    0.22080764174461365     
   2.4000000000000000E-002   -0.61430931091308594     
   2.4300000000000002E-002    -1.4507045745849609     
   2.4599999999999997E-002    -2.2340199947357178     
   2.4900000000000005E-002    -2.9167430400848389     
   2.5200000000000000E-002    -3.4541106224060059     
   2.5499999999999995E-002    -3.8161888122558594     
   2.5800000000000003E-002    -3.9809138774871826     
   2.6099999999999998E-002    -3.9407649040222168     
   2.6400000000000007E-002    -3.7048511505126953     
   2.6700000000000002E-002    -3.2892189025878906     
   2.6999999999999996E-002    -2.7300331592559814     
   2.7300000000000005E-002    -2.0646653175354004     
   2.7600000000000000E-002    -1.3403038978576660     
   2.7900000000000008E-002   -0.60487854480743408     
   2.8200000000000003E-002     9.4956248998641968E-002
   2.8499999999999998E-002    0.71627563238143921     
   2.8800000000000006E-002     1.2275143861770630     
   2.9100000000000001E-002     1.6026329994201660     
   2.9400000000000003E-002     1.8271210193634033     
   2.9700000000000004E-002     1.9001041650772095     
   3.0000000000000006E-002     1.8253157138824463     
   3.0300000000000001E-002     1.6221154928207397     
   3.0600000000000002E-002     1.3114061355590820     
   3.0900000000000004E-002    0.92300283908843994     
   3.1199999999999999E-002    0.48873493075370789     
   3.1500000000000007E-002     4.1085883975028992E-002
   3.1800000000000002E-002   -0.38369119167327881     
   3.2099999999999997E-002   -0.75985461473464966     
   3.2400000000000005E-002    -1.0573840141296387     
   3.2700000000000000E-002    -1.2565870285034180     
   3.3000000000000002E-002    -1.3449397087097168     
   3.3300000000000003E-002    -1.3158062696456909     
   3.3599999999999998E-002    -1.1735030412673950     
   3.3900000000000000E-002   -0.92886632680892944     
   3.4200000000000001E-002   -0.60164070129394531     
   3.4500000000000003E-002   -0.21721981465816498     
   3.4799999999999998E-002    0.19468870759010315     
   3.5099999999999999E-002    0.60104030370712280     
   3.5400000000000001E-002    0.97383338212966919     
   3.5699999999999996E-002     1.2821710109710693     
   3.6000000000000004E-002     1.5065395832061768     
   3.6299999999999999E-002     1.6315255165100098     
   3.6600000000000008E-002     1.6488910913467407     
   3.6900000000000002E-002     1.5637607574462891     
   3.7199999999999997E-002     1.3819607496261597     
   3.7500000000000006E-002     1.1216599941253662     
   3.7800000000000000E-002    0.80384385585784912     
   3.8100000000000009E-002    0.45268246531486511     
   3.8400000000000004E-002     9.5829866826534271E-002
   3.8699999999999998E-002   -0.24333950877189636     
   3.9000000000000007E-002   -0.53914219141006470     
   3.9300000000000002E-002   -0.77250248193740845     
   3.9600000000000003E-002   -0.92907208204269409     
   3.9900000000000005E-002   -0.99901419878005981     
   4.0200000000000000E-002   -0.97992897033691406     
   4.0500000000000001E-002   -0.87624043226242065     
   4.0800000000000003E-002   -0.69992476701736450     
   4.1100000000000005E-002   -0.46474260091781616     
   4.1399999999999999E-002   -0.19571885466575623     
   4.1700000000000008E-002     8.4453657269477844E-002
   4.2000000000000003E-002    0.35106271505355835     
   4.2299999999999997E-002    0.57666623592376709     
   4.2600000000000006E-002    0.74213945865631104     
   4.2900000000000001E-002    0.83109831809997559     
   4.3200000000000002E-002    0.83456379175186157     
   4.3500000000000004E-002    0.75239688158035278     
   4.3799999999999999E-002    0.59207040071487427     
   4.4100000000000000E-002    0.37066325545310974     
   4.4400000000000002E-002    0.10778427869081497     
   4.4700000000000004E-002   -0.16755984723567963     
   4.4999999999999998E-002   -0.42984226346015930     
   4.5300000000000000E-002   -0.65232717990875244     
   4.5600000000000002E-002   -0.81139743328094482     
   4.5899999999999996E-002   -0.89388579130172729     
   4.6200000000000005E-002   -0.88922965526580811     
   4.6500000000000000E-002   -0.80061835050582886     
   4.6799999999999994E-002   -0.63575983047485352     
   4.7100000000000003E-002   -0.41200947761535645     
   4.7399999999999998E-002   -0.15319895744323730     
   4.7700000000000006E-002    0.11743327230215073     
   4.8000000000000001E-002    0.37055253982543945     
   4.8300000000000010E-002    0.58434432744979858     
   4.8600000000000004E-002    0.73805302381515503     
   4.8899999999999999E-002    0.81709378957748413     
   4.9200000000000008E-002    0.81800639629364014     
   4.9500000000000002E-002    0.73951017856597900     
   4.9800000000000011E-002    0.59328824281692505     
   5.0100000000000006E-002    0.39168339967727661     
   5.0400000000000000E-002    0.15460826456546783     
   5.0700000000000009E-002    -9.5020733773708344E-002
   5.1000000000000004E-002   -0.34007143974304199     
   5.1299999999999998E-002   -0.55761361122131348     
   5.1600000000000007E-002   -0.73590755462646484     
   5.1900000000000002E-002   -0.86254209280014038     
   5.2200000000000010E-002   -0.93309861421585083     
   5.2500000000000005E-002   -0.94768363237380981     
   5.2800000000000000E-002   -0.90963888168334961     
   5.3099999999999994E-002   -0.82742732763290405     
   5.3400000000000003E-002   -0.70849031209945679     
   5.3699999999999998E-002   -0.56326377391815186     
   5.4000000000000006E-002   -0.40353429317474365     
   5.4300000000000001E-002   -0.23333083093166351     
   5.4599999999999996E-002    -6.4665473997592926E-002
   5.4900000000000004E-002    0.10115052759647369     
   5.5199999999999999E-002    0.25533345341682434     
   5.5499999999999994E-002    0.39601510763168335     
   5.5800000000000002E-002    0.52087342739105225     
   5.6099999999999997E-002    0.62478458881378174     
   5.6400000000000006E-002    0.70677816867828369     
   5.6700000000000000E-002    0.76340085268020630     
   5.6999999999999995E-002    0.79363638162612915     
   5.7300000000000004E-002    0.79671007394790649     
   5.7599999999999998E-002    0.77230751514434814     
   5.7900000000000007E-002    0.72256249189376831     
   5.8200000000000002E-002    0.64838522672653198     
   5.8499999999999996E-002    0.55609631538391113     
   5.8800000000000005E-002    0.44933152198791504     
   5.9100000000000000E-002    0.33087578415870667     
   5.9400000000000008E-002    0.21000351011753082     
   5.9700000000000003E-002     8.7763756513595581E-002
   6.0000000000000012E-002    -2.7023339644074440E-002
   6.0300000000000006E-002   -0.13496133685112000     
   6.0600000000000001E-002   -0.22890242934226990     
   6.0900000000000010E-002   -0.30824914574623108     
   6.1200000000000004E-002   -0.37092992663383484     
   6.1500000000000013E-002   -0.41423562169075012     
   6.1800000000000008E-002   -0.43934437632560730     
   6.2100000000000002E-002   -0.44649446010589600     
   6.2399999999999997E-002   -0.43459314107894897     
   6.2700000000000006E-002   -0.40832963585853577     
   6.3000000000000000E-002   -0.36862289905548096     
   6.3300000000000009E-002   -0.32011467218399048     
   6.3600000000000004E-002   -0.26515635848045349     
   6.3899999999999998E-002   -0.20881463587284088     
   6.4199999999999993E-002   -0.15468616783618927     
   6.4500000000000002E-002   -0.10496874898672104     
   6.4800000000000010E-002    -6.3816875219345093E-002
   6.5100000000000005E-002    -3.0412847176194191E-002
   6.5400000000000000E-002    -7.5822770595550537E-003
   6.5700000000000008E-002     6.2673380598425865E-003
   6.5999999999999989E-002     1.1820329353213310E-002
   6.6299999999999998E-002     9.6751172095537186E-003
   6.6600000000000006E-002     3.3229517284780741E-003
   6.6900000000000001E-002    -8.3569837734103203E-003
   6.7199999999999996E-002    -2.1194914355874062E-002
   6.7500000000000004E-002    -3.4474547952413559E-002
   6.7800000000000013E-002    -4.6788822859525681E-002
   6.8099999999999994E-002    -5.6757148355245590E-002
   6.8400000000000002E-002    -6.2076248228549957E-002
   6.8700000000000011E-002    -6.2519803643226624E-002
   6.8999999999999992E-002    -5.5799879133701324E-002
   6.9300000000000000E-002    -4.2302131652832031E-002
   6.9600000000000009E-002    -2.1718410775065422E-002
   6.9900000000000004E-002     5.5779949761927128E-003
   7.0199999999999999E-002     3.9341498166322708E-002
   7.0500000000000007E-002     7.5645029544830322E-002
   7.0800000000000016E-002    0.11441507190465927     
   7.1099999999999997E-002    0.15112869441509247     
   7.1400000000000005E-002    0.18425089120864868     
   7.1700000000000000E-002    0.21112722158432007     
   7.1999999999999995E-002    0.22904585301876068     
   7.2300000000000003E-002    0.23756457865238190     
   7.2600000000000012E-002    0.23629437386989594     
   7.2900000000000006E-002    0.22524781525135040     
   7.3200000000000001E-002    0.20548790693283081     
   7.3499999999999996E-002    0.17805556952953339     
   7.3800000000000004E-002    0.14617240428924561     
   7.4099999999999999E-002    0.10960086435079575     
   7.4400000000000008E-002     7.2227835655212402E-002
   7.4700000000000003E-002     3.4888129681348801E-002
   7.5000000000000011E-002    -1.6543184174224734E-003
   7.5299999999999992E-002    -3.4206345677375793E-002
   7.5600000000000001E-002    -6.2777847051620483E-002
   7.5900000000000009E-002    -8.6047679185867310E-002
   7.6200000000000004E-002   -0.10321422666311264     
   7.6499999999999999E-002   -0.11393355578184128     
   7.6800000000000007E-002   -0.11781447380781174     
   7.7099999999999988E-002   -0.11612639576196671     
   7.7399999999999997E-002   -0.10840258747339249     
   7.7700000000000005E-002    -9.6286043524742126E-002
   7.8000000000000014E-002    -8.1622779369354248E-002
   7.8299999999999995E-002    -6.5184608101844788E-002
   7.8600000000000003E-002    -4.9039989709854126E-002
   7.8900000000000012E-002    -3.3950641751289368E-002
   7.9199999999999993E-002    -2.2000649943947792E-002
   7.9500000000000001E-002    -1.2863392941653728E-002
   7.9800000000000010E-002    -7.3682814836502075E-003
   8.0100000000000018E-002    -6.2051052227616310E-003
   8.0399999999999999E-002    -7.6278196647763252E-003
   8.0700000000000008E-002    -1.2111335992813110E-002
   8.1000000000000003E-002    -1.9019294530153275E-002
   8.1299999999999997E-002    -2.6539390906691551E-002
   8.1600000000000006E-002    -3.4970652312040329E-002
   8.1900000000000014E-002    -4.2707938700914383E-002
   8.2199999999999995E-002    -4.9442797899246216E-002
   8.2500000000000004E-002    -5.4686337709426880E-002
   8.2799999999999999E-002    -5.6977126747369766E-002
   8.3100000000000007E-002    -5.6714013218879700E-002
   8.3400000000000002E-002    -5.2651025354862213E-002
   8.3700000000000011E-002    -4.6072069555521011E-002
   8.4000000000000005E-002    -3.5605564713478088E-002
   8.4300000000000000E-002    -2.2757973521947861E-002
   8.4599999999999995E-002    -8.1642037257552147E-003
   8.4900000000000003E-002     7.5140115804970264E-003
   8.5199999999999998E-002     2.1839436143636703E-002
   8.5500000000000007E-002     3.5181839019060135E-002
   8.5800000000000001E-002     4.5762784779071808E-002
   8.6100000000000010E-002     5.2693594247102737E-002
   8.6399999999999991E-002     5.6418649852275848E-002
   8.6699999999999999E-002     5.5933419615030289E-002
   8.7000000000000008E-002     5.2870474755764008E-002
   8.7300000000000003E-002     4.7084577381610870E-002
   8.7599999999999997E-002     3.9223726838827133E-002
   8.7900000000000006E-002     3.0861655250191689E-002
   8.8200000000000014E-002     2.1417677402496338E-002
   8.8499999999999995E-002     1.3365812599658966E-002
   8.8800000000000004E-002     5.7050795294344425E-003
   8.9100000000000013E-002    -1.2401693966239691E-003
   8.9399999999999993E-002    -5.7519329711794853E-003
   8.9700000000000002E-002    -9.9566075950860977E-003
   9.0000000000000011E-002    -1.1047847568988800E-002
   9.0299999999999991E-002    -1.1880143545567989E-002
   9.0600000000000000E-002    -9.9305557087063789E-003
   9.0900000000000009E-002    -6.1051277443766594E-003
   9.1200000000000017E-002    -1.8583433702588081E-003
   9.1499999999999998E-002     4.8859086818993092E-003
   9.1800000000000007E-002     1.1060425080358982E-002
   9.2100000000000001E-002     1.7336938530206680E-002
   9.2399999999999996E-002     2.3328712210059166E-002
   9.2700000000000005E-002     2.6568002998828888E-002
   9.3000000000000013E-002     2.8454149141907692E-002
   9.3300000000000008E-002     2.6766492053866386E-002
   9.3600000000000003E-002     2.3983310908079147E-002
   9.3899999999999997E-002     1.8437050282955170E-002
   9.4200000000000006E-002     1.1267852038145065E-002
   9.4500000000000001E-002     4.4436636380851269E-003
   9.4800000000000009E-002    -3.0738208442926407E-003
   9.5100000000000004E-002    -8.7257055565714836E-003
   9.5399999999999999E-002    -1.3814337551593781E-002
   9.5699999999999993E-002    -1.7173809930682182E-002
   9.6000000000000002E-002    -1.7941396683454514E-002
   9.6300000000000011E-002    -1.9374022260308266E-002
   9.6600000000000005E-002    -1.7541103065013885E-002
   9.6900000000000000E-002    -1.7091231420636177E-002
   9.7200000000000009E-002    -1.5159701928496361E-002
   9.7499999999999989E-002    -1.2645453214645386E-002
   9.7799999999999998E-002    -1.0776948183774948E-002
   9.8100000000000007E-002    -8.3772111684083939E-003
   9.8400000000000015E-002    -6.1569772660732269E-003
   9.8699999999999996E-002    -4.0762447752058506E-003
   9.9000000000000005E-002    -1.2451567454263568E-003
   9.9300000000000013E-002    -9.4529357738792896E-004
   9.9599999999999994E-002     3.4914395655505359E-004
   9.9900000000000003E-002    -9.2143053188920021E-004
  0.10020000000000001         -1.7128055915236473E-003
  0.10049999999999999         -5.0403084605932236E-003
  0.10080000000000000         -8.2643963396549225E-003
  0.10110000000000001         -1.2102347798645496E-002
  0.10140000000000000         -1.5934271737933159E-002
  0.10170000000000000         -1.8054982647299767E-002
  0.10200000000000001         -1.9219273701310158E-002
  0.10230000000000002         -1.9161822274327278E-002
  0.10260000000000000         -1.5841810032725334E-002
  0.10290000000000001         -1.2359535321593285E-002
  0.10320000000000000         -6.3181738369166851E-003
  0.10350000000000001         -1.0382577311247587E-003
  0.10380000000000000          5.3455992601811886E-003
  0.10410000000000001          1.0398591868579388E-002
  0.10440000000000001          1.5117439441382885E-002
  0.10470000000000000          1.8208667635917664E-002
  0.10500000000000000          2.0840037614107132E-002
  0.10530000000000000          2.1607235074043274E-002
  0.10560000000000000          2.2650780156254768E-002
  0.10590000000000001          2.1672066301107407E-002
  0.10620000000000000          2.0960021764039993E-002
  0.10650000000000001          1.8496064469218254E-002
  0.10679999999999999          1.5947978943586349E-002
  0.10710000000000000          1.1150222271680832E-002
  0.10740000000000001          6.4010489732027054E-003
  0.10770000000000000          8.8936969405040145E-005
  0.10800000000000000         -6.6041154786944389E-003
  0.10830000000000001         -1.3055797666311264E-002
  0.10859999999999999         -1.8999591469764709E-002
  0.10890000000000000         -2.3280968889594078E-002
  0.10920000000000001         -2.5774322450160980E-002
  0.10950000000000001         -2.5318138301372528E-002
  0.10979999999999999         -2.3310458287596703E-002
  0.11009999999999999         -1.8312582746148109E-002
  0.11040000000000001         -1.2236770242452621E-002
  0.11070000000000001         -4.9006459303200245E-003
  0.11100000000000000          2.2263263817876577E-003
  0.11130000000000000          8.6917607113718987E-003
  0.11160000000000002          1.4518187381327152E-002
  0.11190000000000001          1.8216703087091446E-002
  0.11220000000000001          2.0117098465561867E-002
  0.11250000000000000          2.1575793623924255E-002
  0.11280000000000000          2.0231029018759727E-002
  0.11309999999999999          1.9735652953386307E-002
  0.11340000000000001          1.7268050462007523E-002
  0.11369999999999998          1.4821661636233330E-002
  0.11400000000000000          1.1835154145956039E-002
  0.11430000000000000          7.8429654240608215E-003
  0.11460000000000002          4.1335630230605602E-003
  0.11489999999999999         -1.0653212666511536E-003
  0.11520000000000001         -6.0543161816895008E-003
  0.11550000000000001         -1.0643703863024712E-002
  0.11580000000000000         -1.5342531725764275E-002
  0.11609999999999999         -1.8228733912110329E-002
  0.11640000000000002         -2.1022813394665718E-002
  0.11670000000000001         -2.0189657807350159E-002
  0.11700000000000001         -1.9593497738242149E-002
  0.11730000000000000         -1.6759211197495461E-002
  0.11760000000000000         -1.1982703581452370E-002
  0.11789999999999999         -8.2603804767131805E-003
  0.11820000000000001         -2.4920564610511065E-003
  0.11850000000000001          1.8190743867307901E-003
  0.11880000000000000          5.5697541683912277E-003
  0.11910000000000000          9.5520671457052231E-003
  0.11940000000000002          1.0652422904968262E-002
  0.11970000000000001          1.3132646679878235E-002
  0.12000000000000001          1.2824333272874355E-002
  0.12030000000000000          1.3227350078523159E-002
  0.12060000000000000          1.2989719398319721E-002
  0.12089999999999999          1.1657048948109150E-002
  0.12119999999999999          1.0733429342508316E-002
  0.12150000000000001          7.6120481826364994E-003
  0.12180000000000001          5.8668241836130619E-003
  0.12210000000000000          1.4870538143441081E-003
  0.12239999999999999         -3.3491703215986490E-003
  0.12270000000000002         -7.4756680987775326E-003
  0.12300000000000001         -1.3336686417460442E-002
  0.12330000000000001         -1.6461716964840889E-002
  0.12360000000000000         -2.0046891644597054E-002
  0.12390000000000000         -2.1791100502014160E-002
  0.12419999999999999         -2.0708495751023293E-002
  0.12450000000000001         -1.9237333908677101E-002
  0.12480000000000001         -1.3980123214423656E-002
  0.12509999999999999         -9.8755089566111565E-003
  0.12540000000000001         -3.6114065442234278E-003
  0.12570000000000003          3.2648895867168903E-003
  0.12600000000000000          8.6244577541947365E-003
  0.12630000000000002          1.4850287698209286E-002
  0.12659999999999999          1.8233194947242737E-002
  0.12690000000000001          2.2517915815114975E-002
  0.12719999999999998          2.4484746158123016E-002
  0.12750000000000000          2.5130420923233032E-002
  0.12780000000000002          2.5411382317543030E-002
  0.12809999999999999          2.2657612338662148E-002
  0.12840000000000001          2.0442048087716103E-002
  0.12869999999999998          1.5992397442460060E-002
  0.12900000000000000          1.0176301002502441E-002
  0.12930000000000003          4.1880542412400246E-003
  0.12959999999999999         -3.5430914722383022E-003
  0.12990000000000002         -9.5374910160899162E-003
  0.13019999999999998         -1.7112612724304199E-002
  0.13050000000000000         -2.2571975365281105E-002
  0.13080000000000003         -2.6431130245327950E-002
  0.13109999999999999         -2.9215257614850998E-002
  0.13140000000000002         -2.8440618887543678E-002
  0.13169999999999998         -2.7291839942336082E-002
  0.13200000000000001         -2.2675231099128723E-002
  0.13229999999999997         -1.7472837120294571E-002
  0.13260000000000000         -1.0953187942504883E-002
  0.13290000000000002         -3.8033653981983662E-003
  0.13319999999999999          1.8804600695148110E-003
  0.13350000000000001          8.7228789925575256E-003
  0.13380000000000003          1.3513657264411449E-002
  0.13410000000000000          1.7369102686643600E-002
  0.13440000000000002          2.0766733214259148E-002
  0.13469999999999999          2.1701119840145111E-002
  0.13500000000000001          2.3094238713383675E-002
  0.13529999999999998          2.1752532571554184E-002
  0.13560000000000000          2.0104628056287766E-002
  0.13590000000000002          1.6859170049428940E-002
  0.13619999999999999          1.2534631416201591E-002
  0.13650000000000001          7.8805610537528992E-003
  0.13680000000000003          1.3522126246243715E-003
  0.13710000000000000         -4.3612346053123474E-003
  0.13740000000000002         -1.0379168204963207E-002
  0.13769999999999999         -1.5629002824425697E-002
  0.13800000000000001         -1.9623093307018280E-002
  0.13829999999999998         -2.3282596841454506E-002
  0.13860000000000000         -2.3420834913849831E-002
  0.13890000000000002         -2.3449663072824478E-002
  0.13919999999999999         -2.1131709218025208E-002
  0.13950000000000001         -1.7184711992740631E-002
  0.13979999999999998         -1.3351923786103725E-002
  0.14010000000000000         -6.8062781356275082E-003
  0.14040000000000002         -1.9292485667392612E-003
  0.14069999999999999          4.2379782535135746E-003
  0.14100000000000001          9.0582408010959625E-003
  0.14130000000000004          1.3721056282520294E-002
  0.14160000000000000          1.7804935574531555E-002
  0.14189999999999997          1.9890498369932175E-002
  0.14219999999999999          2.1735807880759239E-002
  0.14250000000000002          2.1909752860665321E-002
  0.14279999999999998          2.1325573325157166E-002
  0.14310000000000000          1.9080512225627899E-002
  0.14339999999999997          1.5116961672902107E-002
  0.14369999999999999          1.0952255688607693E-002
  0.14400000000000002          5.1706186495721340E-003
  0.14429999999999998         -7.7061291085556149E-004
  0.14460000000000001         -6.9098914973437786E-003
  0.14490000000000003         -1.2879784218966961E-002
  0.14520000000000000         -1.6851117834448814E-002
  0.14550000000000002         -2.1133432164788246E-002
  0.14579999999999999         -2.2248718887567520E-002
  0.14610000000000001         -2.2945668548345566E-002
  0.14640000000000003         -2.1989360451698303E-002
  0.14670000000000000         -1.8423415720462799E-002
  0.14699999999999996         -1.5465315431356430E-002
  0.14729999999999999         -1.0435472242534161E-002
  0.14760000000000001         -5.2898116409778595E-003
  0.14789999999999998          1.3385422062128782E-004
  0.14820000000000000          6.0315746814012527E-003