  -1.4999999999999999E-002     0.0000000000000000     
  -1.4700000000000000E-002     0.0000000000000000     
  -1.4400000000000000E-002     0.0000000000000000     
  -1.4100000000000000E-002     0.0000000000000000     
  -1.3800000000000000E-002     0.0000000000000000     
  -1.3500000000000000E-002     0.0000000000000000     
  -1.3200000000000000E-002     0.0000000000000000     
  -1.2899999999999998E-002     0.0000000000000000     
  -1.2600000000000000E-002     0.0000000000000000     
  -1.2299999999999998E-002     0.0000000000000000     
  -1.2000000000000000E-002     0.0000000000000000     
  -1.1699999999999999E-002     0.0000000000000000     
  -1.1399999999999999E-002     0.0000000000000000     
  -1.1099999999999999E-002     0.0000000000000000     
  -1.0799999999999999E-002     0.0000000000000000     
  -1.0499999999999999E-002     2.7678082929743062E-037
  -1.0199999999999999E-002     9.9595927410817821E-036
  -9.8999999999999991E-003    -3.7960382889633345E-035
  -9.5999999999999992E-003     1.1961898345893735E-034
  -9.2999999999999992E-003     2.5630333451705910E-034
  -8.9999999999999993E-003    -1.1506777244789124E-033
  -8.6999999999999994E-003    -6.4439044716966685E-033
  -8.3999999999999995E-003     1.9880681133297315E-032
  -8.0999999999999996E-003     5.4021578587071071E-032
  -7.7999999999999988E-003    -1.7704620659291806E-031
  -7.4999999999999997E-003    -3.7967081323441344E-031
  -7.1999999999999998E-003     1.0634024253760885E-030
  -6.8999999999999981E-003     2.3241020923864792E-030
  -6.5999999999999982E-003    -3.6726353874906156E-030
  -6.3000000000000000E-003    -1.2781304029558351E-029
  -6.0000000000000001E-003    -4.4370076066342230E-030
  -5.6999999999999985E-003     6.7128689213753330E-029
  -5.3999999999999986E-003     1.6772198188586123E-028
  -5.1000000000000004E-003    -4.1520083736512440E-028
  -4.7999999999999987E-003    -9.6301182066684961E-028
  -4.5000000000000005E-003     1.5411427751918851E-027
  -4.1999999999999989E-003     3.8019156268798500E-027
  -3.8999999999999990E-003    -3.8576062308739561E-027
  -3.5999999999999990E-003    -4.7267858575545900E-027
  -3.2999999999999991E-003    -5.5881125243414278E-027
  -2.9999999999999992E-003    -6.5112438373621750E-026
  -2.6999999999999993E-003     2.9195008805890469E-025
  -2.3999999999999994E-003    -2.8096525051171266E-026
  -2.0999999999999977E-003    -1.1620631982067807E-024
  -1.7999999999999995E-003     1.9644678176054707E-024
  -1.4999999999999979E-003    -2.0262771869180297E-024
  -1.1999999999999997E-003    -2.3183669008638748E-025
  -8.9999999999999976E-004     1.3823129425481015E-023
  -5.9999999999999810E-004    -2.9254462108843268E-023
  -2.9999999999999992E-004     9.4490352747790286E-024
   0.0000000000000000          3.7876778875246899E-023
   3.0000000000000165E-004    -1.1105294112617436E-022
   5.9999999999999984E-004     2.7501093000663408E-022
   9.0000000000000149E-004    -1.9871558367214571E-022
   1.2000000000000031E-003    -8.1079898266728200E-022
   1.5000000000000013E-003     2.3860546320144543E-021
   1.8000000000000030E-003    -2.4682835016710622E-021
   2.1000000000000012E-003    -2.9411259218719837E-021
   2.3999999999999994E-003     1.6554390714060894E-020
   2.7000000000000010E-003    -2.1450033072767337E-020
   2.9999999999999992E-003    -2.0365212015308683E-020
   3.3000000000000008E-003     9.7084650364284015E-020
   3.6000000000000025E-003    -8.7442023242963353E-020
   3.9000000000000007E-003    -1.3232615743303102E-019
   4.2000000000000023E-003     4.3124975612373889E-019
   4.5000000000000005E-003    -2.6041638258949372E-019
   4.7999999999999987E-003    -7.7393938280783017E-019
   5.1000000000000004E-003     1.5639792719164080E-018
   5.4000000000000020E-003     2.7420045081915269E-020
   5.7000000000000037E-003    -3.3635250823606168E-018
   5.9999999999999984E-003     3.4185683917405215E-018
   6.3000000000000000E-003     3.2802851980473010E-018
   6.6000000000000017E-003    -1.0281801050326005E-017
   6.9000000000000034E-003     3.1958977654235735E-018
   7.2000000000000015E-003     1.8341560561437516E-017
   7.5000000000000032E-003    -2.2526597560175310E-017
   7.8000000000000014E-003    -1.7146830154012935E-017
   8.0999999999999996E-003     6.0001799483333834E-017
   8.4000000000000012E-003    -2.4643492120153322E-017
   8.7000000000000029E-003    -9.7856464653896174E-017
   9.0000000000000011E-003     1.6232758339108905E-016
   9.2999999999999992E-003     3.8253612150109345E-017
   9.6000000000000009E-003    -4.0617943666556219E-016
   9.8999999999999991E-003     3.4728996945660754E-016
   1.0200000000000001E-002     5.1266119052585913E-016
   1.0500000000000002E-002    -1.3066302634509514E-015
   1.0800000000000004E-002     3.1628661131950878E-016
   1.1099999999999999E-002     2.5614702097397037E-015
   1.1400000000000000E-002    -3.4720486604290176E-015
   1.1700000000000002E-002    -2.0209034457280156E-015
   1.2000000000000004E-002     9.6020000812229594E-015
   1.2300000000000002E-002    -5.7043819780847091E-015
   1.2600000000000000E-002    -1.3915285991279624E-014
   1.2900000000000002E-002     2.6905521990344716E-014
   1.3200000000000000E-002    -1.0771833248060839E-015
   1.3500000000000002E-002    -5.3856395291740335E-014
   1.3800000000000003E-002     6.1828015155693259E-014
   1.4100000000000001E-002     3.7483371511297394E-014
   1.4400000000000000E-002    -1.6017517312215569E-013
   1.4700000000000001E-002     1.0996351773365542E-013
   1.4999999999999999E-002     1.7014825926255306E-013
   1.5300000000000001E-002    -3.9404231902032542E-013
   1.5600000000000003E-002     1.4806738679019371E-013
   1.5899999999999997E-002     5.0540486394816043E-013
   1.6199999999999999E-002    -8.0604522083738386E-013
   1.6500000000000001E-002     1.2692012882162825E-013
   1.6800000000000002E-002     9.8795080945386752E-013
   1.7100000000000004E-002    -1.2804714893181629E-012
   1.7400000000000006E-002     4.7342293569310947E-013
   1.7700000000000000E-002     7.7797346346548027E-013
   1.8000000000000002E-002    -2.6022071759473428E-012
   1.8300000000000004E-002     1.9975786126266383E-012
   1.8600000000000005E-002     9.0640001403128905E-012
   1.8900000000000000E-002    -7.6386489918888489E-012
   1.9200000000000002E-002    -7.7375099018893571E-011
   1.9500000000000003E-002     1.3302715224541923E-010
   1.9799999999999998E-002     3.7104149862746795E-010
   2.0100000000000000E-002    -1.1950726779366646E-009
   2.0400000000000001E-002    -7.1691511319336878E-010
   2.0700000000000003E-002     6.4506725722434789E-009
   2.0999999999999998E-002    -2.0014240224188399E-009
   2.1299999999999999E-002    -2.6439713067679979E-008
   2.1600000000000001E-002     2.1255108044389935E-008
   2.1900000000000003E-002     9.4414118800433501E-008
   2.2200000000000004E-002    -1.0501999007237106E-007
   2.2500000000000006E-002    -3.5322982633000642E-007
   2.2800000000000001E-002     6.5527651295415194E-007
   2.3100000000000002E-002     4.0690565771474312E-006
   2.3400000000000004E-002     9.4527316698104222E-006
   2.3699999999999999E-002     1.5238508603810101E-005
   2.4000000000000000E-002     2.0405134143560984E-005
   2.4300000000000002E-002     2.6659005122868225E-005
   2.4599999999999997E-002     3.8691855553572201E-005
   2.4900000000000005E-002     5.9942291756259671E-005
   2.5200000000000000E-002     9.0853256616320321E-005
   2.5499999999999995E-002     1.3410403780546743E-004
   2.5800000000000003E-002     1.9533721692208302E-004
   2.6099999999999998E-002     2.7894787407414627E-004
   2.6400000000000007E-002     3.9214194153226398E-004
   2.6700000000000002E-002     5.4668714368858243E-004
   2.6999999999999996E-002     7.4807017515999760E-004
   2.7300000000000005E-002     9.9383863240276246E-004
   2.7600000000000000E-002     1.2843836330559688E-003
   2.7900000000000008E-002     1.6201957911418374E-003
   2.8200000000000003E-002     1.9880318358218851E-003
   2.8499999999999998E-002     2.3567333680325764E-003
   2.8800000000000006E-002     2.6760309759741446E-003
   2.9100000000000001E-002     2.8629795124228141E-003
   2.9400000000000003E-002     2.7894882584501256E-003
   2.9700000000000004E-002     2.2847585601740023E-003
   3.0000000000000006E-002     1.1286635578442519E-003
   3.0300000000000001E-002    -9.7161207870876277E-004
   3.0600000000000002E-002    -4.3832628672096779E-003
   3.0900000000000004E-002    -9.5310985934997650E-003
   3.1199999999999999E-002    -1.6886489914424707E-002
   3.1500000000000007E-002    -2.6956566155189599E-002
   3.1800000000000002E-002    -4.0279262058191323E-002
   3.2099999999999997E-002    -5.7416208449258876E-002
   3.2400000000000005E-002    -7.8890990758623936E-002
   3.2700000000000000E-002   -0.10510671392718418     
   3.3000000000000002E-002   -0.13631192275773696     
   3.3300000000000003E-002   -0.17256831129237415     
   3.3599999999999998E-002   -0.21369383557617461     
   3.3900000000000000E-002   -0.25924165908347074     
   3.4200000000000001E-002   -0.30849472180489812     
   3.4500000000000003E-002   -0.36044540466720143     
   3.4799999999999998E-002   -0.41381271251949414     
   3.5099999999999999E-002   -0.46706563470080553     
   3.5400000000000001E-002   -0.51848324903614795     
   3.5699999999999996E-002   -0.56624151041990345     
   3.6000000000000004E-002   -0.60846491839365058     
   3.6299999999999999E-002   -0.64326181904266022     
   3.6600000000000008E-002   -0.66877649097830272     
   3.6900000000000002E-002   -0.68322604913371521     
   3.7199999999999997E-002   -0.68491200165522770     
   3.7500000000000006E-002   -0.67223512832491039     
   3.7800000000000000E-002   -0.64362832679101700     
   3.8100000000000009E-002   -0.59763019718871213     
   3.8400000000000004E-002   -0.53280441706011317     
   3.8699999999999998E-002   -0.44782284795566074     
   3.9000000000000007E-002   -0.34155418893055201     
   3.9300000000000002E-002   -0.21327967788196656     
   3.9600000000000003E-002    -6.2785088120469457E-002
   3.9900000000000005E-002    0.10935413303378594     
   4.0200000000000000E-002    0.30142121583231862     
   4.0500000000000001E-002    0.51044847401638016     
   4.0800000000000003E-002    0.73188810214833566     
   4.1100000000000005E-002    0.95961801140778746     
   4.1399999999999999E-002     1.1858863382921285     
   4.1700000000000008E-002     1.4016506683907366     
   4.2000000000000003E-002     1.5968477198877267     
   4.2299999999999997E-002     1.7610455934120424     
   4.2600000000000006E-002     1.8843511516992280     
   4.2900000000000001E-002     1.9580440286517771     
   4.3200000000000002E-002     1.9756660267542614     
   4.3500000000000004E-002     1.9337970498817540     
   4.3799999999999999E-002     1.8326048603986322     
   4.4100000000000000E-002     1.6764057938056638     
   4.4400000000000002E-002     1.4735993608432096     
   4.4700000000000004E-002     1.2363783816851033     
   4.4999999999999998E-002    0.98004455584956318     
   4.5300000000000000E-002    0.72172339198900204     
   4.5600000000000002E-002    0.47915108850201360     
   4.5899999999999996E-002    0.26903698068761317     
   4.6200000000000005E-002    0.10577977842414499     
   4.6500000000000000E-002    -2.5915655611619126E-004
   4.6799999999999994E-002    -4.3645529268420580E-002
   4.7100000000000003E-002    -2.4288586577480231E-002
   4.7399999999999998E-002     5.1785278895391973E-002
   4.7700000000000006E-002    0.17360769431370748     
   4.8000000000000001E-002    0.32526180679175098     
   4.8300000000000010E-002    0.48775244463620382     
   4.8600000000000004E-002    0.63991730316612205     
   4.8899999999999999E-002    0.76043074609007988     
   4.9200000000000008E-002    0.82920250361130243     
   4.9500000000000002E-002    0.82843092991936373     
   4.9800000000000011E-002    0.74468504589860407     
   5.0100000000000006E-002    0.56863518775317168     
   5.0400000000000000E-002    0.29685119503452206     
   5.0700000000000009E-002    -6.8794222874754229E-002
   5.1000000000000004E-002   -0.52078276426327896     
   5.1299999999999998E-002    -1.0456290077276726     
   5.1600000000000007E-002    -1.6252150210553111     
   5.1900000000000002E-002    -2.2357132722916049     
   5.2200000000000010E-002    -2.8502927353201670     
   5.2500000000000005E-002    -3.4378678601679553     
   5.2800000000000000E-002    -3.9661487659953565     
   5.3099999999999994E-002    -4.4017523309165938     
   5.3400000000000003E-002    -4.7129414792239004     
   5.3699999999999998E-002    -4.8711781730362702     
   5.4000000000000006E-002    -4.8533125021868102     
   5.4300000000000001E-002    -4.6444362395373560     
   5.4599999999999996E-002    -4.2388057133691959     
   5.4900000000000004E-002    -3.6429677921209205     
   5.5199999999999999E-002    -2.8747556455343730     
   5.5499999999999994E-002    -1.9652777597339792     
   5.5800000000000002E-002   -0.95616702583445345     
   5.6099999999999997E-002    0.10162349351717559     
   5.6400000000000006E-002     1.1507673694018585     
   5.6700000000000000E-002     2.1325786346055224     
   5.6999999999999995E-002     2.9895837784681589     
   5.7300000000000004E-002     3.6718064298982824     
   5.7599999999999998E-002     4.1392514705248118     
   5.7900000000000007E-002     4.3663140688473874     
   5.8200000000000002E-002     4.3433810370382417     
   5.8499999999999996E-002     4.0774538995004761     
   5.8800000000000005E-002     3.5925701826378802     
   5.9100000000000000E-002     2.9264751996564726     
   5.9400000000000008E-002     2.1289668310137131     
   5.9700000000000003E-002     1.2565663565407093     
   6.0000000000000012E-002    0.36910652820283474     
   6.0300000000000006E-002   -0.47516835206677976     
   6.0600000000000001E-002    -1.2241004695471283     
   6.0900000000000010E-002    -1.8339651965130201     
   6.1200000000000004E-002    -2.2734793363736685     
   6.1500000000000013E-002    -2.5232319450284351     
   6.1800000000000008E-002    -2.5777512354250334     
   6.2100000000000002E-002    -2.4434697905448122     
   6.2399999999999997E-002    -2.1376732417504511     
   6.2700000000000006E-002    -1.6861695389377651     
   6.3000000000000000E-002    -1.1203923782908234     
   6.3300000000000009E-002   -0.47538718337990105     
   6.3600000000000004E-002    0.21396809196116795     
   6.3899999999999998E-002    0.91344520570076426     
   6.4199999999999993E-002     1.5927088568303631     
   6.4500000000000002E-002     2.2256282770910758     
   6.4800000000000010E-002     2.7911053396009891     
   6.5100000000000005E-002     3.2736705845565126     
   6.5400000000000000E-002     3.6621904713273352     
   6.5700000000000008E-002     3.9506988263628529     
   6.5999999999999989E-002     4.1362941660886463     
   6.6299999999999998E-002     4.2198046191510059     
   6.6600000000000006E-002     4.2039824397044470     
   6.6900000000000001E-002     4.0936894805833646     
   6.7199999999999996E-002     3.8951941121855072     
   6.7500000000000004E-002     3.6160674601687219     
   6.7800000000000013E-002     3.2652725792146740     
   6.8099999999999994E-002     2.8525520890426890     
   6.8400000000000002E-002     2.3895408275422376     
   6.8700000000000011E-002     1.8888272791805765     
   6.8999999999999992E-002     1.3640760253016335     
   6.9300000000000000E-002    0.82988341611427785     
   6.9600000000000009E-002    0.30073139331022247     
   6.9900000000000004E-002   -0.20857291489441088     
   7.0199999999999999E-002   -0.68534363102896734     
   7.0500000000000007E-002    -1.1178561773933744     
   7.0800000000000016E-002    -1.4979031484592795     
   7.1099999999999997E-002    -1.8197148753776204     
   7.1400000000000005E-002    -2.0815983009038064     
   7.1700000000000000E-002    -2.2854958023188345     
   7.1999999999999995E-002    -2.4364439290245627     
   7.2300000000000003E-002    -2.5428476432080345     
   7.2600000000000012E-002    -2.6150562704385152     
   7.2900000000000006E-002    -2.6644948462791547     
   7.3200000000000001E-002    -2.7029918110212350     
   7.3499999999999996E-002    -2.7415204177793413     
   7.3800000000000004E-002    -2.7892713092561081     
   7.4099999999999999E-002    -2.8531285742510448     
   7.4400000000000008E-002    -2.9365265458664283     
   7.4700000000000003E-002    -3.0404006742703302     
   7.5000000000000011E-002    -3.1618070179250424     
   7.5299999999999992E-002    -3.2957360194066325     
   7.5600000000000001E-002    -3.4337486393256000     
   7.5900000000000009E-002    -3.5671280811786090     
   7.6200000000000004E-002    -3.6844336774510538     
   7.6499999999999999E-002    -3.7754736978794199     
   7.6800000000000007E-002    -3.8291403899177823     
   7.7099999999999988E-002    -3.8357625366190575     
   7.7399999999999997E-002    -3.7873791627456654     
   7.7700000000000005E-002    -3.6774854968358994     
   7.8000000000000014E-002    -3.5026302832546889     
   7.8299999999999995E-002    -3.2614397299511921     
   7.8600000000000003E-002    -2.9571068481731544     
   7.8900000000000012E-002    -2.5953182422643835     
   7.9199999999999993E-002    -2.1872123246679962     
   7.9500000000000001E-002    -1.7469749812557538     
   7.9800000000000010E-002    -1.2940605919152119     
   8.0100000000000018E-002   -0.85071411925863671     
   8.0399999999999999E-002   -0.44225355792116972     
   8.0700000000000008E-002    -9.3853517729902691E-002
   8.1000000000000003E-002    0.17070802002499530     
   8.1299999999999997E-002    0.33296947445057867     
   8.1600000000000006E-002    0.38225634817808007     
   8.1900000000000014E-002    0.32051276231522152     
   8.2199999999999995E-002    0.16246279954446763     
   8.2500000000000004E-002    -5.9485835827052469E-002
   8.2799999999999999E-002   -0.29785076087306184     
   8.3100000000000007E-002   -0.49018754633318373     
   8.3400000000000002E-002   -0.56416027979804184     
   8.3700000000000011E-002   -0.44336491976804027     
   8.4000000000000005E-002    -5.5426250137351474E-002
   8.4300000000000000E-002    0.65632730509874815     
   8.4599999999999995E-002     1.7265255845519292     
   8.4900000000000003E-002     3.1541867250400060     
   8.5199999999999998E-002     4.9001002340581579     
   8.5500000000000007E-002     6.8800365750757635     
   8.5800000000000001E-002     8.9677744474706458     
   8.6100000000000010E-002     11.000868477372080     
   8.6399999999999991E-002     12.790743498001035     
   8.6699999999999999E-002     14.140623402014516     
   8.7000000000000008E-002     14.861977621481003     
   8.7300000000000003E-002     14.797138027962490     
   8.7599999999999997E-002     13.836575554447222     
   8.7900000000000006E-002     11.936873237262489     
   8.8200000000000014E-002     9.1314402540374999     
   8.8499999999999995E-002     5.5340847033848490     
   8.8800000000000004E-002     1.3369922306305284     
   8.9100000000000013E-002    -3.2027433475414639     
   8.9399999999999993E-002    -7.7798913490547648     
   8.9700000000000002E-002    -12.066689492209605     
   9.0000000000000011E-002    -15.739820971474785     
   9.0299999999999991E-002    -18.507583191112246     
   9.0600000000000000E-002    -20.137612303169874     
   9.0900000000000009E-002    -20.474500833623381     
   9.1200000000000017E-002    -19.457367102730529     
   9.1499999999999998E-002    -17.121941960498134     
   9.1800000000000007E-002    -13.599618811667142     
   9.2100000000000001E-002    -9.1057304782017354     
   9.2399999999999996E-002    -3.9207227656285681     
   9.2700000000000005E-002     1.6311511649815458     
   9.3000000000000013E-002     7.2091096629908691     
   9.3300000000000008E-002     12.479900029464517     
   9.3600000000000003E-002     17.141407289736321     
   9.3899999999999997E-002     20.941986106430022     
   9.4200000000000006E-002     23.692032580894477     
   9.4500000000000001E-002     25.276390992207411     
   9.4800000000000009E-002     25.648441539816474     
   9.5100000000000004E-002     24.834796850148152     
   9.5399999999999999E-002     22.919220134386450     
   9.5699999999999993E-002     20.037195868331310     
   9.6000000000000002E-002     16.360734723733231     
   9.6300000000000011E-002     12.083919115687422     
   9.6600000000000005E-002     7.4139863621574591     
   9.6900000000000000E-002     2.5546617330923880     
   9.7200000000000009E-002    -2.2960721814909277     
   9.7499999999999989E-002    -6.9621564218846999     
   9.7799999999999998E-002    -11.285386942040049     
   9.8100000000000007E-002    -15.137407419198951     
   9.8400000000000015E-002    -18.415612538322478     
   9.8699999999999996E-002    -21.046853954342964     
   9.9000000000000005E-002    -22.988140226669543     
   9.9300000000000013E-002    -24.220704276446554     
   9.9599999999999994E-002    -24.755887320311956     
   9.9900000000000003E-002    -24.622385384789595     
  0.10020000000000001         -23.874767752489845     
  0.10049999999999999         -22.577866042246939     
  0.10080000000000000         -20.813632937152789     
  0.10110000000000001         -18.667799749985171     
  0.10140000000000000         -16.232406245286867     
  0.10170000000000000         -13.596391500510208     
  0.10200000000000001         -10.846499814650741     
  0.10230000000000002         -8.0593706415476731     
  0.10260000000000000         -5.3038731807506849     
  0.10290000000000001         -2.6347424093024756     
  0.10320000000000000         -9.5820495344142387E-002
  0.10350000000000001          2.2821483715575712     
  0.10380000000000000          4.4801868855741276     
  0.10410000000000001          6.4872151653490846     
  0.10440000000000001          8.3014506146661233     
  0.10470000000000000          9.9237639751320330     
  0.10500000000000000          11.358600647948379     
  0.10530000000000000          12.607940023231549     
  0.10560000000000000          13.672491191150129     
  0.10590000000000001          14.546930516706198     
  0.10620000000000000          15.223941718367200     
  0.10650000000000001          15.688131275163414     
  0.10679999999999999          15.925743923865184     
  0.10710000000000000          15.917454953203844     
  0.10740000000000001          15.649761323354369     
  0.10770000000000000          15.111151616152085     
  0.10800000000000000          14.298418292252251     
  0.10830000000000001          13.219487320278233     
  0.10859999999999999          11.890006687115147     
  0.10890000000000000          10.343292776655682     
  0.10920000000000001          8.6163749575264319     
  0.10950000000000001          6.7639879565176813     
  0.10979999999999999          4.8395532980561882     
  0.11009999999999999          2.9080559165903139     
  0.11040000000000001          1.0277905324921335     
  0.11070000000000001        -0.74296592684272866     
  0.11100000000000000         -2.3539360797072533     
  0.11130000000000000         -3.7680105286634529     
  0.11160000000000002         -4.9551234392175871     
  0.11190000000000001         -5.9052120362231051     
  0.11220000000000001         -6.6145586739038436     
  0.11250000000000000         -7.0991069517674248     
  0.11280000000000000         -7.3801647241198509     
  0.11309999999999999         -7.4913705650678821     
  0.11340000000000001         -7.4683699749662082     
  0.11369999999999998         -7.3523350363700217     
  0.11400000000000000         -7.1802682654760304     
  0.11430000000000000         -6.9872225828491707     
  0.11460000000000002         -6.8002428105317279     
  0.11489999999999999         -6.6379771408926729     
  0.11520000000000001         -6.5086125738162650     
  0.11550000000000001         -6.4103104916677012     
  0.11580000000000000         -6.3313082585976872     
  0.11609999999999999         -6.2512401257477421     
  0.11640000000000002         -6.1444813658040260     
  0.11670000000000001         -5.9807168101514776     
  0.11700000000000001         -5.7326042444808820     
  0.11730000000000000         -5.3731024417819668     
  0.11760000000000000         -4.8853735359854404     
  0.11789999999999999         -4.2586469319331197     
  0.11820000000000001         -3.4958599207806458     
  0.11850000000000001         -2.6092910630690511     
  0.11880000000000000         -1.6244057803678089     
  0.11910000000000000        -0.57480715634249435     
  0.11940000000000002         0.49836287580113581     
  0.11970000000000001          1.5493957178639342     
  0.12000000000000001          2.5330707554840757     
  0.12030000000000000          3.4063932510397876     
  0.12060000000000000          4.1342957767989503     
  0.12089999999999999          4.6887611598966430     
  0.12119999999999999          5.0543886255981647     
  0.12150000000000001          5.2265134815022520     
  0.12180000000000001          5.2117361664287927     
  0.12210000000000000          5.0274034881434773     
  0.12239999999999999          4.6993501251898877     
  0.12270000000000002          4.2597866701067844     
  0.12300000000000001          3.7437118132649658     
  0.12330000000000001          3.1897943102932498     
  0.12360000000000000          2.6319866026982073     
  0.12390000000000000          2.1056568048154034     
  0.12419999999999999          1.6374182345695711     
  0.12450000000000001          1.2515140279006367     
  0.12480000000000001         0.96217473244468898     
  0.12509999999999999         0.77999937826371024     
  0.12540000000000001         0.70369934088780539     
  0.12570000000000003         0.72916650600074107     
  0.12600000000000000         0.84075947491834313     
  0.12630000000000002          1.0185253879063296     
  0.12659999999999999          1.2365528916979756     
  0.12690000000000001          1.4637508440642861     
  0.12719999999999998          1.6678503303726799     
  0.12750000000000000          1.8151472383678140     
  0.12780000000000002          1.8767980768009451     
  0.12809999999999999          1.8256513351120027     
  0.12840000000000001          1.6475348895739792     
  0.12869999999999998          1.3322081642110817     
  0.12900000000000000         0.88620032299593987     
  0.12930000000000003         0.32422730458374005     
  0.12959999999999999        -0.32594914732547764     
  0.12990000000000002         -1.0268144108582078     
  0.13019999999999998         -1.7360343123412676     
  0.13050000000000000         -2.4051418908872151     
  0.13080000000000003         -2.9894408475971375     
  0.13109999999999999         -3.4462054629120900     
  0.13140000000000002         -3.7436583536022283     
  0.13169999999999998         -3.8613771470510869     
  0.13200000000000001         -3.7897750397857379     
  0.13229999999999997         -3.5393948220323885     
  0.13260000000000000         -3.1274755921348216     
  0.13290000000000002         -2.5900548169367887     
  0.13319999999999999         -1.9649875457805592     
  0.13350000000000001         -1.3030471892466053     
  0.13380000000000003        -0.64820139410335287     
  0.13410000000000000         -4.7787872490339112E-002
  0.13440000000000002         0.46061992287129438     
  0.13469999999999999         0.84931273287481091     
  0.13500000000000001          1.0986578789127357     
  0.13529999999999998          1.2065959427944328     
  0.13560000000000000          1.1766631076661493     
  0.13590000000000002          1.0297113248069740     
  0.13619999999999999         0.78949330170077303     
  0.13650000000000001         0.48989747373200387     
  0.13680000000000003         0.16557888932702269     
  0.13710000000000000        -0.14825651387703020     
  0.13740000000000002        -0.41920818420129891     
  0.13769999999999999        -0.62073635931978899     
  0.13800000000000001        -0.73375829644671597     
  0.13829999999999998        -0.74750937224402136     
  0.13860000000000000        -0.66119598176620098     
  0.13890000000000002        -0.48192862457239904     
  0.13919999999999999        -0.22591342378566104     
  0.13950000000000001          8.4957810793196642E-002
  0.13979999999999998         0.42333901600109947     
  0.14010000000000000         0.76054164390947676     
  0.14040000000000002          1.0670913439917662     
  0.14069999999999999          1.3173134411566778     
  0.14100000000000001          1.4888024578504186     
  0.14130000000000004          1.5664266045805988     
  0.14160000000000000          1.5429385770007720     
  0.14189999999999997          1.4184521768752703     
  0.14219999999999999          1.2022876385099099     
  0.14250000000000002         0.91103269754525762     
  0.14279999999999998         0.56678381589624038     
  0.14310000000000000         0.19680207431370356     
  0.14339999999999997        -0.17008771993031913     
  0.14369999999999999        -0.50521697034489321     
  0.14400000000000002        -0.78236936551649805     
  0.14429999999999998        -0.98072989632277086     
  0.14460000000000001         -1.0852132742463247     
  0.14490000000000003         -1.0885614534001586     
  0.14520000000000000        -0.99258284196111379     
  0.14550000000000002        -0.80455585668749752     
  0.14579999999999999        -0.54208802173127779     
  0.14610000000000001        -0.22518395849800577     
  0.14640000000000003         0.11989673252191047     
  0.14670000000000000         0.46604629729901070     
  0.14699999999999996         0.78662155350564689     
  0.14729999999999999          1.0565113354415274     
  0.14760000000000001          1.2561283070130429     
  0.14789999999999998          1.3690979463284769     
  0.14820000000000000          1.3880018003691958     