  -1.4999999999999999E-002     0.0000000000000000     
  -1.4700000000000000E-002     0.0000000000000000     
  -1.4400000000000000E-002     7.8567576303030689E-037
  -1.4100000000000000E-002     4.9886844373726288E-032
  -1.3800000000000000E-002     9.3301935043450956E-030
  -1.3500000000000000E-002    -4.0784356344256058E-027
  -1.3200000000000000E-002    -6.4928999686287522E-026
  -1.2899999999999998E-002     2.8213967032747070E-024
  -1.2600000000000000E-002    -1.7419629821345937E-024
  -1.2299999999999998E-002    -2.2998585080464974E-022
  -1.2000000000000000E-002     7.8500022505781475E-022
  -1.1699999999999999E-002     3.9384481181939774E-021
  -1.1399999999999999E-002    -1.7048872519614790E-020
  -1.1099999999999999E-002    -3.2247073229137092E-020
  -1.0799999999999999E-002     1.3704544774976757E-019
  -1.0499999999999999E-002     3.2833538078506974E-019
  -1.0199999999999999E-002    -8.8598840290156248E-019
  -9.8999999999999991E-003    -2.0612285886096130E-018
  -9.5999999999999992E-003     2.7718901888784596E-018
  -9.2999999999999992E-003     9.9985205966657685E-018
  -8.9999999999999993E-003     3.7712632849070773E-018
  -8.6999999999999994E-003    -3.6804609132773391E-017
  -8.3999999999999995E-003    -9.0077692664480245E-017
  -8.0999999999999996E-003     8.4990119195778005E-017
  -7.7999999999999988E-003     5.4321299302822941E-016
  -7.4999999999999997E-003    -1.7881170330092528E-016
  -7.1999999999999998E-003    -1.4252742538841993E-015
  -6.8999999999999981E-003    -2.9580734406436448E-016
  -6.5999999999999982E-003     5.3306513200617336E-016
  -6.3000000000000000E-003     3.7667053504874727E-015
  -6.0000000000000001E-003     1.3497834759326932E-014
  -5.6999999999999985E-003    -2.1431543516692530E-014
  -5.3999999999999986E-003    -5.1333285694208403E-014
  -5.1000000000000004E-003     6.4343826905638029E-014
  -4.7999999999999987E-003     6.3699017596769819E-014
  -4.5000000000000005E-003    -9.6075002296743582E-014
  -4.1999999999999989E-003     2.3499943205291387E-013
  -3.8999999999999990E-003    -1.8412769158586128E-013
  -3.5999999999999990E-003    -1.4130325813829222E-012
  -3.2999999999999991E-003     2.1614726126390572E-012
  -2.9999999999999992E-003     1.4753900365234659E-012
  -2.6999999999999993E-003    -5.2415751635293071E-012
  -2.3999999999999994E-003     6.4389139295151637E-012
  -2.0999999999999977E-003    -2.7104765633400855E-012
  -1.7999999999999995E-003    -1.8374675928427029E-011
  -1.4999999999999979E-003     3.3701627721245956E-011
  -1.1999999999999997E-003    -2.5919936573314761E-012
  -8.9999999999999976E-004    -3.7512922391468991E-011
  -5.9999999999999810E-004     6.8348986081701092E-011
  -2.9999999999999992E-004    -1.0456733777476827E-010
   0.0000000000000000         -4.9128146764975873E-012
   3.0000000000000165E-004     2.8251495664667334E-010
   5.9999999999999984E-004    -4.3827296552482072E-010
   9.0000000000000149E-004     2.2042567203373870E-010
   1.2000000000000031E-003     8.0018941501916276E-010
   1.5000000000000013E-003    -2.0608990770801788E-009
   1.8000000000000030E-003     6.4665453034487905E-010
   2.1000000000000012E-003     3.7869433480213314E-009
   2.3999999999999994E-003    -5.2340882978116564E-009
   2.7000000000000010E-003    -1.1506249357692197E-009
   2.9999999999999992E-003     1.0440372550241026E-008
   3.3000000000000008E-003    -8.6129635146339491E-009
   3.6000000000000025E-003    -9.7197294676127243E-009
   3.9000000000000007E-003     2.0329085793723222E-008
   4.2000000000000023E-003    -5.0412268837414208E-010
   4.5000000000000005E-003    -2.2682763502817663E-008
   4.7999999999999987E-003     1.3607168358163909E-008
   5.1000000000000004E-003     1.1573893970128544E-008
   5.4000000000000020E-003    -1.7447136679384614E-008
   5.7000000000000037E-003     4.3629585295064646E-010
   5.9999999999999984E-003     9.5115293893843527E-009
   6.3000000000000000E-003     3.5416858495885665E-009
   6.6000000000000017E-003    -3.9326569803405367E-009
   6.9000000000000034E-003    -1.8864864071155996E-008
   7.2000000000000015E-003     1.5609055125063282E-008
   7.5000000000000032E-003     1.5272503357071415E-008
   7.8000000000000014E-003    -3.6545363804935311E-008
   8.0999999999999996E-003     2.9963838372124693E-008
   8.4000000000000012E-003     3.8447994665003296E-008
   8.7000000000000029E-003    -9.8961416309460346E-008
   9.0000000000000011E-003    -9.6148598990722049E-009
   9.2999999999999992E-003     1.3711151271806177E-007
   9.6000000000000009E-003    -5.9616233636357372E-009
   9.8999999999999991E-003    -7.6280367220551127E-008
   1.0200000000000001E-002    -7.8977816578877776E-008
   1.0500000000000002E-002    -1.8265821132380173E-007
   1.0800000000000004E-002     4.3018765151941237E-007
   1.1099999999999999E-002     1.9695459175734248E-006
   1.1400000000000000E-002     3.3575361969552144E-006
   1.1700000000000002E-002     4.4730821260273559E-006
   1.2000000000000004E-002     6.6514764907287920E-006
   1.2300000000000002E-002     1.0917893823685629E-005
   1.2600000000000000E-002     1.6961369192900199E-005
   1.2900000000000002E-002     2.5697682360766993E-005
   1.3200000000000000E-002     4.3738693614914074E-005
   1.3500000000000002E-002     7.5023373382218173E-005
   1.3800000000000003E-002     1.0502117605929676E-004
   1.4100000000000001E-002     1.1764886086239107E-004
   1.4400000000000000E-002     1.2723154352099796E-004
   1.4700000000000001E-002     1.5498957458312144E-004
   1.4999999999999999E-002     1.8790587143807441E-004
   1.5300000000000001E-002     2.0243641693504320E-004
   1.5600000000000003E-002     1.9204968182417667E-004
   1.5899999999999997E-002     1.3724136987673403E-004
   1.6199999999999999E-002    -1.1145631613100962E-005
   1.6500000000000001E-002    -3.1669835964858849E-004
   1.6800000000000002E-002    -8.7491420070795640E-004
   1.7100000000000004E-002    -1.8560860945815356E-003
   1.7400000000000006E-002    -3.5050887319182291E-003
   1.7700000000000000E-002    -6.0973470570136121E-003
   1.8000000000000002E-002    -9.9610888563117228E-003
   1.8300000000000004E-002    -1.5572769500650258E-002
   1.8600000000000005E-002    -2.3557444203677558E-002
   1.8900000000000000E-002    -3.4604846124909272E-002
   1.9200000000000002E-002    -4.9465638088964092E-002
   1.9500000000000003E-002    -6.8980445768117016E-002
   1.9799999999999998E-002    -9.4025088414505742E-002
   2.0100000000000000E-002   -0.12536791097510669     
   2.0400000000000001E-002   -0.16349579327267838     
   2.0700000000000003E-002   -0.20854213248748321     
   2.0999999999999998E-002   -0.26016313718032613     
   2.1299999999999999E-002   -0.31721621372479625     
   2.1600000000000001E-002   -0.37751011249437383     
   2.1900000000000003E-002   -0.43771528866252929     
   2.2200000000000004E-002   -0.49319810655866014     
   2.2500000000000006E-002   -0.53794740816664799     
   2.2800000000000001E-002   -0.56460547365776215     
   2.3100000000000002E-002   -0.56474896245403272     
   2.3400000000000004E-002   -0.52932977790720059     
   2.3699999999999999E-002   -0.44928991156793074     
   2.4000000000000000E-002   -0.31642510303693072     
   2.4300000000000002E-002   -0.12433380050114318     
   2.4599999999999997E-002    0.13051170815276780     
   2.4900000000000005E-002    0.44755722304964252     
   2.5200000000000000E-002    0.82131572586223611     
   2.5499999999999995E-002     1.2405459914748427     
   2.5800000000000003E-002     1.6879821238022537     
   2.6099999999999998E-002     2.1406527620086067     
   2.6400000000000007E-002     2.5707389254362951     
   2.6700000000000002E-002     2.9469716712178382     
   2.6999999999999996E-002     3.2368002076037357     
   2.7300000000000005E-002     3.4089320445371385     
   2.7600000000000000E-002     3.4363065858997999     
   2.7900000000000008E-002     3.2990651398278317     
   2.8200000000000003E-002     2.9869873996903635     
   2.8499999999999998E-002     2.5014453359879667     
   2.8800000000000006E-002     1.8569972742460479     
   2.9100000000000001E-002     1.0804431069156308     
   2.9400000000000003E-002    0.21024020988936032     
   2.9700000000000004E-002   -0.70593411187343236     
   3.0000000000000006E-002    -1.6153083102215113     
   3.0300000000000001E-002    -2.4635292370146509     
   3.0600000000000002E-002    -3.1999878763525018     
   3.0900000000000004E-002    -3.7818494230800184     
   3.1199999999999999E-002    -4.1780127084709591     
   3.1500000000000007E-002    -4.3723156381672652     
   3.1800000000000002E-002    -4.3650406332994436     
   3.2099999999999997E-002    -4.1726128146581232     
   3.2400000000000005E-002    -3.8267842973794330     
   3.2700000000000000E-002    -3.3711019458516063     
   3.3000000000000002E-002    -2.8571783928642418     
   3.3300000000000003E-002    -2.3403938310169963     
   3.3599999999999998E-002    -1.8741963310742307     
   3.3900000000000000E-002    -1.5055416166205688     
   3.4200000000000001E-002    -1.2712959548693661     
   3.4500000000000003E-002    -1.1944559255441192     
   3.4799999999999998E-002    -1.2824996020952995     
   3.5099999999999999E-002    -1.5275473184568149     
   3.5400000000000001E-002    -1.9062300333731255     
   3.5699999999999996E-002    -2.3821797517596899     
   3.6000000000000004E-002    -2.9092342014991956     
   3.6299999999999999E-002    -3.4342117938633407     
   3.6600000000000008E-002    -3.9012432627883982     
   3.6900000000000002E-002    -4.2563809836970989     
   3.7199999999999997E-002    -4.4494479586287241     
   3.7500000000000006E-002    -4.4385584680254624     
   3.7800000000000000E-002    -4.1930787289844886     
   3.8100000000000009E-002    -3.6938934058294706     
   3.8400000000000004E-002    -2.9358546795001672     
   3.8699999999999998E-002    -1.9279104255251625     
   3.9000000000000007E-002   -0.69263694815104060     
   3.9300000000000002E-002    0.73375588941608072     
   3.9600000000000003E-002     2.3036159914459660     
   3.9900000000000005E-002     3.9588279807016846     
   4.0200000000000000E-002     5.6332266734495420     
   4.0500000000000001E-002     7.2551107498992664     
   4.0800000000000003E-002     8.7492155093179633     
   4.1100000000000005E-002     10.040638240032322     
   4.1399999999999999E-002     11.056578363542570     
   4.1700000000000008E-002     11.730207060735125     
   4.2000000000000003E-002     12.004503242087765     
   4.2299999999999997E-002     11.833568008258567     
   4.2600000000000006E-002     11.188292578155824     
   4.2900000000000001E-002     10.059647365366914     
   4.3200000000000002E-002     8.4601577682046809     
   4.3500000000000004E-002     6.4294303569496662     
   4.3799999999999999E-002     4.0361093549058467     
   4.4100000000000000E-002     1.3776147584077343     
   4.4400000000000002E-002    -1.4183491714847207     
   4.4700000000000004E-002    -4.1971731476827472     
   4.4999999999999998E-002    -6.7827434132477720     
   4.5300000000000000E-002    -8.9851644281102949     
   4.5600000000000002E-002    -10.612970380669623     
   4.5899999999999996E-002    -11.486141176442612     
   4.6200000000000005E-002    -11.453832077966098     
   4.6500000000000000E-002    -10.409575471578904     
   4.6799999999999994E-002    -8.3072058296943396     
   4.7100000000000003E-002    -5.1761134508910303     
   4.7399999999999998E-002    -1.1265634033991603     
   4.7700000000000006E-002     3.6465081717883550     
   4.8000000000000001E-002     8.8675808256555797     
   4.8300000000000010E-002     14.197602095382365     
   4.8600000000000004E-002     19.251975954457237     
   4.8899999999999999E-002     23.627704372595161     
   4.9200000000000008E-002     26.938747361563884     
   4.9500000000000002E-002     28.844436772850511     
   4.9800000000000011E-002     29.081142646601847     
   5.0100000000000006E-002     27.492352776772464     
   5.0400000000000000E-002     24.040919195563959     
   5.0700000000000009E-002     18.819105983904876     
   5.1000000000000004E-002     12.049248180193985     
   5.1299999999999998E-002     4.0643413750928374     
   5.1600000000000007E-002    -4.7125872955888894     
   5.1900000000000002E-002    -13.798317487691861     
   5.2200000000000010E-002    -22.688797805413401     
   5.2500000000000005E-002    -30.890589498711392     
   5.2800000000000000E-002    -37.960710911393505     
   5.3099999999999994E-002    -43.532963585008986     
   5.3400000000000003E-002    -47.338288273005837     
   5.3699999999999998E-002    -49.224693748093813     
   5.4000000000000006E-002    -49.151689843740201     
   5.4300000000000001E-002    -47.190499544827844     
   5.4599999999999996E-002    -43.513634486855381     
   5.4900000000000004E-002    -38.367218215073990     
   5.5199999999999999E-002    -32.057330455237889     
   5.5499999999999994E-002    -24.925210752281259     
   5.5800000000000002E-002    -17.315467877511367     
   5.6099999999999997E-002    -9.5686317704786177     
   5.6400000000000006E-002    -1.9962960074923046     
   5.6700000000000000E-002     5.1347673779650336     
   5.6999999999999995E-002     11.600167055715474     
   5.7300000000000004E-002     17.232064988594402     
   5.7599999999999998E-002     21.917684055904829     
   5.7900000000000007E-002     25.591988435527242     
   5.8200000000000002E-002     28.242361084577908     
   5.8499999999999996E-002     29.895055911046114     
   5.8800000000000005E-002     30.614776860663255     
   5.9100000000000000E-002     30.494311184049991     
   5.9400000000000008E-002     29.647269786616448     
   5.9700000000000003E-002     28.204803115195546     
   6.0000000000000012E-002     26.303183789932405     
   6.0300000000000006E-002     24.077832257803720     
   6.0600000000000001E-002     21.660881787908806     
   6.0900000000000010E-002     19.167749482010890     
   6.1200000000000004E-002     16.696542994416234     
   6.1500000000000013E-002     14.323969390034563     
   6.1800000000000008E-002     12.099668336906745     
   6.2100000000000002E-002     10.050978145119359     
   6.2399999999999997E-002     8.1796332177167130     
   6.2700000000000006E-002     6.4672807033304025     
   6.3000000000000000E-002     4.8818784145599921     
   6.3300000000000009E-002     3.3793992316319716     
   6.3600000000000004E-002     1.9160535157261780     
   6.3899999999999998E-002    0.44927344968738936     
   6.4199999999999993E-002    -1.0555806923037920     
   6.4500000000000002E-002    -2.6155932353038338     
   6.4800000000000010E-002    -4.2348978994632773     
   6.5100000000000005E-002    -5.9004833769862159     
   6.5400000000000000E-002    -7.5770113081018593     
   6.5700000000000008E-002    -9.2204214663544093     
   6.5999999999999989E-002    -10.772499745134105     
   6.6299999999999998E-002    -12.164235481259354     
   6.6600000000000006E-002    -13.333306734697032     
   6.6900000000000001E-002    -14.215914519418277     
   6.7199999999999996E-002    -14.756682029371063     
   6.7500000000000004E-002    -14.921967045818349     
   6.7800000000000013E-002    -14.690149873578491     
   6.8099999999999994E-002    -14.061617046885146     
   6.8400000000000002E-002    -13.064288352934057     
   6.8700000000000011E-002    -11.740145184127016     
   6.8999999999999992E-002    -10.153484577636561     
   6.9300000000000000E-002    -8.3855406313382730     
   6.9600000000000009E-002    -6.5214901433924979     
   6.9900000000000004E-002    -4.6543129892972246     
   7.0199999999999999E-002    -2.8726545529702108     
   7.0500000000000007E-002    -1.2539985124140820     
   7.0800000000000016E-002    0.13634527012025899     
   7.1099999999999997E-002     1.2527996574192457     
   7.1400000000000005E-002     2.0722153465410997     
   7.1700000000000000E-002     2.5915963352548204     
   7.1999999999999995E-002     2.8301368413204386     
   7.2300000000000003E-002     2.8255674985231849     
   7.2600000000000012E-002     2.6299538408803897     
   7.2900000000000006E-002     2.3049383579161660     
   7.3200000000000001E-002     1.9175095492180994     
   7.3499999999999996E-002     1.5334841686918352     
   7.3800000000000004E-002     1.2123121594715016     
   7.4099999999999999E-002     1.0046045499722887     
   7.4400000000000008E-002    0.94655240532138762     
   7.4700000000000003E-002     1.0573462656093056     
   7.5000000000000011E-002     1.3417175915355197     
   7.5299999999999992E-002     1.7850470757433019     
   7.5600000000000001E-002     2.3575547040430482     
   7.5900000000000009E-002     3.0192330150913556     
   7.6200000000000004E-002     3.7168307725843590     
   7.6499999999999999E-002     4.3937701998841447     
   7.6800000000000007E-002     4.9949180427272495     
   7.7099999999999988E-002     5.4644966864091487     
   7.7399999999999997E-002     5.7593143323325648     
   7.7700000000000005E-002     5.8477702651620689     
   7.8000000000000014E-002     5.7091524254475985     
   7.8299999999999995E-002     5.3436654774385772     
   7.8600000000000003E-002     4.7657358663988134     
   7.8900000000000012E-002     4.0021149753461458     
   7.9199999999999993E-002     3.0972334865872142     
   7.9500000000000001E-002     2.1012633085878036     
   7.9800000000000010E-002     1.0685675797098071     
   8.0100000000000018E-002     6.0179263826746876E-002
   8.0399999999999999E-002   -0.87157859649121860     
   8.0700000000000008E-002    -1.6789902518056863     
   8.1000000000000003E-002    -2.3208692262322117     
   8.1299999999999997E-002    -2.7735039966168316     
   8.1600000000000006E-002    -3.0229260745153681     
   8.1900000000000014E-002    -3.0667617236391607     
   8.2199999999999995E-002    -2.9211594104992002     
   8.2500000000000004E-002    -2.6094783789724829     
   8.2799999999999999E-002    -2.1645451567943965     
   8.3100000000000007E-002    -1.6307939168527597     
   8.3400000000000002E-002    -1.0517961510889329     
   8.3700000000000011E-002   -0.47499423971521537     
   8.4000000000000005E-002     5.1647396377187960E-002
   8.4300000000000000E-002    0.48906466833494378     
   8.4599999999999995E-002    0.80232640970885782     
   8.4900000000000003E-002    0.96463510625548876     
   8.5199999999999998E-002    0.96415669953027816     
   8.5500000000000007E-002    0.79738855138472076     
   8.5800000000000001E-002    0.47350355832522517     
   8.6100000000000010E-002     1.6943190469929093E-002
   8.6399999999999991E-002   -0.54105098736256352     
   8.6699999999999999E-002    -1.1582528500271199     
   8.7000000000000008E-002    -1.7846064241513719     
   8.7300000000000003E-002    -2.3708479552397463     
   8.7599999999999997E-002    -2.8657941746577649     
   8.7900000000000006E-002    -3.2224035438492749     
   8.8200000000000014E-002    -3.4049538616864794     
   8.8499999999999995E-002    -3.3873430588301829     
   8.8800000000000004E-002    -3.1583974373961041     
   8.9100000000000013E-002    -2.7254089025229860     
   8.9399999999999993E-002    -2.1090993774275120     
   8.9700000000000002E-002    -1.3473812063323862     
   9.0000000000000011E-002   -0.49158096707311616     
   9.0299999999999991E-002    0.40062657805157897     
   9.0600000000000000E-002     1.2647926106645571     
   9.0900000000000009E-002     2.0388776373112236     
   9.1200000000000017E-002     2.6689537239057728     
   9.1499999999999998E-002     3.1101527144930916     
   9.1800000000000007E-002     3.3344921385853485     
   9.2100000000000001E-002     3.3317899396663861     
   9.2399999999999996E-002     3.1084370117008149     
   9.2700000000000005E-002     2.6904014412420452     
   9.3000000000000013E-002     2.1165152651826844     
   9.3300000000000008E-002     1.4357303111046136     
   9.3600000000000003E-002    0.70483075261866279     
   9.3899999999999997E-002    -2.0572867957149299E-002
   9.4200000000000006E-002   -0.68802410307905149     
   9.4500000000000001E-002    -1.2519963778407046     
   9.4800000000000009E-002    -1.6800154997766299     
   9.5100000000000004E-002    -1.9504988762560025     
   9.5399999999999999E-002    -2.0556075336751487     
   9.5699999999999993E-002    -2.0010923972896713     
   9.6000000000000002E-002    -1.8016172296096045     
   9.6300000000000011E-002    -1.4831247154359417     
   9.6600000000000005E-002    -1.0765391171700323     
   9.6900000000000000E-002   -0.61498580637715605     
   9.7200000000000009E-002   -0.13563173451427701     
   9.7499999999999989E-002    0.32935064866928698     
   9.7799999999999998E-002    0.75069010110394530     
   9.8100000000000007E-002     1.1015889599339772     
   9.8400000000000015E-002     1.3667190234796358     
   9.8699999999999996E-002     1.5349025682589295     
   9.9000000000000005E-002     1.6003103410799380     
   9.9300000000000013E-002     1.5699494773620088     
   9.9599999999999994E-002     1.4517027928268718     
   9.9900000000000003E-002     1.2596540874226108     
  0.10020000000000001          1.0161028625347548     
  0.10049999999999999         0.73842550005192820     
  0.10080000000000000         0.44881420540749950     
  0.10110000000000001         0.17046741417939759     
  0.10140000000000000         -8.2565064965486101E-002
  0.10170000000000000        -0.29424184668737752     
  0.10200000000000001        -0.45330541112505074     
  0.10230000000000002        -0.55828157408220180     
  0.10260000000000000        -0.60575565699829115     
  0.10290000000000001        -0.60010743033777558     
  0.10320000000000000        -0.55125445805841444     
  0.10350000000000001        -0.46670788443944211     
  0.10380000000000000        -0.36065893200934696     
  0.10410000000000001        -0.24683587891816039     
  0.10440000000000001        -0.13570313358852903     
  0.10470000000000000         -4.1977486612692516E-002
  0.10500000000000000          2.5943640514645927E-002
  0.10530000000000000          6.1787770043472134E-002
  0.10560000000000000          5.8983483193828068E-002
  0.10590000000000001          1.9821223544274957E-002
  0.10620000000000000         -5.3532906670127112E-002
  0.10650000000000001        -0.15687617520877506     
  0.10679999999999999        -0.27809908754455037     
  0.10710000000000000        -0.40864252958486236     
  0.10740000000000001        -0.53770834646320331     
  0.10770000000000000        -0.65048532054049524     
  0.10800000000000000        -0.73964720263050054     
  0.10830000000000001        -0.79591081778094619     
  0.10859999999999999        -0.81065429616056406     
  0.10890000000000000        -0.78416664817535420     
  0.10920000000000001        -0.71516119210638607     
  0.10950000000000001        -0.60485598861522050     
  0.10979999999999999        -0.46199198337831326     
  0.11009999999999999        -0.29315013127433609     
  0.11040000000000001        -0.10704078877377987     
  0.11070000000000001          8.3869492397672829E-002
  0.11100000000000000         0.26997419431454972     
  0.11130000000000000         0.44148642024846829     
  0.11160000000000002         0.58786915389161276     
  0.11190000000000001         0.70233019505496097     
  0.11220000000000001         0.77951348140126520     
  0.11250000000000000         0.81628314807080393     
  0.11280000000000000         0.81216727889268014     
  0.11309999999999999         0.76960790671120449     
  0.11340000000000001         0.69326030277818873     
  0.11369999999999998         0.58978727462970681     
  0.11400000000000000         0.46800231069014764     
  0.11430000000000000         0.33679042184763830     
  0.11460000000000002         0.20526331870031012     
  0.11489999999999999          8.2489842056793217E-002
  0.11520000000000001         -2.4220776958234103E-002
  0.11550000000000001        -0.10941966319487317     
  0.11580000000000000        -0.16958946109413731     
  0.11609999999999999        -0.20295056884040430     
  0.11640000000000002        -0.21065224192601462     
  0.11670000000000001        -0.19583642201570362     
  0.11700000000000001        -0.16120305907799182     
  0.11730000000000000        -0.11236843708806266     
  0.11760000000000000         -5.6520951599489999E-002
  0.11789999999999999          2.6784091591562920E-003
  0.11820000000000001          5.8650919534100399E-002
  0.11850000000000001         0.10409801852713274     
  0.11880000000000000         0.13816873690889508     
  0.11910000000000000         0.15542063459002886     
  0.11940000000000002         0.15217624894588422     
  0.11970000000000001         0.13204834365973728     
  0.12000000000000001          9.3074898243065363E-002
  0.12030000000000000          3.6296528453051091E-002
  0.12060000000000000         -2.9526309403291595E-002
  0.12089999999999999        -0.10359841260061398     
  0.12119999999999999        -0.18080409396149433     
  0.12150000000000001        -0.25044877290918188     
  0.12180000000000001        -0.31193694300440233     
  0.12210000000000000        -0.36012006939349739     
  0.12239999999999999        -0.38747700339461844     
  0.12270000000000002        -0.39724096248261276     
  0.12300000000000001        -0.38727549307571429     
  0.12330000000000001        -0.35589712900957515     
  0.12360000000000000        -0.31039661340491875     
  0.12390000000000000        -0.25158186096893687     
  0.12419999999999999        -0.18173677549188749     
  0.12450000000000001        -0.10918163467512620     
  0.12480000000000001         -3.5339746853730189E-002
  0.12509999999999999          3.6304302306459757E-002
  0.12540000000000001          9.9153472853395819E-002
  0.12570000000000003         0.15352279890390208     
  0.12600000000000000         0.19613455401455515     
  0.12630000000000002         0.22342928719747057     
  0.12659999999999999         0.23719807349454580     
  0.12690000000000001         0.23606377682581314     
  0.12719999999999998         0.21991870476794162     
  0.12750000000000000         0.19321381707517027     
  0.12780000000000002         0.15632825888967439     
  0.12809999999999999         0.11252919375748860     
  0.12840000000000001          6.8058333445485397E-002
  0.12869999999999998          2.4195331255912444E-002
  0.12900000000000000         -1.4720580524534732E-002
  0.12930000000000003         -4.3662504760405133E-002
  0.12959999999999999         -6.3690608310324137E-002
  0.12990000000000002         -7.1973499505584959E-002
  0.13019999999999998         -6.7124139229825186E-002
  0.13050000000000000         -5.4276616877569461E-002
  0.13080000000000003         -3.2438819869274271E-002
  0.13109999999999999         -3.1243155055788452E-003
  0.13140000000000002          2.6265881252930390E-002
  0.13169999999999998          5.7079929784730421E-002
  0.13200000000000001          8.7154407644923104E-002
  0.13229999999999997         0.10943037114205234     
  0.13260000000000000         0.12759202015285975     
  0.13290000000000002         0.13966479999476977     
  0.13319999999999999         0.14052011421183508     
  0.13350000000000001         0.13578231805314811     
  0.13380000000000003         0.12331413182117856     
  0.13410000000000000         0.10034306900431123     
  0.13440000000000002          7.4005513993291583E-002
  0.13469999999999999          4.1972498174862372E-002
  0.13500000000000001          4.2765920616872899E-003
  0.13529999999999998         -3.1332123377521004E-002
  0.13560000000000000         -6.6928994883207471E-002
  0.13590000000000002        -0.10013027690407478     
  0.13619999999999999        -0.12462232220021319     
  0.13650000000000001        -0.14330887537198844     
  0.13680000000000003        -0.15311550371996319     
  0.13710000000000000        -0.15204389408239205     
  0.13740000000000002        -0.14427264659443040     
  0.13769999999999999        -0.12813619358629280     
  0.13800000000000001        -0.10557624378559582     
  0.13829999999999998         -8.1053902307548276E-002
  0.13860000000000000         -5.3828765596845685E-002
  0.13890000000000002         -2.7800810183128744E-002
  0.13919999999999999         -4.8013757464840101E-003
  0.13950000000000001          1.5994850035815578E-002
  0.13979999999999998          3.1096904535328984E-002
  0.14010000000000000          4.1337393714395265E-002
  0.14040000000000002          4.7718217254898443E-002
  0.14069999999999999          4.8095280540544572E-002
  0.14100000000000001          4.4640955209369837E-002
  0.14130000000000004          3.8082757978938342E-002
  0.14160000000000000          2.7217623303630756E-002
  0.14189999999999997          1.4996188858949863E-002
  0.14219999999999999          1.9423782006511292E-003
  0.14250000000000002         -1.2133825820159316E-002
  0.14279999999999998         -2.4572582498058659E-002
  0.14310000000000000         -3.4218425463053981E-002
  0.14339999999999997         -4.1372012953792225E-002
  0.14369999999999999         -4.4068401991663508E-002
  0.14400000000000002         -4.1632104694139471E-002
  0.14429999999999998         -3.5441705432447734E-002
  0.14460000000000001         -2.5534145831584587E-002
  0.14490000000000003         -1.1807034912156983E-002
  0.14520000000000000          2.6967171311915727E-003
  0.14550000000000002          1.7512639047593037E-002
  0.14579999999999999          3.2456738724809364E-002
  0.14610000000000001          4.3914774010686330E-002
  0.14640000000000003          5.2751729831069682E-002
  0.14670000000000000          5.9481765504014517E-002
  0.14699999999999996          6.1213752969118795E-002
  0.14729999999999999          6.0312934793355311E-002
  0.14760000000000001          5.7493491751909209E-002
  0.14789999999999998          5.0667401468980300E-002
  0.14820000000000000          4.3027465811683152E-002