  -1.4999999999999999E-002     0.0000000000000000     
  -1.4700000000000000E-002     0.0000000000000000     
  -1.4400000000000000E-002     0.0000000000000000     
  -1.4100000000000000E-002     0.0000000000000000     
  -1.3800000000000000E-002     0.0000000000000000     
  -1.3500000000000000E-002     0.0000000000000000     
  -1.3200000000000000E-002     0.0000000000000000     
  -1.2899999999999998E-002     0.0000000000000000     
  -1.2600000000000000E-002     0.0000000000000000     
  -1.2299999999999998E-002     0.0000000000000000     
  -1.2000000000000000E-002     0.0000000000000000     
  -1.1699999999999999E-002     0.0000000000000000     
  -1.1399999999999999E-002     0.0000000000000000     
  -1.1099999999999999E-002     0.0000000000000000     
  -1.0799999999999999E-002     0.0000000000000000     
  -1.0499999999999999E-002     0.0000000000000000     
  -1.0199999999999999E-002     0.0000000000000000     
  -9.8999999999999991E-003     0.0000000000000000     
  -9.5999999999999992E-003     0.0000000000000000     
  -9.2999999999999992E-003     0.0000000000000000     
  -8.9999999999999993E-003     0.0000000000000000     
  -8.6999999999999994E-003     0.0000000000000000     
  -8.3999999999999995E-003     0.0000000000000000     
  -8.0999999999999996E-003     0.0000000000000000     
  -7.7999999999999988E-003     0.0000000000000000     
  -7.4999999999999997E-003     0.0000000000000000     
  -7.1999999999999998E-003     0.0000000000000000     
  -6.8999999999999981E-003     0.0000000000000000     
  -6.5999999999999982E-003     0.0000000000000000     
  -6.3000000000000000E-003     0.0000000000000000     
  -6.0000000000000001E-003     0.0000000000000000     
  -5.6999999999999985E-003     0.0000000000000000     
  -5.3999999999999986E-003     0.0000000000000000     
  -5.1000000000000004E-003     0.0000000000000000     
  -4.7999999999999987E-003     0.0000000000000000     
  -4.5000000000000005E-003     0.0000000000000000     
  -4.1999999999999989E-003     0.0000000000000000     
  -3.8999999999999990E-003     0.0000000000000000     
  -3.5999999999999990E-003     0.0000000000000000     
  -3.2999999999999991E-003     0.0000000000000000     
  -2.9999999999999992E-003     0.0000000000000000     
  -2.6999999999999993E-003     0.0000000000000000     
  -2.3999999999999994E-003     0.0000000000000000     
  -2.0999999999999977E-003     0.0000000000000000     
  -1.7999999999999995E-003     0.0000000000000000     
  -1.4999999999999979E-003     0.0000000000000000     
  -1.1999999999999997E-003     0.0000000000000000     
  -8.9999999999999976E-004     0.0000000000000000     
  -5.9999999999999810E-004     0.0000000000000000     
  -2.9999999999999992E-004     0.0000000000000000     
   0.0000000000000000          0.0000000000000000     
   3.0000000000000165E-004     0.0000000000000000     
   5.9999999999999984E-004     0.0000000000000000     
   9.0000000000000149E-004     0.0000000000000000     
   1.2000000000000031E-003     0.0000000000000000     
   1.5000000000000013E-003     0.0000000000000000     
   1.8000000000000030E-003     0.0000000000000000     
   2.1000000000000012E-003     0.0000000000000000     
   2.3999999999999994E-003     0.0000000000000000     
   2.7000000000000010E-003     0.0000000000000000     
   2.9999999999999992E-003     0.0000000000000000     
   3.3000000000000008E-003     0.0000000000000000     
   3.6000000000000025E-003     0.0000000000000000     
   3.9000000000000007E-003     0.0000000000000000     
   4.2000000000000023E-003     0.0000000000000000     
   4.5000000000000005E-003     0.0000000000000000     
   4.7999999999999987E-003     0.0000000000000000     
   5.1000000000000004E-003     0.0000000000000000     
   5.4000000000000020E-003     0.0000000000000000     
   5.7000000000000037E-003     0.0000000000000000     
   5.9999999999999984E-003     0.0000000000000000     
   6.3000000000000000E-003     0.0000000000000000     
   6.6000000000000017E-003     0.0000000000000000     
   6.9000000000000034E-003     0.0000000000000000     
   7.2000000000000015E-003     0.0000000000000000     
   7.5000000000000032E-003     0.0000000000000000     
   7.8000000000000014E-003     0.0000000000000000     
   8.0999999999999996E-003     0.0000000000000000     
   8.4000000000000012E-003     0.0000000000000000     
   8.7000000000000029E-003     0.0000000000000000     
   9.0000000000000011E-003     0.0000000000000000     
   9.2999999999999992E-003     0.0000000000000000     
   9.6000000000000009E-003     0.0000000000000000     
   9.8999999999999991E-003     0.0000000000000000     
   1.0200000000000001E-002     0.0000000000000000     
   1.0500000000000002E-002     0.0000000000000000     
   1.0800000000000004E-002     0.0000000000000000     
   1.1099999999999999E-002     0.0000000000000000     
   1.1400000000000000E-002     0.0000000000000000     
   1.1700000000000002E-002     0.0000000000000000     
   1.2000000000000004E-002     0.0000000000000000     
   1.2300000000000002E-002     0.0000000000000000     
   1.2600000000000000E-002     0.0000000000000000     
   1.2900000000000002E-002     0.0000000000000000     
   1.3200000000000000E-002     0.0000000000000000     
   1.3500000000000002E-002     0.0000000000000000     
   1.3800000000000003E-002     0.0000000000000000     
   1.4100000000000001E-002     0.0000000000000000     
   1.4400000000000000E-002     0.0000000000000000     
   1.4700000000000001E-002     0.0000000000000000     
   1.4999999999999999E-002     0.0000000000000000     
   1.5300000000000001E-002     0.0000000000000000     
   1.5600000000000003E-002     0.0000000000000000     
   1.5899999999999997E-002     0.0000000000000000     
   1.6199999999999999E-002     0.0000000000000000     
   1.6500000000000001E-002     0.0000000000000000     
   1.6800000000000002E-002     0.0000000000000000     
   1.7100000000000004E-002     0.0000000000000000     
   1.7400000000000006E-002     0.0000000000000000     
   1.7700000000000000E-002     0.0000000000000000     
   1.8000000000000002E-002     0.0000000000000000     
   1.8300000000000004E-002     0.0000000000000000     
   1.8600000000000005E-002     0.0000000000000000     
   1.8900000000000000E-002     0.0000000000000000     
   1.9200000000000002E-002     0.0000000000000000     
   1.9500000000000003E-002     0.0000000000000000     
   1.9799999999999998E-002     0.0000000000000000     
   2.0100000000000000E-002     0.0000000000000000     
   2.0400000000000001E-002     0.0000000000000000     
   2.0700000000000003E-002     0.0000000000000000     
   2.0999999999999998E-002     0.0000000000000000     
   2.1299999999999999E-002     0.0000000000000000     
   2.1600000000000001E-002     0.0000000000000000     
   2.1900000000000003E-002     0.0000000000000000     
   2.2200000000000004E-002     0.0000000000000000     
   2.2500000000000006E-002     0.0000000000000000     
   2.2800000000000001E-002     0.0000000000000000     
   2.3100000000000002E-002     0.0000000000000000     
   2.3400000000000004E-002     0.0000000000000000     
   2.3699999999999999E-002     0.0000000000000000     
   2.4000000000000000E-002     0.0000000000000000     
   2.4300000000000002E-002     0.0000000000000000     
   2.4599999999999997E-002     0.0000000000000000     
   2.4900000000000005E-002     0.0000000000000000     
   2.5200000000000000E-002     0.0000000000000000     
   2.5499999999999995E-002     0.0000000000000000     
   2.5800000000000003E-002     0.0000000000000000     
   2.6099999999999998E-002     0.0000000000000000     
   2.6400000000000007E-002     0.0000000000000000     
   2.6700000000000002E-002     0.0000000000000000     
   2.6999999999999996E-002     0.0000000000000000     
   2.7300000000000005E-002     0.0000000000000000     
   2.7600000000000000E-002     0.0000000000000000     
   2.7900000000000008E-002     0.0000000000000000     
   2.8200000000000003E-002     0.0000000000000000     
   2.8499999999999998E-002     0.0000000000000000     
   2.8800000000000006E-002     0.0000000000000000     
   2.9100000000000001E-002     0.0000000000000000     
   2.9400000000000003E-002     0.0000000000000000     
   2.9700000000000004E-002     0.0000000000000000     
   3.0000000000000006E-002     0.0000000000000000     
   3.0300000000000001E-002     0.0000000000000000     
   3.0600000000000002E-002     0.0000000000000000     
   3.0900000000000004E-002     0.0000000000000000     
   3.1199999999999999E-002     0.0000000000000000     
   3.1500000000000007E-002     0.0000000000000000     
   3.1800000000000002E-002     0.0000000000000000     
   3.2099999999999997E-002     0.0000000000000000     
   3.2400000000000005E-002     0.0000000000000000     
   3.2700000000000000E-002     0.0000000000000000     
   3.3000000000000002E-002     0.0000000000000000     
   3.3300000000000003E-002     0.0000000000000000     
   3.3599999999999998E-002     0.0000000000000000     
   3.3900000000000000E-002     0.0000000000000000     
   3.4200000000000001E-002     0.0000000000000000     
   3.4500000000000003E-002     0.0000000000000000     
   3.4799999999999998E-002     0.0000000000000000     
   3.5099999999999999E-002     0.0000000000000000     
   3.5400000000000001E-002     0.0000000000000000     
   3.5699999999999996E-002     0.0000000000000000     
   3.6000000000000004E-002     1.7143517642414492E-038
   3.6299999999999999E-002    -5.0526935757924498E-036
   3.6600000000000008E-002     6.3214114302013789E-035
   3.6900000000000002E-002    -5.2382820071724334E-034
   3.7199999999999997E-002     3.3639033675405090E-033
   3.7500000000000006E-002    -1.6508801354685567E-032
   3.7800000000000000E-002     7.4134808183761140E-032
   3.8100000000000009E-002    -3.0473783563428969E-031
   3.8400000000000004E-002     1.1698894056784707E-030
   3.8699999999999998E-002    -4.2181826727844996E-030
   3.9000000000000007E-002     1.4244906110948218E-029
   3.9300000000000002E-002    -4.4760336216712695E-029
   3.9600000000000003E-002     1.2907285171848090E-028
   3.9900000000000005E-002    -3.3183739238018047E-028
   4.0200000000000000E-002     7.0699727885663935E-028
   4.0500000000000001E-002    -9.2722654947709340E-028
   4.0800000000000003E-002    -1.5465818343572153E-027
   4.1100000000000005E-002     1.8945419085255904E-026
   4.1399999999999999E-002    -1.0084216027427814E-025
   4.1700000000000008E-002     4.2971536273632996E-025
   4.2000000000000003E-002    -1.6329024335470071E-024
   4.2299999999999997E-002     5.7405506680546182E-024
   4.2600000000000006E-002    -1.8911326193261676E-023
   4.2900000000000001E-002     5.8420091456326229E-023
   4.3200000000000002E-002    -1.6794305935852549E-022
   4.3500000000000004E-002     4.4213838726466979E-022
   4.3799999999999999E-002    -1.0343785517586032E-021
   4.4100000000000000E-002     2.0107367247261120E-021
   4.4400000000000002E-002    -2.5722542279496700E-021
   4.4700000000000004E-002    -1.7047586579542691E-021
   4.4999999999999998E-002     2.6884106615706454E-020
   4.5300000000000000E-002    -1.2090441479411287E-019
   4.5600000000000002E-002     4.0849502879955204E-019
   4.5899999999999996E-002    -1.1729443833468778E-018
   4.6200000000000005E-002     2.9280725438789898E-018
   4.6500000000000000E-002    -6.0759133280332119E-018
   4.6799999999999994E-002     8.3055699837734662E-018
   4.7100000000000003E-002     6.2186586455705691E-018
   4.7399999999999998E-002    -9.8471471175913864E-017
   4.7700000000000006E-002     4.3212947521174632E-016
   4.8000000000000001E-002    -1.2646862588205562E-015
   4.8300000000000010E-002     2.4081881491521502E-015
   4.8600000000000004E-002    -9.5088522169742675E-016
   4.8899999999999999E-002    -1.3869953600085302E-014
   4.9200000000000008E-002     6.3103676743638676E-014
   4.9500000000000002E-002    -1.4748792465102412E-013
   4.9800000000000011E-002     1.1514695989235657E-013
   5.0100000000000006E-002     5.8120722861224050E-013
   5.0400000000000000E-002    -2.7420815184447944E-012
   5.0700000000000009E-002     5.1995135627591615E-012
   5.1000000000000004E-002     1.1352782863099931E-012
   5.1299999999999998E-002    -3.5507305429227642E-011
   5.1600000000000007E-002     9.2598873013827188E-011
   5.1900000000000002E-002    -3.3758218442869747E-011
   5.2200000000000010E-002    -4.5677717164238629E-010
   5.2500000000000005E-002     1.2565556373189679E-009
   5.2800000000000000E-002    -1.4738268938607746E-010
   5.3099999999999994E-002    -6.6313896596170707E-009
   5.3400000000000003E-002     1.2806378180130196E-008
   5.3699999999999998E-002     1.4347490306931832E-008
   5.4000000000000006E-002    -8.6970153745369316E-008
   5.4300000000000001E-002     2.9221391528722052E-008
   5.4599999999999996E-002     3.8921609757380793E-007
   5.4900000000000004E-002    -4.6116775820337352E-007
   5.5199999999999999E-002    -1.6683260355421226E-006
   5.5499999999999994E-002     3.4423728720867075E-006
   5.5800000000000002E-002     1.7066311556845903E-005
   5.6099999999999997E-002     2.8782900699297898E-005
   5.6400000000000006E-002     3.2812997233122587E-005
   5.6700000000000000E-002     3.9951388316694647E-005
   5.6999999999999995E-002     5.9486348618520424E-005
   5.7300000000000004E-002     9.1715650341939181E-005
   5.7599999999999998E-002     1.4124854351393878E-004
   5.7900000000000007E-002     2.1706087864004076E-004
   5.8200000000000002E-002     3.2821446075104177E-004
   5.8499999999999996E-002     4.8403200344182551E-004
   5.8800000000000005E-002     6.9277477450668812E-004
   5.9100000000000000E-002     9.7383663523942232E-004
   5.9400000000000008E-002     1.3561416417360306E-003
   5.9700000000000003E-002     1.8550354288890958E-003
   6.0000000000000012E-002     2.4835257790982723E-003
   6.0300000000000006E-002     3.2670581713318825E-003
   6.0600000000000001E-002     4.2232489213347435E-003
   6.0900000000000010E-002     5.3536985069513321E-003
   6.1200000000000004E-002     6.6372873261570930E-003
   6.1500000000000013E-002     8.0223912373185158E-003
   6.1800000000000008E-002     9.4413487240672112E-003
   6.2100000000000002E-002     1.0782752186059952E-002
   6.2399999999999997E-002     1.1860534548759460E-002
   6.2700000000000006E-002     1.2452021241188049E-002
   6.3000000000000000E-002     1.2300004251301289E-002
   6.3300000000000009E-002     1.1075980961322784E-002
   6.3600000000000004E-002     8.4108337759971619E-003
   6.3899999999999998E-002     3.9330325089395046E-003
   6.4199999999999993E-002    -2.7088723145425320E-003
   6.4500000000000002E-002    -1.1802870780229568E-002
   6.4800000000000010E-002    -2.3541364818811417E-002
   6.5100000000000005E-002    -3.7978865206241608E-002
   6.5400000000000000E-002    -5.4971136152744293E-002
   6.5700000000000008E-002    -7.4138820171356201E-002
   6.5999999999999989E-002    -9.4856776297092438E-002
   6.6299999999999998E-002   -0.11626034975051880     
   6.6600000000000006E-002   -0.13728971779346466     
   6.6900000000000001E-002   -0.15674093365669250     
   6.7199999999999996E-002   -0.17332173883914948     
   6.7500000000000004E-002   -0.18576507270336151     
   6.7800000000000013E-002   -0.19295817613601685     
   6.8099999999999994E-002   -0.19403313100337982     
   6.8400000000000002E-002   -0.18848000466823578     
   6.8700000000000011E-002   -0.17619468271732330     
   6.8999999999999992E-002   -0.15750998258590698     
   6.9300000000000000E-002   -0.13315720856189728     
   6.9600000000000009E-002   -0.10423402488231659     
   6.9900000000000004E-002    -7.2040371596813202E-002
   7.0199999999999999E-002    -3.8022171705961227E-002
   7.0500000000000007E-002    -3.5718032158911228E-003
   7.0800000000000016E-002     3.0064029619097710E-002
   7.1099999999999997E-002     6.1891011893749237E-002
   7.1400000000000005E-002     9.1243989765644073E-002
   7.1700000000000000E-002    0.11771407723426819     
   7.1999999999999995E-002    0.14118884503841400     
   7.2300000000000003E-002    0.16162757575511932     
   7.2600000000000012E-002    0.17911925911903381     
   7.2900000000000006E-002    0.19359919428825378     
   7.3200000000000001E-002    0.20489262044429779     
   7.3499999999999996E-002    0.21252970397472382     
   7.3800000000000004E-002    0.21584823727607727     
   7.4099999999999999E-002    0.21407119929790497     
   7.4400000000000008E-002    0.20629766583442688     
   7.4700000000000003E-002    0.19178980588912964     
   7.5000000000000011E-002    0.17006550729274750     
   7.5299999999999992E-002    0.14106866717338562     
   7.5600000000000001E-002    0.10534806549549103     
   7.5900000000000009E-002     6.4057774841785431E-002
   7.6200000000000004E-002     1.9018273800611496E-002
   7.6499999999999999E-002    -2.7308139950037003E-002
   7.6800000000000007E-002    -7.2026833891868591E-002
   7.7099999999999988E-002   -0.11191245913505554     
   7.7399999999999997E-002   -0.14362241327762604     
   7.7700000000000005E-002   -0.16396874189376831     
   7.8000000000000014E-002   -0.17002487182617188     
   7.8299999999999995E-002   -0.15945187211036682     
   7.8600000000000003E-002   -0.13065046072006226     
   7.8900000000000012E-002    -8.2841962575912476E-002
   7.9199999999999993E-002    -1.6231268644332886E-002
   7.9500000000000001E-002     6.7890614271163940E-002
   7.9800000000000010E-002    0.16718262434005737     
   8.0100000000000018E-002    0.27824088931083679     
   8.0399999999999999E-002    0.39662417769432068     
   8.0700000000000008E-002    0.51708894968032837     
   8.1000000000000003E-002    0.63365221023559570     
   8.1299999999999997E-002    0.73994487524032593     
   8.1600000000000006E-002    0.82941466569900513     
   8.1900000000000014E-002    0.89582377672195435     
   8.2199999999999995E-002    0.93355840444564819     
   8.2500000000000004E-002    0.93807274103164673     
   8.2799999999999999E-002    0.90635216236114502     
   8.3100000000000007E-002    0.83702611923217773     
   8.3400000000000002E-002    0.73083472251892090     
   8.3700000000000011E-002    0.59065723419189453     
   8.4000000000000005E-002    0.42144900560379028     
   8.4300000000000000E-002    0.23000793159008026     
   8.4599999999999995E-002     2.4707060307264328E-002
   8.4900000000000003E-002   -0.18518714606761932     
   8.5199999999999998E-002   -0.38986265659332275     
   8.5500000000000007E-002   -0.57994568347930908     
   8.5800000000000001E-002   -0.74692356586456299     
   8.6100000000000010E-002   -0.88393998146057129     
   8.6399999999999991E-002   -0.98622691631317139     
   8.6699999999999999E-002    -1.0513908863067627     
   8.7000000000000008E-002    -1.0796804428100586     
   8.7300000000000003E-002    -1.0737760066986084     
   8.7599999999999997E-002    -1.0386453866958618     
   8.7900000000000006E-002   -0.98078995943069458     
   8.8200000000000014E-002   -0.90791171789169312     
   8.8499999999999995E-002   -0.82791376113891602     
   8.8800000000000004E-002   -0.74834954738616943     
   8.9100000000000013E-002   -0.67562848329544067     
   8.9399999999999993E-002   -0.61449837684631348     
   8.9700000000000002E-002   -0.56766414642333984     
   9.0000000000000011E-002   -0.53558993339538574     
   9.0299999999999991E-002   -0.51658844947814941     
   9.0600000000000000E-002   -0.50716102123260498     
   9.0900000000000009E-002   -0.50233685970306396     
   9.1200000000000017E-002   -0.49634787440299988     
   9.1499999999999998E-002   -0.48324048519134521     
   9.1800000000000007E-002   -0.45756065845489502     
   9.2100000000000001E-002   -0.41483363509178162     
   9.2399999999999996E-002   -0.35217222571372986     
   9.2700000000000005E-002   -0.26839554309844971     
   9.3000000000000013E-002   -0.16421689093112946     
   9.3300000000000008E-002    -4.2170654982328415E-002
   9.3600000000000003E-002     9.3726418912410736E-002
   9.3899999999999997E-002    0.23819908499717712     
   9.4200000000000006E-002    0.38529098033905029     
   9.4500000000000001E-002    0.52874279022216797     
   9.4800000000000009E-002    0.66254401206970215     
   9.5100000000000004E-002    0.78126448392868042     
   9.5399999999999999E-002    0.88049310445785522     
   9.5699999999999993E-002    0.95691454410552979     
   9.6000000000000002E-002     1.0084453821182251     
   9.6300000000000011E-002     1.0343830585479736     
   9.6600000000000005E-002     1.0350306034088135     
   9.6900000000000000E-002     1.0117503404617310     
   9.7200000000000009E-002    0.96656268835067749     
   9.7499999999999989E-002    0.90193563699722290     
   9.7799999999999998E-002    0.82052183151245117     
   9.8100000000000007E-002    0.72485923767089844     
   9.8400000000000015E-002    0.61734628677368164     
   9.8699999999999996E-002    0.49987927079200745     
   9.9000000000000005E-002    0.37407243251800537     
   9.9300000000000013E-002    0.24107860028743744     
   9.9599999999999994E-002    0.10188224166631699     
   9.9900000000000003E-002    -4.2462632060050964E-002
  0.10020000000000001        -0.19076402485370636     
  0.10049999999999999        -0.34135791659355164     
  0.10080000000000000        -0.49183392524719238     
  0.10110000000000001        -0.63900738954544067     
  0.10140000000000000        -0.77875322103500366     
  0.10170000000000000        -0.90618193149566650     
  0.10200000000000001         -1.0157660245895386     
  0.10230000000000002         -1.1017436981201172     
  0.10260000000000000         -1.1585098505020142     
  0.10290000000000001         -1.1811265945434570     
  0.10320000000000000         -1.1658003330230713     
  0.10350000000000001         -1.1104934215545654     
  0.10380000000000000         -1.0151698589324951     
  0.10410000000000001        -0.88204383850097656     
  0.10440000000000001        -0.71575868129730225     
  0.10470000000000000        -0.52302765846252441     
  0.10500000000000000        -0.31249618530273438     
  0.10530000000000000         -9.4085261225700378E-002
  0.10560000000000000         0.12163037806749344     
  0.10590000000000001         0.32421186566352844     
  0.10620000000000000         0.50398892164230347     
  0.10650000000000001         0.65305668115615845     
  0.10679999999999999         0.76547271013259888     
  0.10710000000000000         0.83804857730865479     
  0.10740000000000001         0.87029719352722168     
  0.10770000000000000         0.86444467306137085     
  0.10800000000000000         0.82549566030502319     
  0.10830000000000001         0.76011776924133301     
  0.10859999999999999         0.67663103342056274     
  0.10890000000000000         0.58388674259185791     
  0.10920000000000001         0.49074298143386841     
  0.10950000000000001         0.40517991781234741     
  0.10979999999999999         0.33383163809776306     
  0.11009999999999999         0.28133776783943176     
  0.11040000000000001         0.25040039420127869     
  0.11070000000000001         0.24146579205989838     
  0.11100000000000000         0.25307944416999817     
  0.11130000000000000         0.28228610754013062     
  0.11160000000000002         0.32476809620857239     
  0.11190000000000001         0.37590098381042480     
  0.11220000000000001         0.43072327971458435     
  0.11250000000000000         0.48479971289634705     
  0.11280000000000000         0.53435623645782471     
  0.11309999999999999         0.57657432556152344     
  0.11340000000000001         0.60944896936416626     
  0.11369999999999998         0.63200062513351440     
  0.11400000000000000         0.64380425214767456     
  0.11430000000000000         0.64470493793487549     
  0.11460000000000002         0.63483798503875732     
  0.11489999999999999         0.61380773782730103     
  0.11520000000000001         0.58131861686706543     
  0.11550000000000001         0.53632211685180664     
  0.11580000000000000         0.47749188542366028     
  0.11609999999999999         0.40346395969390869     
  0.11640000000000002         0.31260508298873901     
  0.11670000000000001         0.20411726832389832     
  0.11700000000000001          7.7397130429744720E-002
  0.11730000000000000         -6.6707335412502289E-002
  0.11760000000000000        -0.22640177607536316     
  0.11789999999999999        -0.39823806285858154     
  0.11820000000000001        -0.57756406068801880     
  0.11850000000000001        -0.75839108228683472     
  0.11880000000000000        -0.93348896503448486     
  0.11910000000000000         -1.0951505899429321     
  0.11940000000000002         -1.2352515459060669     
  0.11970000000000001         -1.3460879325866699     
  0.12000000000000001         -1.4206655025482178     
  0.12030000000000000         -1.4533373117446899     
  0.12060000000000000         -1.4403443336486816     
  0.12089999999999999         -1.3801410198211670     
  0.12119999999999999         -1.2735761404037476     
  0.12150000000000001         -1.1241327524185181     
  0.12180000000000001        -0.93777173757553101     
  0.12210000000000000        -0.72279596328735352     
  0.12239999999999999        -0.48916697502136230     
  0.12270000000000002        -0.24836269021034241     
  0.12300000000000001         -1.2212257832288742E-002
  0.12330000000000001         0.20720620453357697     
  0.12360000000000000         0.39884215593338013     
  0.12390000000000000         0.55318456888198853     
  0.12419999999999999         0.66258782148361206     
  0.12450000000000001         0.72225433588027954     
  0.12480000000000001         0.72979491949081421     
  0.12509999999999999         0.68616616725921631     
  0.12540000000000001         0.59487074613571167     
  0.12570000000000003         0.46226361393928528     
  0.12600000000000000         0.29684361815452576     
  0.12630000000000002         0.10887023806571960     
  0.12659999999999999         -9.0059921145439148E-002
  0.12690000000000001        -0.28794872760772705     
  0.12719999999999998        -0.47251793742179871     
  0.12750000000000000        -0.63235509395599365     
  0.12780000000000002        -0.75724405050277710     
  0.12809999999999999        -0.83880573511123657     
  0.12840000000000001        -0.87087398767471313     
  0.12869999999999998        -0.85013139247894287     
  0.12900000000000000        -0.77619409561157227     
  0.12930000000000003        -0.65193486213684082     
  0.12959999999999999        -0.48352104425430298     
  0.12990000000000002        -0.27990341186523438     
  0.13019999999999998         -5.2684158086776733E-002
  0.13050000000000000         0.18445086479187012     
  0.13080000000000003         0.41694092750549316     
  0.13109999999999999         0.62979507446289062     
  0.13140000000000002         0.80900895595550537     
  0.13169999999999998         0.94270414113998413     
  0.13200000000000001          1.0216059684753418     
  0.13229999999999997          1.0406351089477539     
  0.13260000000000000         0.99866783618927002     
  0.13290000000000002         0.89937573671340942     
  0.13319999999999999         0.75077998638153076     
  0.13350000000000001         0.56496137380599976     
  0.13380000000000003         0.35694164037704468     
  0.13410000000000000         0.14369860291481018     
  0.13440000000000002         -5.7182833552360535E-002
  0.13469999999999999        -0.22904136776924133     
  0.13500000000000001        -0.35737961530685425     
  0.13529999999999998        -0.43154734373092651     
  0.13560000000000000        -0.44512572884559631     
  0.13590000000000002        -0.39681410789489746     
  0.13619999999999999        -0.29071792960166931     
  0.13650000000000001        -0.13580094277858734     
  0.13680000000000003          5.4598070681095123E-002
  0.13710000000000000         0.26415318250656128     
  0.13740000000000002         0.47464427351951599     
  0.13769999999999999         0.66758072376251221     
  0.13800000000000001         0.82580912113189697     
  0.13829999999999998         0.93485808372497559     
  0.13860000000000000         0.98413980007171631     
  0.13890000000000002         0.96781253814697266     
  0.13919999999999999         0.88512313365936279     
  0.13950000000000001         0.74041062593460083     
  0.13979999999999998         0.54280817508697510     
  0.14010000000000000         0.30504694581031799     
  0.14040000000000002          4.2632501572370529E-002
  0.14069999999999999        -0.22745563089847565     
  0.14100000000000001        -0.48836559057235718     
  0.14130000000000004        -0.72440493106842041     
  0.14160000000000000        -0.92233699560165405     
  0.14189999999999997         -1.0721532106399536     
  0.14219999999999999         -1.1674557924270630     
  0.14250000000000002         -1.2060492038726807     
  0.14279999999999998         -1.1893786191940308     
  0.14310000000000000         -1.1224443912506104     
  0.14339999999999997         -1.0130127668380737     
  0.14369999999999999        -0.87070542573928833     
  0.14400000000000002        -0.70655286312103271     
  0.14429999999999998        -0.53164267539978027     
  0.14460000000000001        -0.35672423243522644     
  0.14490000000000003        -0.19133889675140381     
  0.14520000000000000         -4.3491709977388382E-002
  0.14550000000000002          8.0767802894115448E-002
  0.14579999999999999         0.17764446139335632     
  0.14610000000000001         0.24517382681369781     
  0.14640000000000003         0.28376939892768860     
  0.14670000000000000         0.29534626007080078     
  0.14699999999999996         0.28395998477935791     
  0.14729999999999999         0.25444856286048889     
  0.14760000000000001         0.21316468715667725     
  0.14789999999999998         0.16689473390579224     
  0.14820000000000000         0.12290586531162262     