  -1.4999999999999999E-002     0.0000000000000000     
  -1.4700000000000000E-002     0.0000000000000000     
  -1.4400000000000000E-002     0.0000000000000000     
  -1.4100000000000000E-002     0.0000000000000000     
  -1.3800000000000000E-002     0.0000000000000000     
  -1.3500000000000000E-002     0.0000000000000000     
  -1.3200000000000000E-002     0.0000000000000000     
  -1.2899999999999998E-002     0.0000000000000000     
  -1.2600000000000000E-002     0.0000000000000000     
  -1.2299999999999998E-002     0.0000000000000000     
  -1.2000000000000000E-002     0.0000000000000000     
  -1.1699999999999999E-002     0.0000000000000000     
  -1.1399999999999999E-002     0.0000000000000000     
  -1.1099999999999999E-002     0.0000000000000000     
  -1.0799999999999999E-002     0.0000000000000000     
  -1.0499999999999999E-002     0.0000000000000000     
  -1.0199999999999999E-002     0.0000000000000000     
  -9.8999999999999991E-003     0.0000000000000000     
  -9.5999999999999992E-003     0.0000000000000000     
  -9.2999999999999992E-003     0.0000000000000000     
  -8.9999999999999993E-003     0.0000000000000000     
  -8.6999999999999994E-003     0.0000000000000000     
  -8.3999999999999995E-003     0.0000000000000000     
  -8.0999999999999996E-003     0.0000000000000000     
  -7.7999999999999988E-003     0.0000000000000000     
  -7.4999999999999997E-003     0.0000000000000000     
  -7.1999999999999998E-003     0.0000000000000000     
  -6.8999999999999981E-003     0.0000000000000000     
  -6.5999999999999982E-003     0.0000000000000000     
  -6.3000000000000000E-003     0.0000000000000000     
  -6.0000000000000001E-003     0.0000000000000000     
  -5.6999999999999985E-003     0.0000000000000000     
  -5.3999999999999986E-003     0.0000000000000000     
  -5.1000000000000004E-003     0.0000000000000000     
  -4.7999999999999987E-003     0.0000000000000000     
  -4.5000000000000005E-003     0.0000000000000000     
  -4.1999999999999989E-003     0.0000000000000000     
  -3.8999999999999990E-003     0.0000000000000000     
  -3.5999999999999990E-003     0.0000000000000000     
  -3.2999999999999991E-003     0.0000000000000000     
  -2.9999999999999992E-003     0.0000000000000000     
  -2.6999999999999993E-003     0.0000000000000000     
  -2.3999999999999994E-003     0.0000000000000000     
  -2.0999999999999977E-003     0.0000000000000000     
  -1.7999999999999995E-003     0.0000000000000000     
  -1.4999999999999979E-003     0.0000000000000000     
  -1.1999999999999997E-003     0.0000000000000000     
  -8.9999999999999976E-004     0.0000000000000000     
  -5.9999999999999810E-004     0.0000000000000000     
  -2.9999999999999992E-004     0.0000000000000000     
   0.0000000000000000          0.0000000000000000     
   3.0000000000000165E-004     0.0000000000000000     
   5.9999999999999984E-004     0.0000000000000000     
   9.0000000000000149E-004     0.0000000000000000     
   1.2000000000000031E-003     0.0000000000000000     
   1.5000000000000013E-003     0.0000000000000000     
   1.8000000000000030E-003     0.0000000000000000     
   2.1000000000000012E-003     0.0000000000000000     
   2.3999999999999994E-003     0.0000000000000000     
   2.7000000000000010E-003     0.0000000000000000     
   2.9999999999999992E-003     0.0000000000000000     
   3.3000000000000008E-003     0.0000000000000000     
   3.6000000000000025E-003     0.0000000000000000     
   3.9000000000000007E-003     0.0000000000000000     
   4.2000000000000023E-003     0.0000000000000000     
   4.5000000000000005E-003     0.0000000000000000     
   4.7999999999999987E-003     0.0000000000000000     
   5.1000000000000004E-003     0.0000000000000000     
   5.4000000000000020E-003     0.0000000000000000     
   5.7000000000000037E-003     0.0000000000000000     
   5.9999999999999984E-003     0.0000000000000000     
   6.3000000000000000E-003     0.0000000000000000     
   6.6000000000000017E-003     0.0000000000000000     
   6.9000000000000034E-003     0.0000000000000000     
   7.2000000000000015E-003     0.0000000000000000     
   7.5000000000000032E-003     0.0000000000000000     
   7.8000000000000014E-003     0.0000000000000000     
   8.0999999999999996E-003     0.0000000000000000     
   8.4000000000000012E-003     0.0000000000000000     
   8.7000000000000029E-003     0.0000000000000000     
   9.0000000000000011E-003     0.0000000000000000     
   9.2999999999999992E-003     0.0000000000000000     
   9.6000000000000009E-003     0.0000000000000000     
   9.8999999999999991E-003     0.0000000000000000     
   1.0200000000000001E-002     0.0000000000000000     
   1.0500000000000002E-002     0.0000000000000000     
   1.0800000000000004E-002     0.0000000000000000     
   1.1099999999999999E-002     0.0000000000000000     
   1.1400000000000000E-002     0.0000000000000000     
   1.1700000000000002E-002     0.0000000000000000     
   1.2000000000000004E-002     0.0000000000000000     
   1.2300000000000002E-002     0.0000000000000000     
   1.2600000000000000E-002     0.0000000000000000     
   1.2900000000000002E-002     0.0000000000000000     
   1.3200000000000000E-002     0.0000000000000000     
   1.3500000000000002E-002     0.0000000000000000     
   1.3800000000000003E-002     0.0000000000000000     
   1.4100000000000001E-002     0.0000000000000000     
   1.4400000000000000E-002     0.0000000000000000     
   1.4700000000000001E-002     0.0000000000000000     
   1.4999999999999999E-002     0.0000000000000000     
   1.5300000000000001E-002     0.0000000000000000     
   1.5600000000000003E-002     0.0000000000000000     
   1.5899999999999997E-002     0.0000000000000000     
   1.6199999999999999E-002     0.0000000000000000     
   1.6500000000000001E-002     0.0000000000000000     
   1.6800000000000002E-002    -1.3860979633109615E-036
   1.7100000000000004E-002    -5.1500808427050864E-038
   1.7400000000000006E-002     8.4065370161869017E-036
   1.7700000000000000E-002    -1.8612175795244201E-035
   1.8000000000000002E-002     2.6811587221730883E-036
   1.8300000000000004E-002    -4.2648537558684265E-035
   1.8600000000000005E-002    -3.6045549763551696E-035
   1.8900000000000000E-002     3.8496680708385044E-034
   1.9200000000000002E-002    -6.4290468867501179E-034
   1.9500000000000003E-002     7.7506369890842254E-034
   1.9799999999999998E-002    -1.2051183075415802E-033
   2.0100000000000000E-002     4.0512313389965609E-034
   2.0400000000000001E-002     3.7724364286922805E-033
   2.0700000000000003E-002    -1.0870770521209223E-032
   2.0999999999999998E-002     1.4028749984751442E-032
   2.1299999999999999E-002     3.1216118711040223E-033
   2.1600000000000001E-002    -4.7462789479375227E-032
   2.1900000000000003E-002     7.5501199790906498E-032
   2.2200000000000004E-002     1.9579986935300385E-032
   2.2500000000000006E-002    -2.7770184771514988E-031
   2.2800000000000001E-002     4.1962659128378640E-031
   2.3100000000000002E-002     1.1270960314744534E-031
   2.3400000000000004E-002    -1.3623312216812391E-030
   2.3699999999999999E-002     1.8934593922440854E-030
   2.4000000000000000E-002     3.2191780537709915E-031
   2.4300000000000002E-002    -4.3471454220377284E-030
   2.4599999999999997E-002     4.4942431085606272E-030
   2.4900000000000005E-002     2.7360291809151408E-030
   2.5200000000000000E-002    -6.7789755431665517E-030
   2.5499999999999995E-002    -1.4382574640173389E-029
   2.5800000000000003E-002     7.5424227309026903E-029
   2.6099999999999998E-002    -2.4905672469598039E-028
   2.6400000000000007E-002     1.2138820794141481E-027
   2.6700000000000002E-002    -6.1631888207316645E-027
   2.6999999999999996E-002     2.2787163622984230E-026
   2.7300000000000005E-002    -4.6888050727773176E-026
   2.7600000000000000E-002    -3.2498461217480976E-026
   2.7900000000000008E-002     6.2644641508299251E-025
   2.8200000000000003E-002    -2.1829338118497721E-024
   2.8499999999999998E-002     2.3035159918273506E-024
   2.8800000000000006E-002     1.2310213491721738E-023
   2.9100000000000001E-002    -6.9297288207965622E-023
   2.9400000000000003E-002     1.5210701420975718E-022
   2.9700000000000004E-002     5.7865745242078849E-023
   3.0000000000000006E-002    -1.7070000927703456E-021
   3.0300000000000001E-002     6.6845754375708124E-021
   3.0600000000000002E-002    -1.2762048045964778E-020
   3.0900000000000004E-002    -4.9423326061213243E-021
   3.1199999999999999E-002     1.2408022528572604E-019
   3.1500000000000007E-002    -4.3504498438976078E-019
   3.1800000000000002E-002     6.7191602555575006E-019
   3.2099999999999997E-002     6.9255488607290845E-019
   3.2400000000000005E-002    -6.6788312767530397E-018
   3.2700000000000000E-002     1.6590015976406335E-017
   3.3000000000000002E-002    -1.0224933678380769E-017
   3.3300000000000003E-002    -6.3319318321917861E-017
   3.3599999999999998E-002     2.2679536602151739E-016
   3.3900000000000000E-002    -2.7323770499894460E-016
   3.4200000000000001E-002    -4.1779479248425173E-016
   3.4500000000000003E-002     2.3661613276659203E-015
   3.4799999999999998E-002    -4.0559087201651199E-015
   3.5099999999999999E-002    -2.3408345004217351E-016
   3.5400000000000001E-002     1.8172081215263566E-014
   3.5699999999999996E-002    -4.7833193432154875E-014
   3.6000000000000004E-002     5.7896312766013972E-014
   3.6299999999999999E-002     3.8173669345686288E-014
   3.6600000000000008E-002    -4.0605761354726904E-013
   3.6900000000000002E-002     1.1636361644719056E-012
   3.7199999999999997E-002    -1.5461282419484022E-012
   3.7500000000000006E-002    -1.9923216504908593E-012
   3.7800000000000000E-002     1.5215849694819722E-011
   3.8100000000000009E-002    -3.1322852825264520E-011
   3.8400000000000004E-002    -2.7447034979306908E-012
   3.8699999999999998E-002     1.7411809627398399E-010
   3.9000000000000007E-002    -3.7789351131713535E-010
   3.9300000000000002E-002    -7.6407708499669816E-011
   3.9600000000000003E-002     1.9597012546295981E-009
   3.9900000000000005E-002    -3.0845244288751528E-009
   4.0200000000000000E-002    -3.9791980272126894E-009
   4.0500000000000001E-002     1.9310590394368325E-008
   4.0800000000000003E-002    -6.4622323876962342E-009
   4.1100000000000005E-002    -7.6822380928061628E-008
   4.1399999999999999E-002     8.7925552361490136E-008
   4.1700000000000008E-002     2.6374655938548716E-007
   4.2000000000000003E-002    -5.1092239042527890E-007
   4.2299999999999997E-002    -1.0853627573071817E-006
   4.2600000000000006E-002     3.5338286355661981E-006
   4.2900000000000001E-002     1.6417369362445539E-005
   4.3200000000000002E-002     3.2160335874836668E-005
   4.3500000000000004E-002     4.2367758921576268E-005
   4.3799999999999999E-002     4.7494255713696016E-005
   4.4100000000000000E-002     5.7933301926595951E-005
   4.4400000000000002E-002     8.5158880430921419E-005
   4.4700000000000004E-002     1.3582887730677253E-004
   4.4999999999999998E-002     2.1381065372876040E-004
   4.5300000000000000E-002     3.2611855103925787E-004
   4.5600000000000002E-002     4.8070099151228084E-004
   4.5899999999999996E-002     6.8136638386194666E-004
   4.6200000000000005E-002     9.4009382596708241E-004
   4.6500000000000000E-002     1.2806654773006056E-003
   4.6799999999999994E-002     1.7159597297817658E-003
   4.7100000000000003E-002     2.2478808900206343E-003
   4.7399999999999998E-002     2.8803885559221809E-003
   4.7700000000000006E-002     3.6038344547576900E-003
   4.8000000000000001E-002     4.3885207253867159E-003
   4.8300000000000010E-002     5.1827602268821327E-003
   4.8600000000000004E-002     5.8873976582629606E-003
   4.8899999999999999E-002     6.3563614508470034E-003
   4.9200000000000008E-002     6.4038551269400557E-003
   4.9500000000000002E-002     5.7813551547854780E-003
   4.9800000000000011E-002     4.1757112082063258E-003
   5.0100000000000006E-002     1.2266590098469893E-003
   5.0400000000000000E-002    -3.4617932194465906E-003
   5.0700000000000009E-002    -1.0314617237111585E-002
   5.1000000000000004E-002    -1.9767387092211292E-002
   5.1299999999999998E-002    -3.2186798246380321E-002
   5.1600000000000007E-002    -4.7797152373553309E-002
   5.1900000000000002E-002    -6.6680732681176691E-002
   5.2200000000000010E-002    -8.8743883931629686E-002
   5.2500000000000005E-002   -0.11363136199347723     
   5.2800000000000000E-002   -0.14069184588186978     
   5.3099999999999994E-002   -0.16896877044439940     
   5.3400000000000003E-002   -0.19724280438200648     
   5.3699999999999998E-002   -0.22410046496861469     
   5.4000000000000006E-002   -0.24803068130070116     
   5.4300000000000001E-002   -0.26749624016819595     
   5.4599999999999996E-002   -0.28104623650434135     
   5.4900000000000004E-002   -0.28747500586769625     
   5.5199999999999999E-002   -0.28595699325223300     
   5.5499999999999994E-002   -0.27610739680312335     
   5.5800000000000002E-002   -0.25802790403506215     
   5.6099999999999997E-002   -0.23230624070007089     
   5.6400000000000006E-002   -0.19991795932681899     
   5.6700000000000000E-002   -0.16213799304455367     
   5.6999999999999995E-002   -0.12044683145552115     
   5.7300000000000004E-002    -7.6312802410082980E-002
   5.7599999999999998E-002    -3.1122313618427211E-002
   5.7900000000000007E-002     1.4008224776373535E-002
   5.8200000000000002E-002     5.8185464670757525E-002
   5.8499999999999996E-002    0.10082263339223285     
   5.8800000000000005E-002    0.14155398826202337     
   5.9100000000000000E-002    0.18018000848289351     
   5.9400000000000008E-002    0.21654670121409492     
   5.9700000000000003E-002    0.25040283489750692     
   6.0000000000000012E-002    0.28151141747658137     
   6.0300000000000006E-002    0.30938368853954934     
   6.0600000000000001E-002    0.33368838906297604     
   6.0900000000000010E-002    0.35398512302610108     
   6.1200000000000004E-002    0.37010666721508656     
   6.1500000000000013E-002    0.38216906612395718     
   6.1800000000000008E-002    0.39073496383254636     
   6.2100000000000002E-002    0.39668766377590359     
   6.2399999999999997E-002    0.40132373288135703     
   6.2700000000000006E-002    0.40604967401948677     
   6.3000000000000000E-002    0.41220648643338542     
   6.3300000000000009E-002    0.42081091436451423     
   6.3600000000000004E-002    0.43221246436800875     
   6.3899999999999998E-002    0.44594174220214100     
   6.4199999999999993E-002    0.46066472275608739     
   6.4500000000000002E-002    0.47411227998797933     
   6.4800000000000010E-002    0.48355494614304284     
   6.5100000000000005E-002    0.48589668918435613     
   6.5400000000000000E-002    0.47840235833927203     
   6.5700000000000008E-002    0.45898082185718359     
   6.5999999999999989E-002    0.42677917482065908     
   6.6299999999999998E-002    0.38246021410392572     
   6.6600000000000006E-002    0.32820661477733992     
   6.6900000000000001E-002    0.26766548410117430     
   6.7199999999999996E-002    0.20557336560904638     
   6.7500000000000004E-002    0.14714526921238580     
   6.7800000000000013E-002     9.7286407890492477E-002
   6.8099999999999994E-002     5.9831910332732940E-002
   6.8400000000000002E-002     3.6913302390367164E-002
   6.8700000000000011E-002     2.8518849741086760E-002
   6.8999999999999992E-002     3.2257005437687614E-002
   6.9300000000000000E-002     4.3562643569341697E-002
   6.9600000000000009E-002     5.6089156259585105E-002
   6.9900000000000004E-002     6.2720088214850422E-002
   7.0199999999999999E-002     5.6163176727861863E-002
   7.0500000000000007E-002     3.0473973440589663E-002
   7.0800000000000016E-002    -1.8632530838379124E-002
   7.1099999999999997E-002    -9.2545143545849973E-002
   7.1400000000000005E-002   -0.18987528488693917     
   7.1700000000000000E-002   -0.30616000421629330     
   7.1999999999999995E-002   -0.43472394979652940     
   7.2300000000000003E-002   -0.56706633224301228     
   7.2600000000000012E-002   -0.69431054926282698     
   7.2900000000000006E-002   -0.80805704182345650     
   7.3200000000000001E-002   -0.90140471375220699     
   7.3499999999999996E-002   -0.96998403997512028     
   7.3800000000000004E-002    -1.0120228663323019     
   7.4099999999999999E-002    -1.0287369422756782     
   7.4400000000000008E-002    -1.0235126133217065     
   7.4700000000000003E-002    -1.0015754605878229     
   7.5000000000000011E-002   -0.96876707661272476     
   7.5299999999999992E-002   -0.93038803979172968     
   7.5600000000000001E-002   -0.89063810832064050     
   7.5900000000000009E-002   -0.85136068932526854     
   7.6200000000000004E-002   -0.81216610113589738     
   7.6499999999999999E-002   -0.76998932511611073     
   7.6800000000000007E-002   -0.72020133165960587     
   7.7099999999999988E-002   -0.65664256756643979     
   7.7399999999999997E-002   -0.57345576664644327     
   7.7700000000000005E-002   -0.46562661346108669     
   7.8000000000000014E-002   -0.33038067154729411     
   7.8299999999999995E-002   -0.16813041111187133     
   7.8600000000000003E-002     1.7604373240253324E-002
   7.8900000000000012E-002    0.21920627568011453     
   7.9199999999999993E-002    0.42625377525596875     
   7.9500000000000001E-002    0.62562765372294571     
   7.9800000000000010E-002    0.80317847384639762     
   8.0100000000000018E-002    0.94464588879310796     
   8.0399999999999999E-002     1.0373136766919480     
   8.0700000000000008E-002     1.0712200664046136     
   8.1000000000000003E-002     1.0402423534108678     
   8.1299999999999997E-002    0.94280009719117785     
   8.1600000000000006E-002    0.78227908207287911     
   8.1900000000000014E-002    0.56669823248089912     
   8.2199999999999995E-002    0.30860104506043040     
   8.2500000000000004E-002     2.3505831948983813E-002
   8.2799999999999999E-002   -0.27035788869718935     
   8.3100000000000007E-002   -0.55434088476427568     
   8.3400000000000002E-002   -0.80972143609549363     
   8.3700000000000011E-002    -1.0198974326378973     
   8.4000000000000005E-002    -1.1706183882885348     
   8.4300000000000000E-002    -1.2516784923950368     
   8.4599999999999995E-002    -1.2569212017438431     
   8.4900000000000003E-002    -1.1848461629385909     
   8.5199999999999998E-002    -1.0387248319184401     
   8.5500000000000007E-002   -0.82596570440604822     
   8.5800000000000001E-002   -0.55808444444231498     
   8.6100000000000010E-002   -0.24952766096102330     
   8.6399999999999991E-002     8.2666845208756001E-002
   8.6699999999999999E-002    0.42033348155709938     
   8.7000000000000008E-002    0.74491081243958090     
   8.7300000000000003E-002     1.0385465770125197     
   8.7599999999999997E-002     1.2852897704576023     
   8.7900000000000006E-002     1.4718921907779290     
   8.8200000000000014E-002     1.5888198426231170     
   8.8499999999999995E-002     1.6305457442215641     
   8.8800000000000004E-002     1.5964493929455372     
   8.9100000000000013E-002     1.4906457948467349     
   8.9399999999999993E-002     1.3218237914054072     
   8.9700000000000002E-002     1.1029771312947929     
   9.0000000000000011E-002    0.85032504988787849     
   9.0299999999999991E-002    0.58269732281150866     
   9.0600000000000000E-002    0.31977321251106972     
   9.0900000000000009E-002     8.1126703309833292E-002
   9.1200000000000017E-002   -0.11551763460735387     
   9.1499999999999998E-002   -0.25512401264053297     
   9.1800000000000007E-002   -0.32709127807788452     
   9.2100000000000001E-002   -0.32543743447268003     
   9.2399999999999996E-002   -0.24998099755652614     
   9.2700000000000005E-002   -0.10568868318781921     
   9.3000000000000013E-002     9.7044255928421919E-002
   9.3300000000000008E-002    0.34366605831068409     
   9.3600000000000003E-002    0.61588176161409192     
   9.3899999999999997E-002    0.89382699260514364     
   9.4200000000000006E-002     1.1564776093243729     
   9.4500000000000001E-002     1.3840650725623220     
   9.4800000000000009E-002     1.5586036014718871     
   9.5100000000000004E-002     1.6655644446114977     
   9.5399999999999999E-002     1.6946283188579159     
   9.5699999999999993E-002     1.6402765399136641     
   9.6000000000000002E-002     1.5016984490373275     
   9.6300000000000011E-002     1.2832387957478559     
   9.6600000000000005E-002    0.99362530623176681     
   9.6900000000000000E-002    0.64551403236932714     
   9.7200000000000009E-002    0.25441901048088678     
   9.7499999999999989E-002   -0.16193591271039587     
   9.7799999999999998E-002   -0.58491621359342716     
   9.8100000000000007E-002   -0.99577709392813318     
   9.8400000000000015E-002    -1.3766544955323710     
   9.8699999999999996E-002    -1.7118094980542260     
   9.9000000000000005E-002    -1.9876089997667918     
   9.9300000000000013E-002    -2.1941639279110063     
   9.9599999999999994E-002    -2.3244650436348380     
   9.9900000000000003E-002    -2.3761966488020931     
  0.10020000000000001         -2.3501369686878775     
  0.10049999999999999         -2.2512155290831259     
  0.10080000000000000         -2.0878876473775989     
  0.10110000000000001         -1.8711912824283914     
  0.10140000000000000         -1.6147790910920108     
  0.10170000000000000         -1.3334035460001559     
  0.10200000000000001         -1.0429285921792797     
  0.10230000000000002        -0.75852459346866041     
  0.10260000000000000        -0.49453048639678876     
  0.10290000000000001        -0.26317773190453408     
  0.10320000000000000         -7.3883828681609476E-002
  0.10350000000000001          6.6773548719179399E-002
  0.10380000000000000         0.15637737253538297     
  0.10410000000000001         0.19598479372449962     
  0.10440000000000001         0.19037351063180541     
  0.10470000000000000         0.14791887242949819     
  0.10500000000000000          7.9616609564104213E-002
  0.10530000000000000         -1.0676916826301008E-003
  0.10560000000000000         -7.9492577635566608E-002
  0.10590000000000001        -0.14069151504690414     
  0.10620000000000000        -0.17031599296282596     
  0.10650000000000001        -0.15628074703077566     
  0.10679999999999999         -8.8861382245879361E-002
  0.10710000000000000          3.7159247550013319E-002
  0.10740000000000001         0.22305770018050808     
  0.10770000000000000         0.46395620899734968     
  0.10800000000000000         0.75053827006054652     
  0.10830000000000001          1.0675633303199115     
  0.10859999999999999          1.3953382538455692     
  0.10890000000000000          1.7111518503876937     
  0.10920000000000001          1.9894742200474163     
  0.10950000000000001          2.2051303612372948     
  0.10979999999999999          2.3344857025800820     
  0.11009999999999999          2.3577521308349745     
  0.11040000000000001          2.2613651474602250     
  0.11070000000000001          2.0387437887385147     
  0.11100000000000000          1.6924806239558308     
  0.11130000000000000          1.2336177612640284     
  0.11160000000000002         0.68261511887517479     
  0.11190000000000001          6.7048386170709406E-002
  0.11220000000000001        -0.57959619659228068     
  0.11250000000000000         -1.2200882767420325     
  0.11280000000000000         -1.8174210861825166     
  0.11309999999999999         -2.3356663387092951     
  0.11340000000000001         -2.7452609146269538     
  0.11369999999999998         -3.0229015280210305     
  0.11400000000000000         -3.1549945838191746     
  0.11430000000000000         -3.1374587210224831     
  0.11460000000000002         -2.9763008692276287     
  0.11489999999999999         -2.6862520542657222     
  0.11520000000000001         -2.2894670809033357     
  0.11550000000000001         -1.8136077500934462     
  0.11580000000000000         -1.2886175427831539     
  0.11609999999999999        -0.74527278652935891     
  0.11640000000000002        -0.21214278313360913     
  0.11670000000000001         0.28619663540675333     
  0.11700000000000001         0.72976304833660066     
  0.11730000000000000          1.1051020001833933     
  0.11760000000000000          1.4040910423762814     
  0.11789999999999999          1.6247764994273179     
  0.11820000000000001          1.7695375079462288     
  0.11850000000000001          1.8444499038992745     
  0.11880000000000000          1.8583048441297336     
  0.11910000000000000          1.8209405241571659     
  0.11940000000000002          1.7426551253354532     
  0.11970000000000001          1.6328566166901055     
  0.12000000000000001          1.5004386882840564     
  0.12030000000000000          1.3520077942791460     
  0.12060000000000000          1.1930951471474032     
  0.12089999999999999          1.0273984671768162     
  0.12119999999999999         0.85733184948178121     
  0.12150000000000001         0.68469040770811773     
  0.12180000000000001         0.51009922830591847     
  0.12210000000000000         0.33506475158047255     
  0.12239999999999999         0.16067620203637034     
  0.12270000000000002         -1.0231487838250786E-002
  0.12300000000000001        -0.17411183251584461     
  0.12330000000000001        -0.32575971906432244     
  0.12360000000000000        -0.45879716101541757     
  0.12390000000000000        -0.56594395033505585     
  0.12419999999999999        -0.63927010501006620     
  0.12450000000000001        -0.67177921233121918     
  0.12480000000000001        -0.65709552492342915     
  0.12509999999999999        -0.59199100788722347     
  0.12540000000000001        -0.47560879854764160     
  0.12570000000000003        -0.31150755388729046     
  0.12600000000000000        -0.10665919281405545     
  0.12630000000000002         0.12797358205195408     
  0.12659999999999999         0.37809191702884171     
  0.12690000000000001         0.62779901396149818     
  0.12719999999999998         0.85991485689668457     
  0.12750000000000000          1.0583229415763356     
  0.12780000000000002          1.2088587401978947     
  0.12809999999999999          1.3011962659546832     
  0.12840000000000001          1.3289836958167118     
  0.12869999999999998          1.2911643274857241     
  0.12900000000000000          1.1914448734119176     
  0.12930000000000003          1.0379247702869350     
  0.12959999999999999         0.84215407256586516     
  0.12990000000000002         0.61786141389124261     
  0.13019999999999998         0.37913528809693275     
  0.13050000000000000         0.13965867383825570     
  0.13080000000000003         -8.9137298007660348E-002
  0.13109999999999999        -0.29898511372964443     
  0.13140000000000002        -0.48529619750078279     
  0.13169999999999998        -0.64732327820455371     
  0.13200000000000001        -0.78808381237088909     
  0.13229999999999997        -0.91340392146970695     
  0.13260000000000000         -1.0311430372740640     
  0.13290000000000002         -1.1500642124182443     
  0.13319999999999999         -1.2784554629113138     
  0.13350000000000001         -1.4231736713738616     
  0.13380000000000003         -1.5883838820241536     
  0.13410000000000000         -1.7753692640530829     
  0.13440000000000002         -1.9818680914117799     
  0.13469999999999999         -2.2019127023110130     
  0.13500000000000001         -2.4268179415011915     
  0.13529999999999998         -2.6453383120295086     
  0.13560000000000000         -2.8447648092086553     
  0.13590000000000002         -3.0121197809878026     
  0.13619999999999999         -3.1349362909899696     
  0.13650000000000001         -3.2023908216904005     
  0.13680000000000003         -3.2059479625125107     
  0.13710000000000000         -3.1404263103357408     
  0.13740000000000002         -3.0034607310287242     
  0.13769999999999999         -2.7965505005197997     
  0.13800000000000001         -2.5242704568025971     
  0.13829999999999998         -2.1943424247231178     
  0.13860000000000000         -1.8164744452041646     
  0.13890000000000002         -1.4031790164280764     
  0.13919999999999999        -0.96732554026056761     
  0.13950000000000001        -0.52284484571275414     
  0.13979999999999998         -8.3503243807925731E-002
  0.14010000000000000         0.33780299987796880     
  0.14040000000000002         0.72939182704118544     
  0.14069999999999999          1.0816099413806781     
  0.14100000000000001          1.3878271366107953     
  0.14130000000000004          1.6440276898639716     
  0.14160000000000000          1.8498931071967171     
  0.14189999999999997          2.0082207141053701     
  0.14219999999999999          2.1247998545600808     
  0.14250000000000002          2.2089572500852555     
  0.14279999999999998          2.2708433307042597     
  0.14310000000000000          2.3228496819843301     
  0.14339999999999997          2.3758387606437665     
  0.14369999999999999          2.4406437830627183     
  0.14400000000000002          2.5243172525289594     
  0.14429999999999998          2.6313713653872668     
  0.14460000000000001          2.7615089006238094     
  0.14490000000000003          2.9108708934678589     
  0.14520000000000000          3.0710477691733047     
  0.14550000000000002          3.2306273455756411     
  0.14579999999999999          3.3759839874177828     
  0.14610000000000001          3.4923822258850095     
  0.14640000000000003          3.5655615453004685     
  0.14670000000000000          3.5834411788681848     
  0.14699999999999996          3.5367985217611704     
  0.14729999999999999          3.4206934427818538     
  0.14760000000000001          3.2345714517830544     
  0.14789999999999998          2.9819587319142329     
  0.14820000000000000          2.6713055678543611     