  -1.4999999999999999E-002     0.0000000000000000     
  -1.4700000000000000E-002     0.0000000000000000     
  -1.4400000000000000E-002     0.0000000000000000     
  -1.4100000000000000E-002     0.0000000000000000     
  -1.3800000000000000E-002     0.0000000000000000     
  -1.3500000000000000E-002     0.0000000000000000     
  -1.3200000000000000E-002     0.0000000000000000     
  -1.2899999999999998E-002     0.0000000000000000     
  -1.2600000000000000E-002     0.0000000000000000     
  -1.2299999999999998E-002     0.0000000000000000     
  -1.2000000000000000E-002     0.0000000000000000     
  -1.1699999999999999E-002     0.0000000000000000     
  -1.1399999999999999E-002     0.0000000000000000     
  -1.1099999999999999E-002     0.0000000000000000     
  -1.0799999999999999E-002     0.0000000000000000     
  -1.0499999999999999E-002     0.0000000000000000     
  -1.0199999999999999E-002     0.0000000000000000     
  -9.8999999999999991E-003     0.0000000000000000     
  -9.5999999999999992E-003     0.0000000000000000     
  -9.2999999999999992E-003     0.0000000000000000     
  -8.9999999999999993E-003     0.0000000000000000     
  -8.6999999999999994E-003     0.0000000000000000     
  -8.3999999999999995E-003    -8.2437747422051713E-037
  -8.0999999999999996E-003    -5.6557421232861051E-036
  -7.7999999999999988E-003     1.3655007296350992E-034
  -7.4999999999999997E-003     2.8287192485458492E-034
  -7.1999999999999998E-003    -9.7574810591682567E-034
  -6.8999999999999981E-003     1.8529607652179577E-033
  -6.5999999999999982E-003     5.7604953725252347E-033
  -6.3000000000000000E-003    -1.0207358910275270E-032
  -6.0000000000000001E-003    -4.0629857271482595E-032
  -5.6999999999999985E-003     6.1963968896745586E-032
  -5.3999999999999986E-003     1.0309608551697577E-031
  -5.1000000000000004E-003     1.6809526898962082E-031
  -4.7999999999999987E-003    -3.6120990080146530E-031
  -4.5000000000000005E-003    -4.5035351489607347E-030
  -4.1999999999999989E-003     8.2399107111285023E-030
  -3.8999999999999990E-003     1.7409968849124818E-029
  -3.5999999999999990E-003    -6.2775909222951772E-029
  -3.2999999999999991E-003     1.1470596803821113E-028
  -2.9999999999999992E-003    -2.5771152660512400E-028
  -2.6999999999999993E-003    -1.2269143932956177E-028
  -2.3999999999999994E-003     2.8296675633730909E-027
  -2.0999999999999977E-003    -7.4417062530787930E-027
  -1.7999999999999995E-003     9.7897430337493571E-027
  -1.4999999999999979E-003    -3.9829490808111667E-027
  -1.1999999999999997E-003    -3.6872477290141792E-026
  -8.9999999999999976E-004     1.5951288891323403E-025
  -5.9999999999999810E-004    -3.2398956181305484E-025
  -2.9999999999999992E-004     3.6609639313581048E-025
   0.0000000000000000          1.1731273781058107E-026
   3.0000000000000165E-004    -1.8844756982483243E-024
   5.9999999999999984E-004     7.1185719459094900E-024
   9.0000000000000149E-004    -1.4699081905254679E-023
   1.2000000000000031E-003     1.3710482996553518E-023
   1.5000000000000013E-003     2.6697413304507461E-023
   1.8000000000000030E-003    -1.5318453205089698E-022
   2.1000000000000012E-003     3.3140357123987001E-022
   2.3999999999999994E-003    -2.3232713489582707E-022
   2.7000000000000010E-003    -7.9049547550372768E-022
   2.9999999999999992E-003     2.9355444405027872E-021
   3.3000000000000008E-003    -4.1223757516930554E-021
   3.6000000000000025E-003    -1.2888694721604219E-021
   3.9000000000000007E-003     1.7871452007296971E-020
   4.2000000000000023E-003    -3.4698662808253903E-020
   4.5000000000000005E-003     1.4360908796731858E-020
   4.7999999999999987E-003     8.0877771800479812E-020
   5.1000000000000004E-003    -2.0852291371802998E-019
   5.4000000000000020E-003     1.7503167611016208E-019
   5.7000000000000037E-003     2.5811395532892960E-019
   5.9999999999999984E-003    -9.8788981145319893E-019
   6.3000000000000000E-003     1.2035682639848160E-018
   6.6000000000000017E-003     2.6545482137381973E-019
   6.9000000000000034E-003    -3.5653837729878206E-018
   7.2000000000000015E-003     6.2604093462182643E-018
   7.5000000000000032E-003    -3.5336072161662898E-018
   7.8000000000000014E-003    -8.2179591491949123E-018
   8.0999999999999996E-003     2.5218700358073708E-017
   8.4000000000000012E-003    -3.1689037804000274E-017
   8.7000000000000029E-003     3.2179199392400209E-018
   9.0000000000000011E-003     7.3463028549022559E-017
   9.2999999999999992E-003    -1.6237494543922849E-016
   9.6000000000000009E-003     1.5066237236794304E-016
   9.8999999999999991E-003     1.0174169333169531E-016
   1.0200000000000001E-002    -5.8608729543543122E-016
   1.0500000000000002E-002     9.2376566194606741E-016
   1.0800000000000004E-002    -3.9346199765311388E-016
   1.1099999999999999E-002    -1.4517289212661981E-015
   1.1400000000000000E-002     3.7154634363188895E-015
   1.1700000000000002E-002    -3.6915843069863698E-015
   1.2000000000000004E-002    -1.5069682808005057E-015
   1.2300000000000002E-002     1.0986796596199749E-014
   1.2600000000000000E-002    -1.6778052336135704E-014
   1.2900000000000002E-002     6.8686672492833216E-015
   1.3200000000000000E-002     2.2709747832792317E-014
   1.3500000000000002E-002    -5.4105747388909914E-014
   1.3800000000000003E-002     4.9207193224612422E-014
   1.4100000000000001E-002     2.0627625651960420E-014
   1.4400000000000000E-002    -1.2954443290649764E-013
   1.4700000000000001E-002     1.8183448724593682E-013
   1.4999999999999999E-002    -7.0041439011528372E-014
   1.5300000000000001E-002    -2.0836874977184228E-013
   1.5600000000000003E-002     4.7197911811486248E-013
   1.5899999999999997E-002    -4.3034458917408369E-013
   1.6199999999999999E-002    -7.7610322140285459E-014
   1.6500000000000001E-002     8.5036936259968998E-013
   1.6800000000000002E-002    -1.3254077739846548E-012
   1.7100000000000004E-002     8.8499314213758007E-013
   1.7400000000000006E-002     6.8663033158528064E-013
   1.7700000000000000E-002    -2.8101726674834016E-012
   1.8000000000000002E-002     3.9548538055544924E-012
   1.8300000000000004E-002    -2.0536376418855973E-012
   1.8600000000000005E-002    -3.9078115743329533E-012
   1.8900000000000000E-002     1.1221632997826525E-011
   1.9200000000000002E-002    -1.2115526464018256E-011
   1.9500000000000003E-002    -1.7899286653549895E-012
   1.9799999999999998E-002     2.6928952123750349E-011
   2.0100000000000000E-002    -3.6186748042510430E-011
   2.0400000000000001E-002    -3.3347951136630805E-012
   2.0700000000000003E-002     6.3444888231956043E-011
   2.0999999999999998E-002    -2.2930223692041451E-011
   2.1299999999999999E-002    -1.3568726697776867E-010
   2.1600000000000001E-002     1.4612370341504644E-011
   2.1900000000000003E-002     7.4952094530900126E-010
   2.2200000000000004E-002    -8.8907325945797311E-010
   2.2500000000000006E-002    -2.3046484720623539E-009
   2.2800000000000001E-002     6.8066832170643465E-009
   2.3100000000000002E-002     2.9905911080874148E-010
   2.3400000000000004E-002    -2.7043370209867135E-008
   2.3699999999999999E-002     2.8763583515001301E-008
   2.4000000000000000E-002     7.2228978353905404E-008
   2.4300000000000002E-002    -1.8093349751779897E-007
   2.4599999999999997E-002    -2.0694514546448772E-007
   2.4900000000000005E-002     1.2609395980689442E-006
   2.5200000000000000E-002     4.8042579692264553E-006
   2.5499999999999995E-002     9.9097987913410179E-006
   2.5800000000000003E-002     1.4935153558326419E-005
   2.6099999999999998E-002     1.9425429854891263E-005
   2.6400000000000007E-002     2.7752183086704463E-005
   2.6700000000000002E-002     4.3523043132154271E-005
   2.6999999999999996E-002     6.5236585214734077E-005
   2.7300000000000005E-002     9.6040443168021739E-005
   2.7600000000000000E-002     1.4376976469065994E-004
   2.7900000000000008E-002     2.1043309243395925E-004
   2.8200000000000003E-002     2.9900064691901207E-004
   2.8499999999999998E-002     4.2264795047231019E-004
   2.8800000000000006E-002     5.9377559227868915E-004
   2.9100000000000001E-002     8.1582285929471254E-004
   2.9400000000000003E-002     1.0924180969595909E-003
   2.9700000000000004E-002     1.4305560616776347E-003
   3.0000000000000006E-002     1.8361489055678248E-003
   3.0300000000000001E-002     2.3012810852378607E-003
   3.0600000000000002E-002     2.7925383765250444E-003
   3.0900000000000004E-002     3.2661084551364183E-003
   3.1199999999999999E-002     3.6669601686298847E-003
   3.1500000000000007E-002     3.9041223935782909E-003
   3.1800000000000002E-002     3.8300887681543827E-003
   3.2099999999999997E-002     3.2439178321510553E-003
   3.2400000000000005E-002     1.9011124968528748E-003
   3.2700000000000000E-002    -5.2531861001625657E-004
   3.3000000000000002E-002    -4.4156010262668133E-003
   3.3300000000000003E-002    -1.0161204263567924E-002
   3.3599999999999998E-002    -1.8223905935883522E-002
   3.3900000000000000E-002    -2.9122367501258850E-002
   3.4200000000000001E-002    -4.3353203684091568E-002
   3.4500000000000003E-002    -6.1343349516391754E-002
   3.4799999999999998E-002    -8.3455674350261688E-002
   3.5099999999999999E-002   -0.10996637493371964     
   3.5400000000000001E-002   -0.14100368320941925     
   3.5699999999999996E-002   -0.17650482058525085     
   3.6000000000000004E-002   -0.21617767214775085     
   3.6299999999999999E-002   -0.25950324535369873     
   3.6600000000000008E-002   -0.30573138594627380     
   3.6900000000000002E-002   -0.35389921069145203     
   3.7199999999999997E-002   -0.40290486812591553     
   3.7500000000000006E-002   -0.45139211416244507     
   3.7800000000000000E-002   -0.49792787432670593     
   3.8100000000000009E-002   -0.54097729921340942     
   3.8400000000000004E-002   -0.57891446352005005     
   3.8699999999999998E-002   -0.61003315448760986     
   3.9000000000000007E-002   -0.63255459070205688     
   3.9300000000000002E-002   -0.64457929134368896     
   3.9600000000000003E-002   -0.64414292573928833     
   3.9900000000000005E-002   -0.62916737794876099     
   4.0200000000000000E-002   -0.59746897220611572     
   4.0500000000000001E-002   -0.54697477817535400     
   4.0800000000000003E-002   -0.47554576396942139     
   4.1100000000000005E-002   -0.38154429197311401     
   4.1399999999999999E-002   -0.26372545957565308     
   4.1700000000000008E-002   -0.12174438685178757     
   4.2000000000000003E-002     4.3769363313913345E-002
   4.2299999999999997E-002    0.23080551624298096     
   4.2600000000000006E-002    0.43582978844642639     
   4.2900000000000001E-002    0.65356862545013428     
   4.3200000000000002E-002    0.87745654582977295     
   4.3500000000000004E-002     1.0990157127380371     
   4.3799999999999999E-002     1.3092031478881836     
   4.4100000000000000E-002     1.4979044198989868     
   4.4400000000000002E-002     1.6552505493164062     
   4.4700000000000004E-002     1.7722656726837158     
   4.4999999999999998E-002     1.8408925533294678     
   4.5300000000000000E-002     1.8558512926101685     
   4.5600000000000002E-002     1.8140434026718140     
   4.5899999999999996E-002     1.7158663272857666     
   4.6200000000000005E-002     1.5651265382766724     
   4.6500000000000000E-002     1.3687947988510132     
   4.6799999999999994E-002     1.1369938850402832     
   4.7100000000000003E-002    0.88244980573654175     
   4.7399999999999998E-002    0.61966896057128906     
   4.7700000000000006E-002    0.36403021216392517     
   4.8000000000000001E-002    0.13058710098266602     
   4.8300000000000010E-002    -6.6485464572906494E-002
   4.8600000000000004E-002   -0.21584972739219666     
   4.8899999999999999E-002   -0.30852246284484863     
   4.9200000000000008E-002   -0.34019014239311218     
   4.9500000000000002E-002   -0.31018543243408203     
   4.9800000000000011E-002   -0.22267794609069824     
   5.0100000000000006E-002    -8.5983909666538239E-002
   5.0400000000000000E-002     8.7973669171333313E-002
   5.0700000000000009E-002    0.28393894433975220     
   5.1000000000000004E-002    0.48459368944168091     
   5.1299999999999998E-002    0.67186504602432251     
   5.1600000000000007E-002    0.82770740985870361     
   5.1900000000000002E-002    0.93525773286819458     
   5.2200000000000010E-002    0.98037421703338623     
   5.2500000000000005E-002    0.95165467262268066     
   5.2800000000000000E-002    0.84224086999893188     
   5.3099999999999994E-002    0.64861392974853516     
   5.3400000000000003E-002    0.37285929918289185     
   5.3699999999999998E-002     1.9872630015015602E-002
   5.4000000000000006E-002   -0.40001147985458374     
   5.4300000000000001E-002   -0.87440848350524902     
   5.4599999999999996E-002    -1.3870000839233398     
   5.4900000000000004E-002    -1.9201667308807373     
   5.5199999999999999E-002    -2.4544451236724854     
   5.5499999999999994E-002    -2.9695000648498535     
   5.5800000000000002E-002    -3.4447443485260010     
   5.6099999999999997E-002    -3.8603107929229736     
   5.6400000000000006E-002    -4.1966977119445801     
   5.6700000000000000E-002    -4.4361305236816406     
   5.6999999999999995E-002    -4.5627641677856445     
   5.7300000000000004E-002    -4.5633149147033691     
   5.7599999999999998E-002    -4.4281783103942871     
   5.7900000000000007E-002    -4.1519093513488770     
   5.8200000000000002E-002    -3.7340471744537354     
   5.8499999999999996E-002    -3.1802227497100830     
   5.8800000000000005E-002    -2.5021405220031738     
   5.9100000000000000E-002    -1.7187613248825073     
   5.9400000000000008E-002   -0.85527378320693970     
   5.9700000000000003E-002     5.7127885520458221E-002
   6.0000000000000012E-002    0.98140347003936768     
   6.0300000000000006E-002     1.8789287805557251     
   6.0600000000000001E-002     2.7076740264892578     
   6.0900000000000010E-002     3.4292933940887451     
   6.1200000000000004E-002     4.0072178840637207     
   6.1500000000000013E-002     4.4132685661315918     
   6.1800000000000008E-002     4.6266832351684570     
   6.2100000000000002E-002     4.6380996704101562     
   6.2399999999999997E-002     4.4497833251953125     
   6.2700000000000006E-002     4.0756258964538574     
   6.3000000000000000E-002     3.5404407978057861     
   6.3300000000000009E-002     2.8795504570007324     
   6.3600000000000004E-002     2.1340680122375488     
   6.3899999999999998E-002     1.3511633872985840     
   6.4199999999999993E-002    0.57728171348571777     
   6.4500000000000002E-002   -0.14173284173011780     
   6.4800000000000010E-002   -0.76591908931732178     
   6.5100000000000005E-002    -1.2639907598495483     
   6.5400000000000000E-002    -1.6121373176574707     
   6.5700000000000008E-002    -1.8000403642654419     
   6.5999999999999989E-002    -1.8255524635314941     
   6.6299999999999998E-002    -1.6991697549819946     
   6.6600000000000006E-002    -1.4384951591491699     
   6.6900000000000001E-002    -1.0692356824874878     
   6.7199999999999996E-002   -0.62151908874511719     
   6.7500000000000004E-002   -0.12765857577323914     
   6.7800000000000013E-002    0.37985172867774963     
   6.8099999999999994E-002    0.87000352144241333     
   6.8400000000000002E-002     1.3170396089553833     
   6.8700000000000011E-002     1.6979895830154419     
   6.8999999999999992E-002     1.9984102249145508     
   6.9300000000000000E-002     2.2073092460632324     
   6.9600000000000009E-002     2.3223509788513184     
   6.9900000000000004E-002     2.3454577922821045     
   7.0199999999999999E-002     2.2842803001403809     
   7.0500000000000007E-002     2.1516382694244385     
   7.0800000000000016E-002     1.9623519182205200     
   7.1099999999999997E-002     1.7357289791107178     
   7.1400000000000005E-002     1.4904892444610596     
   7.1700000000000000E-002     1.2465478181838989     
   7.1999999999999995E-002     1.0229126214981079     
   7.2300000000000003E-002    0.83474320173263550     
   7.2600000000000012E-002    0.69612079858779907     
   7.2900000000000006E-002    0.61353617906570435     
   7.3200000000000001E-002    0.59103280305862427     
   7.3499999999999996E-002    0.62450468540191650     
   7.3800000000000004E-002    0.70506602525711060     
   7.4099999999999999E-002    0.81840300559997559     
   7.4400000000000008E-002    0.94428157806396484     
   7.4700000000000003E-002     1.0607529878616333     
   7.5000000000000011E-002     1.1430138349533081     
   7.5299999999999992E-002     1.1668101549148560     
   7.5600000000000001E-002     1.1110917329788208     
   7.5900000000000009E-002    0.95833516120910645     
   7.6200000000000004E-002    0.69866549968719482     
   7.6499999999999999E-002    0.32805460691452026     
   7.6800000000000007E-002   -0.14727015793323517     
   7.7099999999999988E-002   -0.71329551935195923     
   7.7399999999999997E-002    -1.3491843938827515     
   7.7700000000000005E-002    -2.0255122184753418     
   7.8000000000000014E-002    -2.7109205722808838     
   7.8299999999999995E-002    -3.3696308135986328     
   7.8600000000000003E-002    -3.9687244892120361     
   7.8900000000000012E-002    -4.4768900871276855     
   7.9199999999999993E-002    -4.8692417144775391     
   7.9500000000000001E-002    -5.1282911300659180     
   7.9800000000000010E-002    -5.2449660301208496     
   8.0100000000000018E-002    -5.2198772430419922     
   8.0399999999999999E-002    -5.0624284744262695     
   8.0700000000000008E-002    -4.7892923355102539     
   8.1000000000000003E-002    -4.4249444007873535     
   8.1299999999999997E-002    -3.9954869747161865     
   8.1600000000000006E-002    -3.5313005447387695     
   8.1900000000000014E-002    -3.0601627826690674     
   8.2199999999999995E-002    -2.6074106693267822     
   8.2500000000000004E-002    -2.1946895122528076     
   8.2799999999999999E-002    -1.8353042602539062     
   8.3100000000000007E-002    -1.5382417440414429     
   8.3400000000000002E-002    -1.3030611276626587     
   8.3700000000000011E-002    -1.1245412826538086     
   8.4000000000000005E-002   -0.99147015810012817     
   8.4300000000000000E-002   -0.88755899667739868     
   8.4599999999999995E-002   -0.79638129472732544     
   8.4900000000000003E-002   -0.69850546121597290     
   8.5199999999999998E-002   -0.57758241891860962     
   8.5500000000000007E-002   -0.41994184255599976     
   8.5800000000000001E-002   -0.21531179547309875     
   8.6100000000000010E-002     3.9480812847614288E-002
   8.6399999999999991E-002    0.34385854005813599     
   8.6699999999999999E-002    0.69012433290481567     
   8.7000000000000008E-002     1.0653046369552612     
   8.7300000000000003E-002     1.4536527395248413     
   8.7599999999999997E-002     1.8326537609100342     
   8.7900000000000006E-002     2.1826291084289551     
   8.8200000000000014E-002     2.4789245128631592     
   8.8499999999999995E-002     2.7015044689178467     
   8.8800000000000004E-002     2.8319787979125977     
   8.9100000000000013E-002     2.8558506965637207     
   8.9399999999999993E-002     2.7672586441040039     
   8.9700000000000002E-002     2.5649240016937256     
   9.0000000000000011E-002     2.2588746547698975     
   9.0299999999999991E-002     1.8694403171539307     
   9.0600000000000000E-002     1.4252742528915405     
   9.0900000000000009E-002    0.97024470567703247     
   9.1200000000000017E-002    0.55225503444671631     
   9.1499999999999998E-002    0.23176254332065582     
   9.1800000000000007E-002     6.8694934248924255E-002
   9.2100000000000001E-002    0.12274371087551117     
   9.2399999999999996E-002    0.44607385993003845     
   9.2700000000000005E-002     1.0711725950241089     
   9.3000000000000013E-002     2.0123085975646973     
   9.3300000000000008E-002     3.2498211860656738     
   9.3600000000000003E-002     4.7314777374267578     
   9.3899999999999997E-002     6.3701162338256836     
   9.4200000000000006E-002     8.0424861907958984     
   9.4500000000000001E-002     9.6007699966430664     
   9.4800000000000009E-002     10.879035949707031     
   9.5100000000000004E-002     11.709161758422852     
   9.5399999999999999E-002     11.938199043273926     
   9.5699999999999993E-002     11.443013191223145     
   9.6000000000000002E-002     10.149855613708496     
   9.6300000000000011E-002     8.0438776016235352     
   9.6600000000000005E-002     5.1804246902465820     
   9.6900000000000000E-002     1.6830301284790039     
   9.7200000000000009E-002    -2.2577998638153076     
   9.7499999999999989E-002    -6.3981099128723145     
   9.7799999999999998E-002    -10.461232185363770     
   9.8100000000000007E-002    -14.153722763061523     
   9.8400000000000015E-002    -17.196626663208008     
   9.8699999999999996E-002    -19.344209671020508     
   9.9000000000000005E-002    -20.409294128417969     
   9.9300000000000013E-002    -20.278690338134766     
   9.9599999999999994E-002    -18.921276092529297     
   9.9900000000000003E-002    -16.396078109741211     
  0.10020000000000001         -12.841346740722656     
  0.10049999999999999         -8.4677734375000000     
  0.10080000000000000         -3.5391225814819336     
  0.10110000000000001          1.6493619680404663     
  0.10140000000000000          6.7910528182983398     
  0.10170000000000000          11.593547821044922     
  0.10200000000000001          15.792644500732422     
  0.10230000000000002          19.174322128295898     
  0.10260000000000000          21.580499649047852     
  0.10290000000000001          22.914222717285156     
  0.10320000000000000          23.144548416137695     
  0.10350000000000001          22.295206069946289     
  0.10380000000000000          20.444526672363281     
  0.10410000000000001          17.710277557373047     
  0.10440000000000001          14.241819381713867     
  0.10470000000000000          10.211043357849121     
  0.10500000000000000          5.7975878715515137     
  0.10530000000000000          1.1873164176940918     
  0.10560000000000000         -3.4406247138977051     
  0.10590000000000001         -7.9174866676330566     
  0.10620000000000000         -12.088522911071777     
  0.10650000000000001         -15.819749832153320     
  0.10679999999999999         -18.997371673583984     
  0.10710000000000000         -21.533792495727539     
  0.10740000000000001         -23.368339538574219     
  0.10770000000000000         -24.462524414062500     
  0.10800000000000000         -24.812780380249023     
  0.10830000000000001         -24.432792663574219     
  0.10859999999999999         -23.368673324584961     
  0.10890000000000000         -21.679866790771484     
  0.10920000000000001         -19.450208663940430     
  0.10950000000000001         -16.771814346313477     
  0.10979999999999999         -13.747190475463867     
  0.11009999999999999         -10.485721588134766     
  0.11040000000000001         -7.0907363891601562     
  0.11070000000000001         -3.6683819293975830     
  0.11100000000000000        -0.31367623805999756     
  0.11130000000000000          2.8874511718750000     
  0.11160000000000002          5.8585972785949707     
  0.11190000000000001          8.5405950546264648     
  0.11220000000000001          10.883808135986328     
  0.11250000000000000          12.856916427612305     
  0.11280000000000000          14.441809654235840     
  0.11309999999999999          15.631464958190918     
  0.11340000000000001          16.437015533447266     
  0.11369999999999998          16.875080108642578     
  0.11400000000000000          16.975324630737305     
  0.11430000000000000          16.773046493530273     
  0.11460000000000002          16.306488037109375     
  0.11489999999999999          15.620746612548828     
  0.11520000000000001          14.752118110656738     
  0.11550000000000001          13.745410919189453     
  0.11580000000000000          12.629509925842285     
  0.11609999999999999          11.437058448791504     
  0.11640000000000002          10.188629150390625     
  0.11670000000000001          8.8990097045898438     
  0.11700000000000001          7.5809016227722168     
  0.11730000000000000          6.2345976829528809     
  0.11760000000000000          4.8638191223144531     
  0.11789999999999999          3.4656169414520264     
  0.11820000000000001          2.0391566753387451     
  0.11850000000000001         0.58503252267837524     
  0.11880000000000000        -0.89083850383758545     
  0.11910000000000000         -2.3798732757568359     
  0.11940000000000002         -3.8629066944122314     
  0.11970000000000001         -5.3183655738830566     
  0.12000000000000001         -6.7130589485168457     
  0.12030000000000000         -8.0148582458496094     
  0.12060000000000000         -9.1840229034423828     
  0.12089999999999999         -10.180918693542480     
  0.12119999999999999         -10.970816612243652     
  0.12150000000000001         -11.521362304687500     
  0.12180000000000001         -11.812703132629395     
  0.12210000000000000         -11.829152107238770     
  0.12239999999999999         -11.574082374572754     
  0.12270000000000002         -11.058938980102539     
  0.12300000000000001         -10.307524681091309     
  0.12330000000000001         -9.3593025207519531     
  0.12360000000000000         -8.2547197341918945     
  0.12390000000000000         -7.0465245246887207     
  0.12419999999999999         -5.7866621017456055     
  0.12450000000000001         -4.5280919075012207     
  0.12480000000000001         -3.3192391395568848     
  0.12509999999999999         -2.1984589099884033     
  0.12540000000000001         -1.2013957500457764     
  0.12570000000000003        -0.34736058115959167     
  0.12600000000000000         0.35508280992507935     
  0.12630000000000002         0.90591812133789062     
  0.12659999999999999          1.3213504552841187     
  0.12690000000000001          1.6190791130065918     
  0.12719999999999998          1.8324353694915771     
  0.12750000000000000          1.9903081655502319     
  0.12780000000000002          2.1301221847534180     
  0.12809999999999999          2.2808413505554199     
  0.12840000000000001          2.4718346595764160     
  0.12869999999999998          2.7197601795196533     
  0.12900000000000000          3.0391085147857666     
  0.12930000000000003          3.4248104095458984     
  0.12959999999999999          3.8700847625732422     
  0.12990000000000002          4.3491797447204590     
  0.13019999999999998          4.8383698463439941     
  0.13050000000000000          5.2950448989868164     
  0.13080000000000003          5.6849517822265625     
  0.13109999999999999          5.9648561477661133     
  0.13140000000000002          6.1002922058105469     
  0.13169999999999998          6.0637874603271484     
  0.13200000000000001          5.8327126502990723     
  0.13229999999999997          5.4053773880004883     
  0.13260000000000000          4.7868881225585938     
  0.13290000000000002          4.0014381408691406     
  0.13319999999999999          3.0839629173278809     
  0.13350000000000001          2.0834426879882812     
  0.13380000000000003          1.0534992218017578     
  0.13410000000000000          5.6064568459987640E-002
  0.13440000000000002        -0.85408473014831543     
  0.13469999999999999         -1.6218380928039551     
  0.13500000000000001         -2.2097778320312500     
  0.13529999999999998         -2.5882732868194580     
  0.13560000000000000         -2.7500288486480713     
  0.13590000000000002         -2.7028772830963135     
  0.13619999999999999         -2.4743731021881104     
  0.13650000000000001         -2.1036570072174072     
  0.13680000000000003         -1.6422394514083862     
  0.13710000000000000         -1.1510902643203735     
  0.13740000000000002        -0.68353760242462158     
  0.13769999999999999        -0.29707509279251099     
  0.13800000000000001         -3.2979793846607208E-002
  0.13829999999999998          7.8340090811252594E-002
  0.13860000000000000          2.2465702146291733E-002
  0.13890000000000002        -0.19786961376667023     
  0.13919999999999999        -0.56269764900207520     
  0.13950000000000001         -1.0422445535659790     
  0.13979999999999998         -1.5902724266052246     
  0.14010000000000000         -2.1622176170349121     
  0.14040000000000002         -2.7023212909698486     
  0.14069999999999999         -3.1657829284667969     
  0.14100000000000001         -3.5077962875366211     
  0.14130000000000004         -3.6976556777954102     
  0.14160000000000000         -3.7118921279907227     
  0.14189999999999997         -3.5432853698730469     
  0.14219999999999999         -3.1968493461608887     
  0.14250000000000002         -2.6891400814056396     
  0.14279999999999998         -2.0486705303192139     
  0.14310000000000000         -1.3122733831405640     
  0.14339999999999997        -0.52175998687744141     
  0.14369999999999999         0.27410802245140076     
  0.14400000000000002          1.0329487323760986     
  0.14429999999999998          1.7089207172393799     
  0.14460000000000001          2.2684073448181152     
  0.14490000000000003          2.6811156272888184     
  0.14520000000000000          2.9284005165100098     
  0.14550000000000002          3.0054061412811279     
  0.14579999999999999          2.9139173030853271     
  0.14610000000000001          2.6705393791198730     
  0.14640000000000003          2.2985219955444336     
  0.14670000000000000          1.8292969465255737     
  0.14699999999999996          1.3019434213638306     
  0.14729999999999999         0.75325495004653931     
  0.14760000000000001         0.22386178374290466     
  0.14789999999999998        -0.25043821334838867     
  0.14820000000000000        -0.64047950506210327     