  -1.4999999999999999E-002     0.0000000000000000     
  -1.4700000000000000E-002     0.0000000000000000     
  -1.4400000000000000E-002     0.0000000000000000     
  -1.4100000000000000E-002     0.0000000000000000     
  -1.3800000000000000E-002     0.0000000000000000     
  -1.3500000000000000E-002     0.0000000000000000     
  -1.3200000000000000E-002     0.0000000000000000     
  -1.2899999999999998E-002     0.0000000000000000     
  -1.2600000000000000E-002     0.0000000000000000     
  -1.2299999999999998E-002     0.0000000000000000     
  -1.2000000000000000E-002     0.0000000000000000     
  -1.1699999999999999E-002     0.0000000000000000     
  -1.1399999999999999E-002     0.0000000000000000     
  -1.1099999999999999E-002     0.0000000000000000     
  -1.0799999999999999E-002     0.0000000000000000     
  -1.0499999999999999E-002     0.0000000000000000     
  -1.0199999999999999E-002     0.0000000000000000     
  -9.8999999999999991E-003     0.0000000000000000     
  -9.5999999999999992E-003     0.0000000000000000     
  -9.2999999999999992E-003     0.0000000000000000     
  -8.9999999999999993E-003     0.0000000000000000     
  -8.6999999999999994E-003     0.0000000000000000     
  -8.3999999999999995E-003     0.0000000000000000     
  -8.0999999999999996E-003     0.0000000000000000     
  -7.7999999999999988E-003     0.0000000000000000     
  -7.4999999999999997E-003     0.0000000000000000     
  -7.1999999999999998E-003     0.0000000000000000     
  -6.8999999999999981E-003     0.0000000000000000     
  -6.5999999999999982E-003     0.0000000000000000     
  -6.3000000000000000E-003     0.0000000000000000     
  -6.0000000000000001E-003     0.0000000000000000     
  -5.6999999999999985E-003     0.0000000000000000     
  -5.3999999999999986E-003     0.0000000000000000     
  -5.1000000000000004E-003     0.0000000000000000     
  -4.7999999999999987E-003     0.0000000000000000     
  -4.5000000000000005E-003     0.0000000000000000     
  -4.1999999999999989E-003     0.0000000000000000     
  -3.8999999999999990E-003     0.0000000000000000     
  -3.5999999999999990E-003     0.0000000000000000     
  -3.2999999999999991E-003     0.0000000000000000     
  -2.9999999999999992E-003     0.0000000000000000     
  -2.6999999999999993E-003     0.0000000000000000     
  -2.3999999999999994E-003     0.0000000000000000     
  -2.0999999999999977E-003     0.0000000000000000     
  -1.7999999999999995E-003     0.0000000000000000     
  -1.4999999999999979E-003     0.0000000000000000     
  -1.1999999999999997E-003     0.0000000000000000     
  -8.9999999999999976E-004     0.0000000000000000     
  -5.9999999999999810E-004     0.0000000000000000     
  -2.9999999999999992E-004     0.0000000000000000     
   0.0000000000000000          0.0000000000000000     
   3.0000000000000165E-004     0.0000000000000000     
   5.9999999999999984E-004     0.0000000000000000     
   9.0000000000000149E-004     0.0000000000000000     
   1.2000000000000031E-003     0.0000000000000000     
   1.5000000000000013E-003     0.0000000000000000     
   1.8000000000000030E-003     0.0000000000000000     
   2.1000000000000012E-003     0.0000000000000000     
   2.3999999999999994E-003     0.0000000000000000     
   2.7000000000000010E-003     0.0000000000000000     
   2.9999999999999992E-003     0.0000000000000000     
   3.3000000000000008E-003     0.0000000000000000     
   3.6000000000000025E-003     0.0000000000000000     
   3.9000000000000007E-003     0.0000000000000000     
   4.2000000000000023E-003     0.0000000000000000     
   4.5000000000000005E-003     0.0000000000000000     
   4.7999999999999987E-003     0.0000000000000000     
   5.1000000000000004E-003     0.0000000000000000     
   5.4000000000000020E-003     0.0000000000000000     
   5.7000000000000037E-003     0.0000000000000000     
   5.9999999999999984E-003     1.0449202388777296E-037
   6.3000000000000000E-003     5.7049186638114082E-037
   6.6000000000000017E-003    -3.4656339647830388E-036
   6.9000000000000034E-003     8.0817362108542954E-036
   7.2000000000000015E-003    -4.2777779945829380E-036
   7.5000000000000032E-003     2.2757203447200715E-035
   7.8000000000000014E-003     7.3573760614244340E-036
   8.0999999999999996E-003    -1.4163167215621851E-034
   8.4000000000000012E-003     2.6847048468494349E-034
   8.7000000000000029E-003    -5.6941134227498654E-034
   9.0000000000000011E-003     1.0898593514999343E-034
   9.2999999999999992E-003     2.8329011161139772E-034
   9.6000000000000009E-003     1.9681320227354212E-034
   9.8999999999999991E-003    -1.7670188014859735E-033
   1.0200000000000001E-002     3.3839363413696221E-033
   1.0500000000000002E-002    -7.0713490338173805E-033
   1.0800000000000004E-002     1.0388017387934215E-032
   1.1099999999999999E-002     2.3369334478378640E-032
   1.1400000000000000E-002    -1.4480699238834998E-031
   1.1700000000000002E-002     2.4408519693982146E-031
   1.2000000000000004E-002     1.5751266139314687E-031
   1.2300000000000002E-002    -1.5244933830337676E-030
   1.2600000000000000E-002     2.6188234947392044E-030
   1.2900000000000002E-002     9.4596527694321083E-031
   1.3200000000000000E-002    -1.2339965736641104E-029
   1.3500000000000002E-002     2.0614134871334700E-029
   1.3800000000000003E-002     5.1967130999979288E-030
   1.4100000000000001E-002    -8.1573188691925943E-029
   1.4400000000000000E-002     1.3276368532398603E-028
   1.4700000000000001E-002     2.5356176650725814E-029
   1.4999999999999999E-002    -4.6124439654343667E-028
   1.5300000000000001E-002     7.2195760939811876E-028
   1.5600000000000003E-002     1.2176386548872264E-028
   1.5899999999999997E-002    -2.2438360012783107E-027
   1.6199999999999999E-002     3.3573111704122205E-027
   1.6500000000000001E-002     4.9457568442042403E-028
   1.6800000000000002E-002    -9.3625314538054751E-027
   1.7100000000000004E-002     1.3513372280742365E-026
   1.7400000000000006E-002     1.1592886131188151E-027
   1.7700000000000000E-002    -3.2565188245572989E-026
   1.8000000000000002E-002     4.7791267091489348E-026
   1.8300000000000004E-002    -5.9044385991437928E-027
   1.8600000000000005E-002    -8.8213400633441358E-026
   1.8900000000000000E-002     1.5837757574678069E-025
   1.9200000000000002E-002    -1.0001089641875718E-025
   1.9500000000000003E-002    -1.5363559461865729E-025
   1.9799999999999998E-002     5.6237976231820619E-025
   2.0100000000000000E-002    -7.8172241184459662E-025
   2.0400000000000001E-002    -3.0985643073564763E-026
   2.0700000000000003E-002     2.4376127069859879E-024
   2.0999999999999998E-002    -4.3893026853380534E-024
   2.1299999999999999E-002     4.1948981625565544E-025
   2.1600000000000001E-002     1.1669541592668620E-023
   2.1900000000000003E-002    -1.8935361375035089E-023
   2.2200000000000004E-002    -2.4980032621422314E-024
   2.2500000000000006E-002     4.6717145042001407E-023
   2.2800000000000001E-002    -3.7368340588301404E-023
   2.3100000000000002E-002    -9.2829031375170909E-023
   2.3400000000000004E-002     1.2094852731042095E-022
   2.3699999999999999E-002     6.1574852612281101E-022
   2.4000000000000000E-002    -2.0860090197753805E-021
   2.4300000000000002E-002     4.5078888736298745E-022
   2.4599999999999997E-002     1.1653876489706607E-020
   2.4900000000000005E-002    -2.7470629632587871E-020
   2.5200000000000000E-002    -3.8064183119427919E-022
   2.5499999999999995E-002     1.0572710364617566E-019
   2.5800000000000003E-002    -1.1833942448929695E-019
   2.6099999999999998E-002    -2.0518244678128586E-019
   2.6400000000000007E-002    -4.1483726679472793E-020
   2.6700000000000002E-002     3.1479423932503070E-018
   2.6999999999999996E-002    -4.9693134286197289E-018
   2.7300000000000005E-002    -1.6494909346201451E-017
   2.7600000000000000E-002     7.1917305809661476E-017
   2.7900000000000008E-002    -7.2380742913156501E-017
   2.8200000000000003E-002    -1.1776585957128752E-016
   2.8499999999999998E-002     3.5261160435738654E-016
   2.8800000000000006E-002    -8.2803029727356666E-016
   2.9100000000000001E-002     4.7297246163626931E-015
   2.9400000000000003E-002    -1.2630744559470489E-014
   2.9700000000000004E-002    -1.2957469053889850E-014
   3.0000000000000006E-002     1.6183760264469541E-013
   3.0300000000000001E-002    -3.2941299307020962E-013
   3.0600000000000002E-002    -3.2762232578109791E-013
   3.0900000000000004E-002     2.7790659104407297E-012
   3.1199999999999999E-002    -3.9008308299290446E-012
   3.1500000000000007E-002    -6.9379330259491920E-012
   3.1800000000000002E-002     3.1391989425291809E-011
   3.2099999999999997E-002    -2.1790683556887712E-011
   3.2400000000000005E-002    -9.8208274742477461E-011
   3.2700000000000000E-002     2.3097540133100469E-010
   3.3000000000000002E-002     5.3009991931074402E-011
   3.3300000000000003E-002    -8.8692837692709245E-010
   3.3599999999999998E-002     8.5344955311173895E-010
   3.3900000000000000E-002     1.9391618951052732E-009
   3.4200000000000001E-002    -4.5585365633815572E-009
   3.4500000000000003E-002    -1.4709514867467235E-009
   3.4799999999999998E-002     1.4276913601181282E-008
   3.5099999999999999E-002    -1.2385662345615635E-008
   3.5400000000000001E-002    -3.4577051668941232E-008
   3.5699999999999996E-002     9.1679137787299473E-008
   3.6000000000000004E-002     5.2659273374701018E-008
   3.6299999999999999E-002     2.5439752274876586E-008
   3.6600000000000008E-002     4.6929901194689997E-006
   3.6900000000000002E-002     2.2236243519059540E-005
   3.7199999999999997E-002     5.0750401177567309E-005
   3.7500000000000006E-002     7.2746054254081097E-005
   3.7800000000000000E-002     8.0539514052250551E-005
   3.8100000000000009E-002     9.7275314217906868E-005
   3.8400000000000004E-002     1.5122026559142264E-004
   3.8699999999999998E-002     2.4522293527520691E-004
   3.9000000000000007E-002     3.7068460209150125E-004
   3.9300000000000002E-002     5.3247850527891535E-004
   3.9600000000000003E-002     7.5235240040385370E-004
   3.9900000000000005E-002     1.0603039167925571E-003
   4.0200000000000000E-002     1.4770720373147306E-003
   4.0500000000000001E-002     2.0093341594722772E-003
   4.0800000000000003E-002     2.6668155364973911E-003
   4.1100000000000005E-002     3.4577487571489374E-003
   4.1399999999999999E-002     4.3690068672737614E-003
   4.1700000000000008E-002     5.3589483752188583E-003
   4.2000000000000003E-002     6.3318976584519349E-003
   4.2299999999999997E-002     7.1217348017530713E-003
   4.2600000000000006E-002     7.5134777618092730E-003
   4.2900000000000001E-002     7.2179733677767421E-003
   4.3200000000000002E-002     5.8056471332049008E-003
   4.3500000000000004E-002     2.7062253488932125E-003
   4.3799999999999999E-002    -2.7439242160739660E-003
   4.4100000000000000E-002    -1.1279180695603686E-002
   4.4400000000000002E-002    -2.3711856898145478E-002
   4.4700000000000004E-002    -4.0883040474376520E-002
   4.4999999999999998E-002    -6.3512486866950324E-002
   4.5300000000000000E-002    -9.2080194205587773E-002
   4.5600000000000002E-002   -0.12674515391880448     
   4.5899999999999996E-002   -0.16713552305741164     
   4.6200000000000005E-002   -0.21214508515816721     
   4.6500000000000000E-002   -0.25986827302072424     
   4.6799999999999994E-002   -0.30746587857132823     
   4.7100000000000003E-002   -0.35105689165084009     
   4.7399999999999998E-002   -0.38585452836742817     
   4.7700000000000006E-002   -0.40634067076955560     
   4.8000000000000001E-002   -0.40651878071176739     
   4.8300000000000010E-002   -0.38038123235166665     
   4.8600000000000004E-002   -0.32243639382939460     
   4.8899999999999999E-002   -0.22837946991482411     
   4.9200000000000008E-002    -9.5766643418344621E-002
   4.9500000000000002E-002     7.5388634448142477E-002
   4.9800000000000011E-002    0.28204837537580563     
   5.0100000000000006E-002    0.51784505586475227     
   5.0400000000000000E-002    0.77303672237747634     
   5.0700000000000009E-002     1.0347223077690728     
   5.1000000000000004E-002     1.2874714085174332     
   5.1299999999999998E-002     1.5142531420598715     
   5.1600000000000007E-002     1.6975809837844622     
   5.1900000000000002E-002     1.8209849259002837     
   5.2200000000000010E-002     1.8704403171222239     
   5.2500000000000005E-002     1.8356788785201701     
   5.2800000000000000E-002     1.7115481052370001     
   5.3099999999999994E-002     1.4986270972937277     
   5.3400000000000003E-002     1.2036636990482670     
   5.3699999999999998E-002    0.83936947854716948     
   5.4000000000000006E-002    0.42371342102732079     
   5.4300000000000001E-002    -2.1270275302190722E-002
   5.4599999999999996E-002   -0.47128886822991056     
   5.4900000000000004E-002   -0.90135933750981323     
   5.5199999999999999E-002    -1.2878947281534963     
   5.5499999999999994E-002    -1.6106120730976841     
   5.5800000000000002E-002    -1.8540459055711267     
   5.6099999999999997E-002    -2.0086674799115158     
   5.6400000000000006E-002    -2.0714454071342345     
   5.6700000000000000E-002    -2.0461457386695088     
   5.6999999999999995E-002    -1.9425242663323274     
   5.7300000000000004E-002    -1.7753331653043247     
   5.7599999999999998E-002    -1.5633546395339550     
   5.7900000000000007E-002    -1.3271243934939179     
   5.8200000000000002E-002    -1.0874748385086903     
   5.8499999999999996E-002   -0.86411876679149557     
   5.8800000000000005E-002   -0.67351290709472522     
   5.9100000000000000E-002   -0.52809296222311808     
   5.9400000000000008E-002   -0.43550867940723847     
   5.9700000000000003E-002   -0.39775817220802345     
   6.0000000000000012E-002   -0.41173962560859501     
   6.0300000000000006E-002   -0.46949148913297201     
   6.0600000000000001E-002   -0.55870815126498030     
   6.0900000000000010E-002   -0.66428422382391261     
   6.1200000000000004E-002   -0.76925008384796811     
   6.1500000000000013E-002   -0.85600990096595098     
   6.1800000000000008E-002   -0.90808498970529783     
   6.2100000000000002E-002   -0.91104328209001295     
   6.2399999999999997E-002   -0.85367322902586551     
   6.2700000000000006E-002   -0.72916557643939583     
   6.3000000000000000E-002   -0.53502755525314405     
   6.3300000000000009E-002   -0.27427310935284410     
   6.3600000000000004E-002     4.5379670727222265E-002
   6.3899999999999998E-002    0.41180520081587879     
   6.4199999999999993E-002    0.80876339453536161     
   6.4500000000000002E-002     1.2175610758483160     
   6.4800000000000010E-002     1.6179613631523679     
   6.5100000000000005E-002     1.9892864555823948     
   6.5400000000000000E-002     2.3124037280490626     
   6.5700000000000008E-002     2.5702723717996179     
   6.5999999999999989E-002     2.7492011373843894     
   6.6299999999999998E-002     2.8400382090881209     
   6.6600000000000006E-002     2.8379454700345974     
   6.6900000000000001E-002     2.7426474639526788     
   6.7199999999999996E-002     2.5585698749790637     
   6.7500000000000004E-002     2.2937939922756243     
   6.7800000000000013E-002     1.9595027347944267     
   6.8099999999999994E-002     1.5694363695671179     
   6.8400000000000002E-002     1.1384522835163402     
   6.8700000000000011E-002    0.68234317572422043     
   6.8999999999999992E-002    0.21677116009633401     
   6.9300000000000000E-002   -0.24331362230704556     
   6.9600000000000009E-002   -0.68367129015438621     
   6.9900000000000004E-002    -1.0913291939814549     
   7.0199999999999999E-002    -1.4550301085445057     
   7.0500000000000007E-002    -1.7645579821111284     
   7.0800000000000016E-002    -2.0115827831293771     
   7.1099999999999997E-002    -2.1898278240455511     
   7.1400000000000005E-002    -2.2945910646096053     
   7.1700000000000000E-002    -2.3237207576742094     
   7.1999999999999995E-002    -2.2774338514220389     
   7.2300000000000003E-002    -2.1582403475135408     
   7.2600000000000012E-002    -1.9717047332028059     
   7.2900000000000006E-002    -1.7257710136791360     
   7.3200000000000001E-002    -1.4304138197282761     
   7.3499999999999996E-002    -1.0979769419772722     
   7.3800000000000004E-002   -0.74197405740832800     
   7.4099999999999999E-002   -0.37656535123674928     
   7.4400000000000008E-002    -1.6433282628748103E-002
   7.4700000000000003E-002    0.32477506646789323     
   7.5000000000000011E-002    0.63458932353610109     
   7.5299999999999992E-002    0.90161183291525404     
   7.5600000000000001E-002     1.1171123071144748     
   7.5900000000000009E-002     1.2746346689169883     
   7.6200000000000004E-002     1.3696260417383286     
   7.6499999999999999E-002     1.4006188297638076     
   7.6800000000000007E-002     1.3682033692277429     
   7.7099999999999988E-002     1.2750713526350204     
   7.7399999999999997E-002     1.1267022889326270     
   7.7700000000000005E-002    0.93028625403993459     
   7.8000000000000014E-002    0.69489163383279928     
   7.8299999999999995E-002    0.43189892498193139     
   7.8600000000000003E-002    0.15394487347807484     
   7.8900000000000012E-002   -0.12515520022487414     
   7.9199999999999993E-002   -0.39027292946097525     
   7.9500000000000001E-002   -0.62634847667222715     
   7.9800000000000010E-002   -0.81890278528295113     
   8.0100000000000018E-002   -0.95455283026861792     
   8.0399999999999999E-002    -1.0224198018108019     
   8.0700000000000008E-002    -1.0149047627477685     
   8.1000000000000003E-002   -0.92813610455522522     
   8.1299999999999997E-002   -0.76323615270350986     
   8.1600000000000006E-002   -0.52638173080840645     
   8.1900000000000014E-002   -0.22859203716051191     
   8.2199999999999995E-002    0.11411959608790279     
   8.2500000000000004E-002    0.48183748801902482     
   8.2799999999999999E-002    0.85220257368697361     
   8.3100000000000007E-002     1.2011544873438069     
   8.3400000000000002E-002     1.5050618149855879     
   8.3700000000000011E-002     1.7425238019835945     
   8.4000000000000005E-002     1.8955503669985418     
   8.4300000000000000E-002     1.9516921329660732     
   8.4599999999999995E-002     1.9047561013953072     
   8.4900000000000003E-002     1.7551587176868537     
   8.5199999999999998E-002     1.5107846433469483     
   8.5500000000000007E-002     1.1860310508081975     
   8.5800000000000001E-002    0.80063886729941736     
   8.6100000000000010E-002    0.37920362625905923     
   8.6399999999999991E-002    -5.1729026980753545E-002
   8.6699999999999999E-002   -0.46520079579802953     
   8.7000000000000008E-002   -0.83514440529865297     
   8.7300000000000003E-002    -1.1396274927309591     
   8.7599999999999997E-002    -1.3614022587245884     
   8.7900000000000006E-002    -1.4890004772975942     
   8.8200000000000014E-002    -1.5183518596559793     
   8.8499999999999995E-002    -1.4519320369260171     
   8.8800000000000004E-002    -1.2986886732381144     
   8.9100000000000013E-002    -1.0734515375617093     
   8.9399999999999993E-002   -0.79509628050185466     
   8.9700000000000002E-002   -0.48561574230036086     
   9.0000000000000011E-002   -0.16857696886681950     
   9.0299999999999991E-002    0.13288678090478045     
   9.0600000000000000E-002    0.39702019015805767     
   9.0900000000000009E-002    0.60468294789963650     
   9.1200000000000017E-002    0.74048718347125231     
   9.1499999999999998E-002    0.79315079517498077     
   9.1800000000000007E-002    0.75612171495465041     
   9.2100000000000001E-002    0.62780904530503578     
   9.2399999999999996E-002    0.41147670406999914     
   9.2700000000000005E-002    0.11537561378450345     
   9.3000000000000013E-002   -0.24779158491269193     
   9.3300000000000008E-002   -0.66114673657628131     
   9.3600000000000003E-002    -1.1040020780818089     
   9.3899999999999997E-002    -1.5529003056643162     
   9.4200000000000006E-002    -1.9826098497004523     
   9.4500000000000001E-002    -2.3672043775435156     
   9.4800000000000009E-002    -2.6815487655067045     
   9.5100000000000004E-002    -2.9028207840715368     
   9.5399999999999999E-002    -3.0120582454995741     
   9.5699999999999993E-002    -2.9956149720821514     
   9.6000000000000002E-002    -2.8464977611420181     
   9.6300000000000011E-002    -2.5651152486750277     
   9.6600000000000005E-002    -2.1594652546382331     
   9.6900000000000000E-002    -1.6451543863105833     
   9.7200000000000009E-002    -1.0446373156470798     
   9.7499999999999989E-002   -0.38562765215905870     
   9.7799999999999998E-002    0.30036392339712070     
   9.8100000000000007E-002    0.98039409556240997     
   9.8400000000000015E-002     1.6216405742407716     
   9.8699999999999996E-002     2.1937306432688430     
   9.9000000000000005E-002     2.6707938470727868     
   9.9300000000000013E-002     3.0315919902588178     
   9.9599999999999994E-002     3.2616791871382702     
   9.9900000000000003E-002     3.3531430930930668     
  0.10020000000000001          3.3037066375078581     
  0.10049999999999999          3.1177933584434427     
  0.10080000000000000          2.8048128990206393     
  0.10110000000000001          2.3781910690638863     
  0.10140000000000000          1.8558985271225588     
  0.10170000000000000          1.2585712112595715     
  0.10200000000000001         0.60937612023179710     
  0.10230000000000002         -6.5701326851733910E-002
  0.10260000000000000        -0.73934038047569217     
  0.10290000000000001         -1.3826096957900660     
  0.10320000000000000         -1.9654905000385767     
  0.10350000000000001         -2.4589646576972939     
  0.10380000000000000         -2.8351004743068415     
  0.10410000000000001         -3.0689207022369374     
  0.10440000000000001         -3.1412215056362811     
  0.10470000000000000         -3.0388209119175684     
  0.10500000000000000         -2.7571371053184386     
  0.10530000000000000         -2.3018904411118868     
  0.10560000000000000         -1.6884317483131710     
  0.10590000000000001        -0.94269832679082555     
  0.10620000000000000        -0.10046477695520295     
  0.10650000000000001         0.79607355184929141     
  0.10679999999999999          1.6993935714457535     
  0.10710000000000000          2.5601247223486183     
  0.10740000000000001          3.3318031192824265     
  0.10770000000000000          3.9730416045181158     
  0.10800000000000000          4.4511169868179365     
  0.10830000000000001          4.7453369669844108     
  0.10859999999999999          4.8476051885195659     
  0.10890000000000000          4.7631888434541452     
  0.10920000000000001          4.5107217782961726     
  0.10950000000000001          4.1195667195353138     
  0.10979999999999999          3.6272050441862405     
  0.11009999999999999          3.0762480251729407     
  0.11040000000000001          2.5096271887230639     
  0.11070000000000001          1.9672440216066911     
  0.11100000000000000          1.4826308633171390     
  0.11130000000000000          1.0794780792799479     
  0.11160000000000002         0.76994394719421066     
  0.11190000000000001         0.55482605837967292     
  0.11220000000000001         0.42282250015746481     
  0.11250000000000000         0.35287302866595827     
  0.11280000000000000         0.31728279588340236     
  0.11309999999999999         0.28396786075693292     
  0.11340000000000001         0.22116146013806137     
  0.11369999999999998         0.10075168275934132     
  0.11400000000000000         -9.9275538395989793E-002
  0.11430000000000000        -0.39127153032624307     
  0.11460000000000002        -0.77717686500394834     
  0.11489999999999999         -1.2487223824606204     
  0.11520000000000001         -1.7871072216871724     
  0.11550000000000001         -2.3660075848172113     
  0.11580000000000000         -2.9543289183587405     
  0.11609999999999999         -3.5181820880105903     
  0.11640000000000002         -4.0252414864056334     
  0.11670000000000001         -4.4483183799884500     
  0.11700000000000001         -4.7657843856859472     
  0.11730000000000000         -4.9656319555327002     
  0.11760000000000000         -5.0450236117865188     
  0.11789999999999999         -5.0091221804151473     
  0.11820000000000001         -4.8720996191550512     
  0.11850000000000001         -4.6533832624941169     
  0.11880000000000000         -4.3748025926454233     
  0.11910000000000000         -4.0602098589258730     
  0.11940000000000002         -3.7306998708949806     
  0.11970000000000001         -3.4026782327184435     
  0.12000000000000001         -3.0881472828446732     
  0.12030000000000000         -2.7917540926247284     
  0.12060000000000000         -2.5116442922750366     
  0.12089999999999999         -2.2413768769352238     
  0.12119999999999999         -1.9698671114120732     
  0.12150000000000001         -1.6842519854201612     
  0.12180000000000001         -1.3720643794373153     
  0.12210000000000000         -1.0226187779175078     
  0.12239999999999999        -0.62980168252738622     
  0.12270000000000002        -0.19287552031968502     
  0.12300000000000001         0.28294069250644771     
  0.12330000000000001         0.78618305628952001     
  0.12360000000000000          1.3003312015647879     
  0.12390000000000000          1.8048591078862941     
  0.12419999999999999          2.2773151040441206     
  0.12450000000000001          2.6953876498292004     
  0.12480000000000001          3.0388448112041146     
  0.12509999999999999          3.2917144781908831     
  0.12540000000000001          3.4439775109646007     
  0.12570000000000003          3.4919370750769190     
  0.12600000000000000          3.4392190729750922     
  0.12630000000000002          3.2967756261464345     
  0.12659999999999999          3.0808216543197631     
  0.12690000000000001          2.8127540869559482     
  0.12719999999999998          2.5169220822989473     
  0.12750000000000000          2.2181379658349059     
  0.12780000000000002          1.9401960442153765     
  0.12809999999999999          1.7038050309037089     
  0.12840000000000001          1.5245334581609029     
  0.12869999999999998          1.4114840534526181     
  0.12900000000000000          1.3670965235031574     
  0.12930000000000003          1.3860535832714902     
  0.12959999999999999          1.4553984109850546     
  0.12990000000000002          1.5568639843809535     
  0.13019999999999998          1.6668099277668702     
  0.13050000000000000          1.7583824062879074     
  0.13080000000000003          1.8052860909470496     
  0.13109999999999999          1.7827700947197087     
  0.13140000000000002          1.6704298871598304     
  0.13169999999999998          1.4559957423270351     
  0.13200000000000001          1.1346035495118763     
  0.13229999999999997         0.71142658518336077     
  0.13260000000000000         0.20253917226093954     
  0.13290000000000002        -0.36749896237918911     
  0.13319999999999999        -0.96581035604947729     
  0.13350000000000001         -1.5531664011989150     
  0.13380000000000003         -2.0883488799084020     
  0.13410000000000000         -2.5298145767454656     
  0.13440000000000002         -2.8393698711391337     
  0.13469999999999999         -2.9859874686903538     
  0.13500000000000001         -2.9476220243588300     
  0.13529999999999998         -2.7139629915330516     
  0.13560000000000000         -2.2882759283577272     
  0.13590000000000002         -1.6880645435702917     
  0.13619999999999999        -0.94485035825070440     
  0.13650000000000001        -0.10459537313420242     
  0.13680000000000003         0.77438604219082485     
  0.13710000000000000          1.6247263532306917     
  0.13740000000000002          2.3721270904972505     
  0.13769999999999999          2.9405160618717687     
  0.13800000000000001          3.2592510107688639     
  0.13829999999999998          3.2679378391470522     
  0.13860000000000000          2.9243599651111793     
  0.13890000000000002          2.2128887361710667     
  0.13919999999999999          1.1483782476511664     
  0.13950000000000001        -0.21730797016405745     
  0.13979999999999998         -1.7938736978503336     
  0.14010000000000000         -3.4568246789961208     
  0.14040000000000002         -5.0507028321074330     
  0.14069999999999999         -6.4010578261409634     
  0.14100000000000001         -7.3306829939374722     
  0.14130000000000004         -7.6736581119262439     
  0.14160000000000000         -7.2967870583939032     
  0.14189999999999997         -6.1182516262506397     
  0.14219999999999999         -4.1205475040505917     
  0.14250000000000002         -1.3637697248965566     
  0.14279999999999998          2.0112852562226564     
  0.14310000000000000          5.7883049133311175     
  0.14339999999999997          9.6864960499593735     
  0.14369999999999999          13.382110024639076     
  0.14400000000000002          16.534653701725716     
  0.14429999999999998          18.816679694811747     
  0.14460000000000001          19.947975665235077     
  0.14490000000000003          19.722737961142286     
  0.14520000000000000          18.034140523849828     
  0.14550000000000002          14.891215619161812     
  0.14579999999999999          10.423890777282679     
  0.14610000000000001          4.8759112405310248     
  0.14640000000000003         -1.4092444065231291     
  0.14670000000000000         -8.0141938400395745     
  0.14699999999999996         -14.485343737678875     
  0.14729999999999999         -20.362555777115176     
  0.14760000000000001         -25.222453212657456     
  0.14789999999999998         -28.711346118108565     
  0.14820000000000000         -30.570169853017589     