  -1.4999999999999999E-002     0.0000000000000000     
  -1.4700000000000000E-002     0.0000000000000000     
  -1.4400000000000000E-002     0.0000000000000000     
  -1.4100000000000000E-002     0.0000000000000000     
  -1.3800000000000000E-002     0.0000000000000000     
  -1.3500000000000000E-002     0.0000000000000000     
  -1.3200000000000000E-002     0.0000000000000000     
  -1.2899999999999998E-002     0.0000000000000000     
  -1.2600000000000000E-002    -6.8976190540096930E-036
  -1.2299999999999998E-002     1.5728361108450591E-034
  -1.2000000000000000E-002    -3.8714234652698748E-035
  -1.1699999999999999E-002    -4.2029347228892382E-032
  -1.1399999999999999E-002     2.2205635530875507E-031
  -1.1099999999999999E-002     1.8427066187733783E-030
  -1.0799999999999999E-002    -1.6016125346501536E-029
  -1.0499999999999999E-002    -6.1716180852321667E-030
  -1.0199999999999999E-002     3.1680915159837475E-028
  -9.8999999999999991E-003    -3.2701485122772794E-028
  -9.5999999999999992E-003    -3.2337767613101684E-027
  -9.2999999999999992E-003     3.5423157685164094E-027
  -8.9999999999999993E-003     2.9878025754570866E-026
  -8.6999999999999994E-003    -3.2128405036363739E-026
  -8.3999999999999995E-003    -1.9278853582483539E-025
  -8.0999999999999996E-003     1.4070462112912561E-025
  -7.7999999999999988E-003     9.2510457501518493E-025
  -7.4999999999999997E-003     2.0207164538974802E-025
  -7.1999999999999998E-003    -3.2910179171940429E-024
  -6.8999999999999981E-003    -7.9777650969596769E-024
  -6.5999999999999982E-003     7.8593695470908895E-024
  -6.3000000000000000E-003     6.9340663720225137E-023
  -6.0000000000000001E-003    -2.9027550750800422E-023
  -5.6999999999999985E-003    -2.9889854716176910E-022
  -5.3999999999999986E-003     7.5994826152322314E-023
  -5.1000000000000004E-003     6.6520009029639034E-022
  -4.7999999999999987E-003     2.4270429296418223E-024
  -4.5000000000000005E-003     1.4043600454523227E-021
  -4.1999999999999989E-003    -3.8140400351399366E-021
  -3.8999999999999990E-003    -1.6929848791525969E-020
  -3.5999999999999990E-003     3.7668242983314367E-020
  -3.2999999999999991E-003     3.8798696280212015E-020
  -2.9999999999999992E-003    -1.7025807625812605E-019
  -2.6999999999999993E-003     2.3419263985356966E-019
  -2.3999999999999994E-003    -1.7514403523585402E-019
  -2.0999999999999977E-003    -7.8021578530948606E-019
  -1.7999999999999995E-003     2.9390113410262260E-018
  -1.4999999999999979E-003    -2.8336776041370335E-018
  -1.1999999999999997E-003    -2.3496533600336848E-018
  -8.9999999999999976E-004     1.0135193073333253E-017
  -5.9999999999999810E-004    -2.0500286761372855E-017
  -2.9999999999999992E-004     2.1206109312362141E-017
   0.0000000000000000          2.7342261766807459E-017
   3.0000000000000165E-004    -1.2460011460940131E-016
   5.9999999999999984E-004     1.9151825850907470E-016
   9.0000000000000149E-004    -7.0841639690873844E-017
   1.2000000000000031E-003    -5.5003942318560716E-016
   1.5000000000000013E-003     1.5056234975658549E-015
   1.8000000000000030E-003    -9.9345261391833278E-016
   2.1000000000000012E-003    -2.8762323607390611E-015
   2.3999999999999994E-003     7.6155512913489090E-015
   2.7000000000000010E-003    -4.7082196961905101E-015
   2.9999999999999992E-003    -1.3121290964008000E-014
   3.3000000000000008E-003     3.2465023125354295E-014
   3.6000000000000025E-003    -1.2219730076984300E-014
   3.9000000000000007E-003    -6.1167746408856707E-014
   4.2000000000000023E-003     1.0266785690499798E-013
   4.5000000000000005E-003     5.4627984772962871E-015
   4.7999999999999987E-003    -2.1487476575259675E-013
   5.1000000000000004E-003     2.3460286379816977E-013
   5.4000000000000020E-003     1.6294763076210306E-013
   5.7000000000000037E-003    -6.0814938555372968E-013
   5.9999999999999984E-003     2.8204457666809583E-013
   6.3000000000000000E-003     8.0248248005646526E-013
   6.6000000000000017E-003    -1.1728550327179040E-012
   6.9000000000000034E-003    -3.3601372563172449E-013
   7.2000000000000015E-003     2.2854651039538187E-012
   7.5000000000000032E-003    -1.3357700720218644E-012
   7.8000000000000014E-003    -3.0306958058248984E-012
   8.0999999999999996E-003     4.8724937297293624E-012
   8.4000000000000012E-003     1.6691855775778453E-012
   8.7000000000000029E-003    -1.0243844591800557E-011
   9.0000000000000011E-003     5.7520995014482315E-012
   9.2999999999999992E-003     1.3495539513735895E-011
   9.6000000000000009E-003    -2.3057305532189819E-011
   9.8999999999999991E-003    -3.3702718836738092E-012
   1.0200000000000001E-002     4.4840337209565230E-011
   1.0500000000000002E-002    -3.4185751445164614E-011
   1.0800000000000004E-002    -4.6065929074124325E-011
   1.1099999999999999E-002     9.7418797482356372E-011
   1.1400000000000000E-002    -1.2747603106550195E-011
   1.1700000000000002E-002    -1.4530201246844919E-010
   1.2000000000000004E-002     1.5054463747769157E-010
   1.2300000000000002E-002     9.7629449890329741E-011
   1.2600000000000000E-002    -3.1460711063289012E-010
   1.2900000000000002E-002     1.1610268585302164E-010
   1.3200000000000000E-002     3.5832560817927707E-010
   1.3500000000000002E-002    -4.6513258087251915E-010
   1.3800000000000003E-002    -9.7405778972944010E-011
   1.4100000000000001E-002     7.3361581562102142E-010
   1.4400000000000000E-002    -5.4672789871430902E-010
   1.4700000000000001E-002    -5.2592737841455075E-010
   1.4999999999999999E-002     1.3939668345574240E-009
   1.5300000000000001E-002    -5.8952981622825261E-010
   1.5600000000000003E-002    -1.9189998568826204E-009
   1.5899999999999997E-002     2.5951942986983934E-009
   1.6199999999999999E-002     1.1888519577520127E-009
   1.6500000000000001E-002    -2.7048463714389365E-009
   1.6800000000000002E-002     1.9183752343441782E-009
   1.7100000000000004E-002    -1.4989623522789595E-008
   1.7400000000000006E-002    -1.1495103013736831E-008
   1.7700000000000000E-002     1.0863212289516724E-007
   1.8000000000000002E-002     5.1923623592377274E-008
   1.8300000000000004E-002    -4.8678332959103601E-007
   1.8600000000000005E-002    -2.6956546960650622E-007
   1.8900000000000000E-002     3.0563902300196330E-006
   1.9200000000000002E-002     9.9523013131480135E-006
   1.9500000000000003E-002     1.8521503785663571E-005
   1.9799999999999998E-002     2.7495303658714974E-005
   2.0100000000000000E-002     3.7086978712172155E-005
   2.0400000000000001E-002     4.7099174038241708E-005
   2.0700000000000003E-002     5.8047739201508904E-005
   2.0999999999999998E-002     7.6533596477306939E-005
   2.1299999999999999E-002     1.1574478408197478E-004
   2.1600000000000001E-002     1.8318944621002232E-004
   2.1900000000000003E-002     2.6924814783702618E-004
   2.2200000000000004E-002     3.5825016089869027E-004
   2.2500000000000006E-002     4.5203207072969792E-004
   2.2800000000000001E-002     5.7066673584755916E-004
   2.3100000000000002E-002     7.2083312165044031E-004
   2.3400000000000004E-002     8.6822668869581190E-004
   2.3699999999999999E-002     9.5165990860628449E-004
   2.4000000000000000E-002     9.1090675028256476E-004
   2.4300000000000002E-002     6.6918504236458329E-004
   2.4599999999999997E-002     9.0683381489798341E-005
   2.4900000000000005E-002    -1.0234914377660574E-003
   2.5200000000000000E-002    -2.9225482070658754E-003
   2.5499999999999995E-002    -5.9263362149183131E-003
   2.5800000000000003E-002    -1.0454629269917678E-002
   2.6099999999999998E-002    -1.7032745288868417E-002
   2.6400000000000007E-002    -2.6278728935490991E-002
   2.6700000000000002E-002    -3.8876745494172804E-002
   2.6999999999999996E-002    -5.5554328506912887E-002
   2.7300000000000005E-002    -7.7070471655991568E-002
   2.7600000000000000E-002   -0.10416926974532559     
   2.7900000000000008E-002   -0.13748528483686773     
   2.8200000000000003E-002   -0.17745234272377708     
   2.8499999999999998E-002   -0.22424561152297873     
   2.8800000000000006E-002   -0.27772720529683514     
   2.9100000000000001E-002   -0.33736067675484183     
   2.9400000000000003E-002   -0.40213966285753955     
   2.9700000000000004E-002   -0.47056896683059790     
   3.0000000000000006E-002   -0.54070299970485891     
   3.0300000000000001E-002   -0.61018620581929639     
   3.0600000000000002E-002   -0.67632453351043864     
   3.0900000000000004E-002   -0.73624178524016770     
   3.1199999999999999E-002   -0.78705560282730502     
   3.1500000000000007E-002   -0.82595568956174503     
   3.1800000000000002E-002   -0.85041217491798449     
   3.2099999999999997E-002   -0.85821394511649274     
   3.2400000000000005E-002   -0.84761402484581794     
   3.2700000000000000E-002   -0.81734057210169553     
   3.3000000000000002E-002   -0.76641147091115158     
   3.3300000000000003E-002   -0.69435894653973662     
   3.3599999999999998E-002   -0.60075259375811996     
   3.3900000000000000E-002   -0.48562648919289408     
   3.4200000000000001E-002   -0.34897863906797255     
   3.4500000000000003E-002   -0.19115738525631176     
   3.4799999999999998E-002    -1.2908890287186336E-002
   3.5099999999999999E-002    0.18456342643246870     
   3.5400000000000001E-002    0.39900841439743640     
   3.5699999999999996E-002    0.62720234783275508     
   3.6000000000000004E-002    0.86447641182035895     
   3.6299999999999999E-002     1.1047458057002331     
   3.6600000000000008E-002     1.3406399806980680     
   3.6900000000000002E-002     1.5633828616603083     
   3.7199999999999997E-002     1.7640596490826113     
   3.7500000000000006E-002     1.9333330903931127     
   3.7800000000000000E-002     2.0633717532487665     
   3.8100000000000009E-002     2.1475462089274089     
   3.8400000000000004E-002     2.1823973292429741     
   3.8699999999999998E-002     2.1671189484626296     
   3.9000000000000007E-002     2.1045242729753966     
   3.9300000000000002E-002     2.0005351961214473     
   3.9600000000000003E-002     1.8633916172890181     
   3.9900000000000005E-002     1.7033065145178270     
   4.0200000000000000E-002     1.5303801801005790     
   4.0500000000000001E-002     1.3543450374106101     
   4.0800000000000003E-002     1.1822186690633458     
   4.1100000000000005E-002     1.0181452417124888     
   4.1399999999999999E-002    0.86276575565161551     
   4.1700000000000008E-002    0.71296683740051847     
   4.2000000000000003E-002    0.56327588654107075     
   4.2299999999999997E-002    0.40617341325014422     
   4.2600000000000006E-002    0.23463370790605165     
   4.2900000000000001E-002     4.2933767501472264E-002
   4.3200000000000002E-002   -0.17087440058593018     
   4.3500000000000004E-002   -0.40434341103802485     
   4.3799999999999999E-002   -0.64981106528251420     
   4.4100000000000000E-002   -0.89433359655971501     
   4.4400000000000002E-002    -1.1211647014921180     
   4.4700000000000004E-002    -1.3106369688267847     
   4.4999999999999998E-002    -1.4435323954180959     
   4.5300000000000000E-002    -1.5025862830744998     
   4.5600000000000002E-002    -1.4759432603567646     
   4.5899999999999996E-002    -1.3590345884363657     
   4.6200000000000005E-002    -1.1562324351857889     
   4.6500000000000000E-002   -0.88160740580374508     
   4.6799999999999994E-002   -0.55828648304202844     
   4.7100000000000003E-002   -0.21748407278547188     
   4.7399999999999998E-002    0.10455581002351444     
   4.7700000000000006E-002    0.36908993250878375     
   4.8000000000000001E-002    0.53890711519947132     
   4.8300000000000010E-002    0.58216355251027530     
   4.8600000000000004E-002    0.47546998278410924     
   4.8899999999999999E-002    0.20720107211058281     
   4.9200000000000008E-002   -0.22110029131756193     
   4.9500000000000002E-002   -0.79323358043429693     
   4.9800000000000011E-002    -1.4799280262253198     
   5.0100000000000006E-002    -2.2389519889092995     
   5.0400000000000000E-002    -3.0193591722353719     
   5.0700000000000009E-002    -3.7635331747846266     
   5.1000000000000004E-002    -4.4128922996982922     
   5.1299999999999998E-002    -4.9109941881790959     
   5.1600000000000007E-002    -5.2091960620837767     
   5.1900000000000002E-002    -5.2695853901203122     
   5.2200000000000010E-002    -5.0691173874188138     
   5.2500000000000005E-002    -4.6012585443356500     
   5.2800000000000000E-002    -3.8774591330913211     
   5.3099999999999994E-002    -2.9264653967443479     
   5.3400000000000003E-002    -1.7932770756831147     
   5.3699999999999998E-002   -0.53570775052243480     
   5.4000000000000006E-002    0.77920174633111827     
   5.4300000000000001E-002     2.0798072642576528     
   5.4599999999999996E-002     3.2956863918812758     
   5.4900000000000004E-002     4.3621095898549722     
   5.5199999999999999E-002     5.2250530782405136     
   5.5499999999999994E-002     5.8449759130776187     
   5.5800000000000002E-002     6.2002702525462183     
   5.6099999999999997E-002     6.2869020810538530     
   5.6400000000000006E-002     6.1206001045390508     
   5.6700000000000000E-002     5.7325437706390119     
   5.6999999999999995E-002     5.1689621726831945     
   5.7300000000000004E-002     4.4843332886785561     
   5.7599999999999998E-002     3.7386863365400274     
   5.7900000000000007E-002     2.9913239308076101     
   5.8200000000000002E-002     2.2962134707926865     
   5.8499999999999996E-002     1.6976429727071150     
   5.8800000000000005E-002     1.2270432509931339     
   5.9100000000000000E-002    0.90095122351391765     
   5.9400000000000008E-002    0.71973595853393135     
   5.9700000000000003E-002    0.66963013243849190     
   6.0000000000000012E-002    0.72261947309220886     
   6.0300000000000006E-002    0.84135136801675969     
   6.0600000000000001E-002    0.98203581024791475     
   6.0900000000000010E-002     1.0983625425417642     
   6.1200000000000004E-002     1.1470842433862387     
   6.1500000000000013E-002     1.0895582385985989     
   6.1800000000000008E-002    0.89823504483709371     
   6.2100000000000002E-002    0.55427688199837810     
   6.2399999999999997E-002     5.4144768895866946E-002
   6.2700000000000006E-002   -0.59628097980477790     
   6.3000000000000000E-002    -1.3772975813595778     
   6.3300000000000009E-002    -2.2619770422244443     
   6.3600000000000004E-002    -3.2156555509226337     
   6.3899999999999998E-002    -4.1990550753353304     
   6.4199999999999993E-002    -5.1722392317342454     
   6.4500000000000002E-002    -6.0935513033668371     
   6.4800000000000010E-002    -6.9245147078584068     
   6.5100000000000005E-002    -7.6256345655617963     
   6.5400000000000000E-002    -8.1620341915455015     
   6.5700000000000008E-002    -8.4965090774400949     
   6.5999999999999989E-002    -8.5957295430009424     
   6.6299999999999998E-002    -8.4250905997479322     
   6.6600000000000006E-002    -7.9542731391921393     
   6.6900000000000001E-002    -7.1582298389773769     
   6.7199999999999996E-002    -6.0205439309498558     
   6.7500000000000004E-002    -4.5411749186922918     
   6.7800000000000013E-002    -2.7386505643689532     
   6.8099999999999994E-002   -0.65937678867877736     
   6.8400000000000002E-002     1.6233413553783720     
   6.8700000000000011E-002     4.0025447307221498     
   6.8999999999999992E-002     6.3451075032139670     
   6.9300000000000000E-002     8.4925982121191907     
   6.9600000000000009E-002     10.275219266764907     
   6.9900000000000004E-002     11.522915791309551     
   7.0199999999999999E-002     12.081437853639869     
   7.0500000000000007E-002     11.831192053064960     
   7.0800000000000016E-002     10.699376431585378     
   7.1099999999999997E-002     8.6778144477594594     
   7.1400000000000005E-002     5.8255251592701853     
   7.1700000000000000E-002     2.2764105754084767     
   7.1999999999999995E-002    -1.7714922249172957     
   7.2300000000000003E-002    -6.0620136868463987     
   7.2600000000000012E-002    -10.304088441497697     
   7.2900000000000006E-002    -14.190522301258000     
   7.3200000000000001E-002    -17.424953820567339     
   7.3499999999999996E-002    -19.745228731332077     
   7.3800000000000004E-002    -20.946439771377953     
   7.4099999999999999E-002    -20.897151512558160     
   7.4400000000000008E-002    -19.551023980222936     
   7.4700000000000003E-002    -16.948937082988948     
   7.5000000000000011E-002    -13.215926498213207     
   7.5299999999999992E-002    -8.5496115379194890     
   7.5600000000000001E-002    -3.2023635562333084     
   7.5900000000000009E-002     2.5350759297026002     
   7.6200000000000004E-002     8.3612236019310444     
   7.6499999999999999E-002     13.977081833849979     
   7.6800000000000007E-002     19.112751720916890     
   7.7099999999999988E-002     23.534818551317187     
   7.7399999999999997E-002     27.062386455130024     
   7.7700000000000005E-002     29.569009477295538     
   7.8000000000000014E-002     30.984877157042277     
   7.8299999999999995E-002     31.294854085258976     
   7.8600000000000003E-002     30.531266766327576     
   7.8900000000000012E-002     28.768601403706498     
   7.9199999999999993E-002     26.114396230642228     
   7.9500000000000001E-002     22.701381761027619     
   7.9800000000000010E-002     18.679693229007967     
   8.0100000000000018E-002     14.210687125695586     
   8.0399999999999999E-002     9.4602339776964470     
   8.0700000000000008E-002     4.5939894595757664     
   8.1000000000000003E-002   -0.22965674331936725     
   8.1299999999999997E-002    -4.8591807960643223     
   8.1600000000000006E-002    -9.1628894755956480     
   8.1900000000000014E-002    -13.020357073904449     
   8.2199999999999995E-002    -16.340480567312113     
   8.2500000000000004E-002    -19.050524721062203     
   8.2799999999999999E-002    -21.107717750044699     
   8.3100000000000007E-002    -22.494320080992964     
   8.3400000000000002E-002    -23.219465480155549     
   8.3700000000000011E-002    -23.317028101097378     
   8.4000000000000005E-002    -22.839538537418946     
   8.4300000000000000E-002    -21.860911239104212     
   8.4599999999999995E-002    -20.461015786971643     
   8.4900000000000003E-002    -18.733724182207993     
   8.5199999999999998E-002    -16.767636504394659     
   8.5500000000000007E-002    -14.655294133356449     
   8.5800000000000001E-002    -12.476457414090532     
   8.6100000000000010E-002    -10.304901671588198     
   8.6399999999999991E-002    -8.1984559450278027     
   8.6699999999999999E-002    -6.2015343169547066     
   8.7000000000000008E-002    -4.3444571568858237     
   8.7300000000000003E-002    -2.6391932105820075     
   8.7599999999999997E-002    -1.0900325731618175     
   8.7900000000000006E-002    0.31687080927937217     
   8.8200000000000014E-002     1.5969075387342428     
   8.8499999999999995E-002     2.7763968330164630     
   8.8800000000000004E-002     3.8785797332120069     
   8.9100000000000013E-002     4.9266817821859945     
   8.9399999999999993E-002     5.9380578022802410     
   8.9700000000000002E-002     6.9194342082665017     
   9.0000000000000011E-002     7.8717400021797665     
   9.0299999999999991E-002     8.7796763332518992     
   9.0600000000000000E-002     9.6239029877220474     
   9.0900000000000009E-002     10.371184692150990     
   9.1200000000000017E-002     10.988101020929776     
   9.1499999999999998E-002     11.435366770908416     
   9.1800000000000007E-002     11.678969647749057     
   9.2100000000000001E-002     11.688813637792407     
   9.2399999999999996E-002     11.446048832549877     
   9.2700000000000005E-002     10.942674176031005     
   9.3000000000000013E-002     10.184465633302977     
   9.3300000000000008E-002     9.1919556096448787     
   9.3600000000000003E-002     7.9966474533050871     
   9.3899999999999997E-002     6.6444826276711240     
   9.4200000000000006E-002     5.1860958707363807     
   9.4500000000000001E-002     3.6815205403227367     
   9.4800000000000009E-002     2.1878474395094045     
   9.5100000000000004E-002    0.76439779151537035     
   9.5399999999999999E-002   -0.53866671390081677     
   9.5699999999999993E-002    -1.6761595573128005     
   9.6000000000000002E-002    -2.6164224509054179     
   9.6300000000000011E-002    -3.3386365329735099     
   9.6600000000000005E-002    -3.8359698832086977     
   9.6900000000000000E-002    -4.1150385638465821     
   9.7200000000000009E-002    -4.1945606047874975     
   9.7499999999999989E-002    -4.1053800028010983     
   9.7799999999999998E-002    -3.8853449807358729     
   9.8100000000000007E-002    -3.5808855260828807     
   9.8400000000000015E-002    -3.2376563237197615     
   9.8699999999999996E-002    -2.9027944328066155     
   9.9000000000000005E-002    -2.6174904143162223     
   9.9300000000000013E-002    -2.4157600019825196     
   9.9599999999999994E-002    -2.3205208582429151     
   9.9900000000000003E-002    -2.3433986492791803     
  0.10020000000000001         -2.4828532164347052     
  0.10049999999999999         -2.7235780959109377     
  0.10080000000000000         -3.0409879618146789     
  0.10110000000000001         -3.3992503561932637     
  0.10140000000000000         -3.7591042849487337     
  0.10170000000000000         -4.0760411451014420     
  0.10200000000000001         -4.3092903569754810     
  0.10230000000000002         -4.4208947888476757     
  0.10260000000000000         -4.3819439820702257     
  0.10290000000000001         -4.1742725129848566     
  0.10320000000000000         -3.7898264756117896     
  0.10350000000000001         -3.2361908719019965     
  0.10380000000000000         -2.5299539905129222     
  0.10410000000000001         -1.7027259618541137     
  0.10440000000000001        -0.79213842277880886     
  0.10470000000000000         0.15419533115003148     
  0.10500000000000000          1.0875054901408916     
  0.10530000000000000          1.9565469862105687     
  0.10560000000000000          2.7143140329826068     
  0.10590000000000001          3.3193474541134966     
  0.10620000000000000          3.7386992011181626     
  0.10650000000000001          3.9527737184692739     
  0.10679999999999999          3.9529109390632868     
  0.10710000000000000          3.7471501469800188     
  0.10740000000000001          3.3552182997179756     
  0.10770000000000000          2.8115006214922715     
  0.10800000000000000          2.1610807243777828     
  0.10830000000000001          1.4559463190819528     
  0.10859999999999999         0.75337053345871929     
  0.10890000000000000         0.10966431393071119     
  0.10920000000000001        -0.42346912302351214     
  0.10950000000000001        -0.80377930157500899     
  0.10979999999999999         -1.0009814129869881     
  0.11009999999999999         -1.0016981501438771     
  0.11040000000000001        -0.80899023843159679     
  0.11070000000000001        -0.44303282030235636     
  0.11100000000000000          5.9544013203147728E-002
  0.11130000000000000         0.65022986992850562     
  0.11160000000000002          1.2709794268865480     
  0.11190000000000001          1.8616356098933302     
  0.11220000000000001          2.3621767396955686     
  0.11250000000000000          2.7215346706257364     
  0.11280000000000000          2.8998320406370723     
  0.11309999999999999          2.8724884710890137     
  0.11340000000000001          2.6339741954436136     
  0.11369999999999998          2.1943673924258960     
  0.11400000000000000          1.5839931098716562     
  0.11430000000000000         0.84361128876508928     
  0.11460000000000002          2.8331751709160358E-002
  0.11489999999999999        -0.80530959902853283     
  0.11520000000000001         -1.5963754396960042     
  0.11550000000000001         -2.2915066566103803     
  0.11580000000000000         -2.8441549889211508     
  0.11609999999999999         -3.2193281970513681     
  0.11640000000000002         -3.3986120733954763     
  0.11670000000000001         -3.3742413274501288     
  0.11700000000000001         -3.1580759817485387     
  0.11730000000000000         -2.7693177961456144     
  0.11760000000000000         -2.2429352936911187     
  0.11789999999999999         -1.6177974110318161     
  0.11820000000000001        -0.93945414094220681     
  0.11850000000000001        -0.25351142229181800     
  0.11880000000000000         0.39645255070379903     
  0.11910000000000000         0.96995377650169701     
  0.11940000000000002          1.4355539052131192     
  0.11970000000000001          1.7680786816652940     
  0.12000000000000001          1.9536677318300286     
  0.12030000000000000          1.9872291972533738     
  0.12060000000000000          1.8744697695296892     
  0.12089999999999999          1.6299694151086044     
  0.12119999999999999          1.2756763582854731     
  0.12150000000000001         0.84127900741578188     
  0.12180000000000001         0.35940728042588344     
  0.12210000000000000        -0.13457404893024538     
  0.12239999999999999        -0.60530424125394688     
  0.12270000000000002         -1.0210044696806051     
  0.12300000000000001         -1.3539669531575047     
  0.12330000000000001         -1.5836200523400166     
  0.12360000000000000         -1.6971922013746585     
  0.12390000000000000         -1.6899543093062519     
  0.12419999999999999         -1.5670615557594374     
  0.12450000000000001         -1.3408101378645156     
  0.12480000000000001         -1.0307170674535975     
  0.12509999999999999        -0.66209297717553994     
  0.12540000000000001        -0.26283359931811390     
  0.12570000000000003         0.13790103437542811     
  0.12600000000000000         0.51222034767927838     
  0.12630000000000002         0.83449819144325943     
  0.12659999999999999          1.0858798911647556     
  0.12690000000000001          1.2513484819055680     
  0.12719999999999998          1.3243653766486112     
  0.12750000000000000          1.3056670334423970     
  0.12780000000000002          1.2009286392491916     
  0.12809999999999999          1.0242902351029848     
  0.12840000000000001         0.79191255595062060     
  0.12869999999999998         0.52608125680716533     
  0.12900000000000000         0.24792636281125713     
  0.12930000000000003         -1.9041327328171764E-002
  0.12959999999999999        -0.25498477454246959     
  0.12990000000000002        -0.44221801615221135     
  0.13019999999999998        -0.56806439116917495     
  0.13050000000000000        -0.62473259694331418     
  0.13080000000000003        -0.60954794261897405     
  0.13109999999999999        -0.52709323818134379     
  0.13140000000000002        -0.38528656245228632     
  0.13169999999999998        -0.19769650791904958     
  0.13200000000000001          1.8342545124434118E-002
  0.13229999999999997         0.24537417769983350     
  0.13260000000000000         0.46264477338796617     
  0.13290000000000002         0.65280756186749445     
  0.13319999999999999         0.79915226919800908     
  0.13350000000000001         0.88901536955338401     
  0.13380000000000003         0.91504994396349204     
  0.13410000000000000         0.87322699513061153     
  0.13440000000000002         0.76675919109110069     
  0.13469999999999999         0.60124311836083599     
  0.13500000000000001         0.39005741253021320     
  0.13529999999999998         0.14562700233241488     
  0.13560000000000000        -0.11322534113063654     
  0.13590000000000002        -0.37033266775158147     
  0.13619999999999999        -0.60747360083707669     
  0.13650000000000001        -0.81007635104305109     
  0.13680000000000003        -0.96455589603521830     
  0.13710000000000000         -1.0623352087382472     
  0.13740000000000002         -1.0983156422348586     
  0.13769999999999999         -1.0719402811340331     
  0.13800000000000001        -0.98646735275309538     
  0.13829999999999998        -0.84961589836191109     
  0.13860000000000000        -0.67211473249242815     
  0.13890000000000002        -0.46684595411614538     
  0.13919999999999999        -0.24862292285622623     
  0.13950000000000001         -3.2382713563124277E-002
  0.13979999999999998         0.16725205081731254     
  0.14010000000000000         0.33827385212177852     
  0.14040000000000002         0.46976797054829911     
  0.14069999999999999         0.55494170693335221     
  0.14100000000000001         0.59116363376089609     
  0.14130000000000004         0.57812439762690460     
  0.14160000000000000         0.52048948397207440     
  0.14189999999999997         0.42553650681300503     
  0.14219999999999999         0.30337414722525757     
  0.14250000000000002         0.16543538104058264     
  0.14279999999999998          2.4084183309109553E-002
  0.14310000000000000        -0.10843505002893039     
  0.14339999999999997        -0.22220808015002014     
  0.14369999999999999        -0.30774404370039643     
  0.14400000000000002        -0.35985414292664775     
  0.14429999999999998        -0.37378964538108939     
  0.14460000000000001        -0.35132259885165773     
  0.14490000000000003        -0.29347276851934545     
  0.14520000000000000        -0.20599194774096485     
  0.14550000000000002         -9.5738136785634698E-002
  0.14579999999999999          2.8810582601795698E-002
  0.14610000000000001         0.15857445852104313     
  0.14640000000000003         0.28347014300106110     
  0.14670000000000000         0.39512004735649375     
  0.14699999999999996         0.48491287924061499     
  0.14729999999999999         0.54703490207521277     
  0.14760000000000001         0.57592810087643187     
  0.14789999999999998         0.57061782907319980     
  0.14820000000000000         0.53003763730380982     