  -1.4999999999999999E-002     0.0000000000000000     
  -1.4700000000000000E-002     0.0000000000000000     
  -1.4400000000000000E-002     0.0000000000000000     
  -1.4100000000000000E-002     0.0000000000000000     
  -1.3800000000000000E-002     0.0000000000000000     
  -1.3500000000000000E-002     0.0000000000000000     
  -1.3200000000000000E-002     0.0000000000000000     
  -1.2899999999999998E-002     0.0000000000000000     
  -1.2600000000000000E-002     0.0000000000000000     
  -1.2299999999999998E-002     0.0000000000000000     
  -1.2000000000000000E-002     0.0000000000000000     
  -1.1699999999999999E-002     0.0000000000000000     
  -1.1399999999999999E-002     0.0000000000000000     
  -1.1099999999999999E-002     0.0000000000000000     
  -1.0799999999999999E-002     0.0000000000000000     
  -1.0499999999999999E-002     0.0000000000000000     
  -1.0199999999999999E-002     0.0000000000000000     
  -9.8999999999999991E-003     0.0000000000000000     
  -9.5999999999999992E-003     0.0000000000000000     
  -9.2999999999999992E-003    -2.3398046233086442E-038
  -8.9999999999999993E-003     8.0792437493017701E-038
  -8.6999999999999994E-003     1.0217406323041313E-035
  -8.3999999999999995E-003    -4.5857490754500732E-035
  -8.0999999999999996E-003     3.8550699266674401E-035
  -7.7999999999999988E-003     6.9220694073419721E-034
  -7.4999999999999997E-003    -1.2599845522662014E-033
  -7.1999999999999998E-003    -3.8925298391802462E-033
  -6.8999999999999981E-003     1.1286127093978586E-032
  -6.5999999999999982E-003     2.3098788276616478E-032
  -6.3000000000000000E-003    -5.7469665581520894E-032
  -6.0000000000000001E-003    -1.3622620263902173E-031
  -5.6999999999999985E-003     1.5097152563514614E-031
  -5.3999999999999986E-003     6.7622160237442807E-031
  -5.1000000000000004E-003     1.0849452766730862E-030
  -4.7999999999999987E-003    -4.9270222963620669E-030
  -4.5000000000000005E-003    -1.0088567122805368E-029
  -4.1999999999999989E-003     1.9897443288165964E-029
  -3.8999999999999990E-003     7.6531775490625736E-029
  -3.5999999999999990E-003    -1.1210004558046900E-028
  -3.2999999999999991E-003    -2.5745194236650670E-028
  -2.9999999999999992E-003     5.2075776712731256E-028
  -2.6999999999999993E-003    -9.2955381897006495E-028
  -2.3999999999999994E-003     2.7314415889887553E-027
  -2.0999999999999977E-003     3.9789942193866556E-027
  -1.7999999999999995E-003    -2.8422732517341541E-026
  -1.4999999999999979E-003     2.5896941168908423E-026
  -1.1999999999999997E-003     4.8133895531078196E-026
  -8.9999999999999976E-004    -1.3980836342227098E-025
  -5.9999999999999810E-004     2.6283357397965015E-025
  -2.9999999999999992E-004    -2.4699319988426858E-025
   0.0000000000000000         -8.1248906917806434E-025
   3.0000000000000165E-004     2.5553016800925541E-024
   5.9999999999999984E-004    -2.3348456514355488E-024
   9.0000000000000149E-004    -3.9123005753198857E-027
   1.2000000000000031E-003     8.4169592360363452E-024
   1.5000000000000013E-003    -3.6442768929550785E-023
   1.8000000000000030E-003     5.3074895359744829E-023
   2.1000000000000012E-003     5.0077172686610336E-023
   2.3999999999999994E-003    -3.1968597798498116E-022
   2.7000000000000010E-003     5.1731795363849294E-022
   2.9999999999999992E-003     1.2541018542555678E-022
   3.3000000000000008E-003    -2.3837224907818590E-021
   3.6000000000000025E-003     3.9767019060770049E-021
   3.9000000000000007E-003     1.8823138571973922E-021
   4.2000000000000023E-003    -1.6046037516497966E-020
   4.5000000000000005E-003     1.8290187502571483E-020
   4.7999999999999987E-003     2.0817460713203821E-020
   5.1000000000000004E-003    -8.3786298074960966E-020
   5.4000000000000020E-003     5.6215748549778077E-020
   5.7000000000000037E-003     1.6345844954164077E-019
   5.9999999999999984E-003    -3.5135114793580928E-019
   6.3000000000000000E-003    -3.1612514211234406E-020
   6.6000000000000017E-003     9.3063967574860031E-019
   6.9000000000000034E-003    -9.0731180870983409E-019
   7.2000000000000015E-003    -1.3721242299123680E-018
   7.5000000000000032E-003     3.7293607777268106E-018
   7.8000000000000014E-003    -4.0283841288557521E-019
   8.0999999999999996E-003    -9.1334095661275768E-018
   8.4000000000000012E-003     1.0441891119070495E-017
   8.7000000000000029E-003     1.2316660815285687E-017
   9.0000000000000011E-003    -3.9239487669357803E-017
   9.2999999999999992E-003     1.2124521965521702E-017
   9.6000000000000009E-003     8.4086397113680427E-017
   9.8999999999999991E-003    -1.2853903099686173E-016
   1.0200000000000001E-002    -5.6292345102966903E-017
   1.0500000000000002E-002     3.8766872380517873E-016
   1.0800000000000004E-002    -3.3854346051153404E-016
   1.1099999999999999E-002    -5.1540578874803613E-016
   1.1400000000000000E-002     1.4573760477199285E-015
   1.1700000000000002E-002    -6.5528528163733968E-016
   1.2000000000000004E-002    -2.5398110809424998E-015
   1.2300000000000002E-002     4.7891281996810005E-015
   1.2600000000000000E-002    -4.4064816104133358E-016
   1.2900000000000002E-002    -1.0000871396691009E-014
   1.3200000000000000E-002     1.3612365538530477E-014
   1.3500000000000002E-002     3.9092840294197237E-015
   1.3800000000000003E-002    -3.2858589539682660E-014
   1.4100000000000001E-002     3.2787910260790842E-014
   1.4400000000000000E-002     2.4525988446648160E-014
   1.4700000000000001E-002    -9.2320115575572243E-014
   1.4999999999999999E-002     6.3592880987472525E-014
   1.5300000000000001E-002     9.2754107729602843E-014
   1.5600000000000003E-002    -2.1823226896517830E-013
   1.5899999999999997E-002     8.9680851667600723E-014
   1.6199999999999999E-002     2.6026213301998007E-013
   1.6500000000000001E-002    -4.3039351362023050E-013
   1.6800000000000002E-002     6.8227438960244935E-014
   1.7100000000000004E-002     5.5889319258878653E-013
   1.7400000000000006E-002    -7.0458617087993145E-013
   1.7700000000000000E-002     5.5107421237212628E-014
   1.8000000000000002E-002     8.4411777352505798E-013
   1.8300000000000004E-002    -1.3382541266744089E-012
   1.8600000000000005E-002     9.6770797837860161E-013
   1.8900000000000000E-002     1.6280797234099657E-012
   1.9200000000000002E-002    -6.2353924259419208E-012
   1.9500000000000003E-002     2.7123272865206126E-012
   1.9799999999999998E-002     1.8646428176235535E-011
   2.0100000000000000E-002    -1.7596268658332021E-011
   2.0400000000000001E-002    -7.0928653042998682E-011
   2.0700000000000003E-002     8.4261806155561134E-011
   2.0999999999999998E-002     3.5535697303568486E-010
   2.1299999999999999E-002    -5.8895317381213751E-010
   2.1600000000000001E-002    -1.5691452735505763E-009
   2.1900000000000003E-002     3.8937901357576937E-009
   2.2200000000000004E-002     5.3198331746031634E-009
   2.2500000000000006E-002    -2.0822107535234234E-008
   2.2800000000000001E-002    -1.4992586790558191E-008
   2.3100000000000002E-002     9.1815962468844702E-008
   2.3400000000000004E-002     3.8701133343692952E-008
   2.3699999999999999E-002    -3.9573252143762465E-007
   2.4000000000000000E-002    -1.0247049350383900E-007
   2.4300000000000002E-002     3.1697240132930709E-006
   2.4599999999999997E-002     1.0219806467507639E-005
   2.4900000000000005E-002     1.8882716834159156E-005
   2.5200000000000000E-002     2.6375700501093144E-005
   2.5499999999999995E-002     3.4000094052841429E-005
   2.5800000000000003E-002     4.8879491708694748E-005
   2.6099999999999998E-002     7.7525345061978937E-005
   2.6400000000000007E-002     1.1934325494572778E-004
   2.6700000000000002E-002     1.7400745734801396E-004
   2.6999999999999996E-002     2.5009006163862531E-004
   2.7300000000000005E-002     3.5699309969606813E-004
   2.7600000000000000E-002     5.0139880976312647E-004
   2.7900000000000008E-002     6.9811454796512434E-004
   2.8200000000000003E-002     9.6057111774926901E-004
   2.8499999999999998E-002     1.2836114955984274E-003
   2.8800000000000006E-002     1.6660907286989157E-003
   2.9100000000000001E-002     2.1245443113747792E-003
   2.9400000000000003E-002     2.6444061800079757E-003
   2.9700000000000004E-002     3.1574313121692649E-003
   3.0000000000000006E-002     3.5875537154655829E-003
   3.0300000000000001E-002     3.8456317111959376E-003
   3.0600000000000002E-002     3.7585619878643811E-003
   3.0900000000000004E-002     3.0645698315548836E-003
   3.1199999999999999E-002     1.4503512456911366E-003
   3.1500000000000007E-002    -1.4780252643148417E-003
   3.1800000000000002E-002    -6.2306438463183844E-003
   3.2099999999999997E-002    -1.3401524359176950E-002
   3.2400000000000005E-002    -2.3629862896404868E-002
   3.2700000000000000E-002    -3.7582794273399223E-002
   3.3000000000000002E-002    -5.5910076805168907E-002
   3.3300000000000003E-002    -7.9157792451124420E-002
   3.3599999999999998E-002   -0.10766094670889048     
   3.3900000000000000E-002   -0.14142599581112281     
   3.4200000000000001E-002   -0.18000389803762173     
   3.4500000000000003E-002   -0.22236682027184163     
   3.4799999999999998E-002   -0.26681193763855049     
   3.5099999999999999E-002   -0.31085756972103518     
   3.5400000000000001E-002   -0.35116162219475910     
   3.5699999999999996E-002   -0.38357335771595658     
   3.6000000000000004E-002   -0.40330410674136452     
   3.6299999999999999E-002   -0.40504715934090996     
   3.6600000000000008E-002   -0.38328965887284028     
   3.6900000000000002E-002   -0.33274169573251378     
   3.7199999999999997E-002   -0.24880164798875537     
   3.7500000000000006E-002   -0.12806800352848136     
   3.7800000000000000E-002     3.1056324042880945E-002
   3.8100000000000009E-002    0.22791713040155903     
   3.8400000000000004E-002    0.45916789274629344     
   3.8699999999999998E-002    0.71856125107353996     
   3.9000000000000007E-002    0.99676672372364195     
   3.9300000000000002E-002     1.2815707116311863     
   3.9600000000000003E-002     1.5582351997165063     
   3.9900000000000005E-002     1.8102417985202592     
   4.0200000000000000E-002     2.0201231716685726     
   4.0500000000000001E-002     2.1705186899550810     
   4.0800000000000003E-002     2.2454021451715107     
   4.1100000000000005E-002     2.2312721087940730     
   4.1399999999999999E-002     2.1183206123217815     
   4.1700000000000008E-002     1.9014189458104482     
   4.2000000000000003E-002     1.5809612367508521     
   4.2299999999999997E-002     1.1631567614122034     
   4.2600000000000006E-002    0.66005013628195641     
   4.2900000000000001E-002     8.9521542648317798E-002
   4.3200000000000002E-002   -0.52609223557882245     
   4.3500000000000004E-002    -1.1605971866831879     
   4.3799999999999999E-002    -1.7851818956695240     
   4.4100000000000000E-002    -2.3705680003465019     
   4.4400000000000002E-002    -2.8881053146741777     
   4.4700000000000004E-002    -3.3115068735237827     
   4.4999999999999998E-002    -3.6186210726222754     
   4.5300000000000000E-002    -3.7922432821019640     
   4.5600000000000002E-002    -3.8215095704507007     
   4.5899999999999996E-002    -3.7024272099951645     
   4.6200000000000005E-002    -3.4380826376609122     
   4.6500000000000000E-002    -3.0387121663996481     
   4.6799999999999994E-002    -2.5211320043007959     
   4.7100000000000003E-002    -1.9081407540431599     
   4.7399999999999998E-002    -1.2274436407412992     
   4.7700000000000006E-002   -0.51014062001927307     
   4.8000000000000001E-002    0.21043052235543058     
   4.8300000000000010E-002    0.90071830511249118     
   4.8600000000000004E-002     1.5283469815144688     
   4.8899999999999999E-002     2.0638345021534441     
   4.9200000000000008E-002     2.4826864163695319     
   4.9500000000000002E-002     2.7661383632821455     
   4.9800000000000011E-002     2.9026194099739087     
   5.0100000000000006E-002     2.8887778808445148     
   5.0400000000000000E-002     2.7292552702928674     
   5.0700000000000009E-002     2.4369292111253031     
   5.1000000000000004E-002     2.0321885968717766     
   5.1299999999999998E-002     1.5412715381197089     
   5.1600000000000007E-002    0.99513901655927839     
   5.1900000000000002E-002    0.42717303319810984     
   5.2200000000000010E-002   -0.12902730859811840     
   5.2500000000000005E-002   -0.64144405810082361     
   5.2800000000000000E-002    -1.0823104260341507     
   5.3099999999999994E-002    -1.4294606858729288     
   5.3400000000000003E-002    -1.6674022905153194     
   5.3699999999999998E-002    -1.7887013853623159     
   5.4000000000000006E-002    -1.7934930744073441     
   5.4300000000000001E-002    -1.6890527392706289     
   5.4599999999999996E-002    -1.4895748301491452     
   5.4900000000000004E-002    -1.2137247553959938     
   5.5199999999999999E-002   -0.88353218158080438     
   5.5499999999999994E-002   -0.52325157789102583     
   5.5800000000000002E-002   -0.15659907228690528     
   5.6099999999999997E-002    0.19421850914984873     
   5.6400000000000006E-002    0.50924301467399324     
   5.6700000000000000E-002    0.77254080984731344     
   5.6999999999999995E-002    0.97209038980994045     
   5.7300000000000004E-002     1.0998643185995149     
   5.7599999999999998E-002     1.1523138418823535     
   5.7900000000000007E-002     1.1294525486739460     
   5.8200000000000002E-002     1.0346620827987429     
   5.8499999999999996E-002    0.87422632709157710     
   5.8800000000000005E-002    0.65682567351374743     
   5.9100000000000000E-002    0.39312251532821385     
   5.9400000000000008E-002     9.5062856093366399E-002
   5.9700000000000003E-002   -0.22408840792446050     
   6.0000000000000012E-002   -0.55025906889696508     
   6.0300000000000006E-002   -0.86920551933125845     
   6.0600000000000001E-002    -1.1664253153140667     
   6.0900000000000010E-002    -1.4280250292522592     
   6.1200000000000004E-002    -1.6412775221758196     
   6.1500000000000013E-002    -1.7947453885003135     
   6.1800000000000008E-002    -1.8792425226452565     
   6.2100000000000002E-002    -1.8883127994310485     
   6.2399999999999997E-002    -1.8183078574421359     
   6.2700000000000006E-002    -1.6685692601343547     
   6.3000000000000000E-002    -1.4419601522645706     
   6.3300000000000009E-002    -1.1440896814996151     
   6.3600000000000004E-002   -0.78308685452770632     
   6.3899999999999998E-002   -0.36926350516781259     
   6.4199999999999993E-002     8.5764496894576325E-002
   6.4500000000000002E-002    0.56993701292319443     
   6.4800000000000010E-002     1.0704996217884766     
   6.5100000000000005E-002     1.5757973037807438     
   6.5400000000000000E-002     2.0744613439456723     
   6.5700000000000008E-002     2.5554474163097289     
   6.5999999999999989E-002     3.0092045335416024     
   6.6299999999999998E-002     3.4260360048712073     
   6.6600000000000006E-002     3.7960289462925800     
   6.6900000000000001E-002     4.1097816320619529     
   6.7199999999999996E-002     4.3569843658317780     
   6.7500000000000004E-002     4.5268670389249905     
   6.7800000000000013E-002     4.6092273684203633     
   6.8099999999999994E-002     4.5941906388475644     
   6.8400000000000002E-002     4.4733229738379237     
   6.8700000000000011E-002     4.2412731886772406     
   6.8999999999999992E-002     3.8962880490380769     
   6.9300000000000000E-002     3.4409802809671959     
   6.9600000000000009E-002     2.8844197103511533     
   6.9900000000000004E-002     2.2401004695861673     
   7.0199999999999999E-002     1.5275597528970337     
   7.0500000000000007E-002    0.77098301422885029     
   7.0800000000000016E-002    -3.4091644055109782E-003
   7.1099999999999997E-002   -0.76774357585618702     
   7.1400000000000005E-002    -1.4947552705851948     
   7.1700000000000000E-002    -2.1618368154664402     
   7.1999999999999995E-002    -2.7496524326338303     
   7.2300000000000003E-002    -3.2453077745614571     
   7.2600000000000012E-002    -3.6438292221187680     
   7.2900000000000006E-002    -3.9448085199877738     
   7.3200000000000001E-002    -4.1548772573642196     
   7.3499999999999996E-002    -4.2845143083648622     
   7.3800000000000004E-002    -4.3450355586156348     
   7.4099999999999999E-002    -4.3491993771780102     
   7.4400000000000008E-002    -4.3075023210432732     
   7.4700000000000003E-002    -4.2260730168001999     
   7.5000000000000011E-002    -4.1087643348516849     
   7.5299999999999992E-002    -3.9544409919954120     
   7.5600000000000001E-002    -3.7583933297497509     
   7.5900000000000009E-002    -3.5161198967139740     
   7.6200000000000004E-002    -3.2220452257497527     
   7.6499999999999999E-002    -2.8730774569508526     
   7.6800000000000007E-002    -2.4710573301859569     
   7.7099999999999988E-002    -2.0217262471434054     
   7.7399999999999997E-002    -1.5369126588737316     
   7.7700000000000005E-002    -1.0338604827531874     
   7.8000000000000014E-002   -0.53217200433528866     
   7.8299999999999995E-002    -5.3037426302531721E-002
   7.8600000000000003E-002    0.38331698047681684     
   7.8900000000000012E-002    0.76171716422203062     
   7.9199999999999993E-002     1.0725695109877318     
   7.9500000000000001E-002     1.3140722210114619     
   7.9800000000000010E-002     1.4933618976530987     
   8.0100000000000018E-002     1.6243972095721517     
   8.0399999999999999E-002     1.7270228625278747     
   8.0700000000000008E-002     1.8243221910132945     
   8.1000000000000003E-002     1.9387392657845695     
   8.1299999999999997E-002     2.0888343932333839     
   8.1600000000000006E-002     2.2868362194246430     
   8.1900000000000014E-002     2.5354544525609271     
   8.2199999999999995E-002     2.8271959815874368     
   8.2500000000000004E-002     3.1453010423385166     
   8.2799999999999999E-002     3.4642060702295510     
   8.3100000000000007E-002     3.7533401730555909     
   8.3400000000000002E-002     3.9806053462756523     
   8.3700000000000011E-002     4.1158319576193065     
   8.4000000000000005E-002     4.1351940334633639     
   8.4300000000000000E-002     4.0246121781918163     
   8.4599999999999995E-002     3.7803203676475619     
   8.4900000000000003E-002     3.4107497852957778     
   8.5199999999999998E-002     2.9349027354908657     
   8.5500000000000007E-002     2.3786437903632418     
   8.5800000000000001E-002     1.7724866149959837     
   8.6100000000000010E-002     1.1460026402999972     
   8.6399999999999991E-002    0.52270705155279273     
   8.6699999999999999E-002    -8.2670571787723190E-002
   8.7000000000000008E-002   -0.66803177250827162     
   8.7300000000000003E-002    -1.2444628113045457     
   8.7599999999999997E-002    -1.8337054435906042     
   8.7900000000000006E-002    -2.4662895582942994     
   8.8200000000000014E-002    -3.1744846067215811     
   8.8499999999999995E-002    -3.9841720511111802     
   8.8800000000000004E-002    -4.9094111646963086     
   8.9100000000000013E-002    -5.9426772440342504     
   8.9399999999999993E-002    -7.0495336196602096     
   8.9700000000000002E-002    -8.1669143936575992     
   9.0000000000000011E-002    -9.2022754099231321     
   9.0299999999999991E-002    -10.039570011499293     
   9.0600000000000000E-002    -10.548928136022667     
   9.0900000000000009E-002    -10.598691699099533     
   9.1200000000000017E-002    -10.072137477851328     
   9.1499999999999998E-002    -8.8841126453623929     
   9.1800000000000007E-002    -6.9959598177474334     
   9.2100000000000001E-002    -4.4286787293320131     
   9.2399999999999996E-002    -1.2707606551498714     
   9.2700000000000005E-002     2.3214424814185008     
   9.3000000000000013E-002     6.1300337057904244     
   9.3300000000000008E-002     9.8884162364436179     
   9.3600000000000003E-002     13.302611134199253     
   9.3899999999999997E-002     16.075813756041100     
   9.4200000000000006E-002     17.935257413443480     
   9.4500000000000001E-002     18.660223932297484     
   9.4800000000000009E-002     18.105524446426031     
   9.5100000000000004E-002     16.218079080299958     
   9.5399999999999999E-002     13.048642355250308     
   9.5699999999999993E-002     8.7511742329953393     
   9.6000000000000002E-002     3.5732855595815352     
   9.6300000000000011E-002    -2.1605101246192930     
   9.6600000000000005E-002    -8.0736141444043596     
   9.6900000000000000E-002    -13.768941502565553     
   9.7200000000000009E-002    -18.857620299682594     
   9.7499999999999989E-002    -22.990557310863096     
   9.7799999999999998E-002    -25.884475120924094     
   9.8100000000000007E-002    -27.340430713613756     
   9.8400000000000015E-002    -27.255950925603507     
   9.8699999999999996E-002    -25.629222236950710     
   9.9000000000000005E-002    -22.552345415490777     
   9.9300000000000013E-002    -18.200678546754943     
   9.9599999999999994E-002    -12.816934196169484     
   9.9900000000000003E-002    -6.6870127127412555     
  0.10020000000000001        -0.12364547799015213     
  0.10049999999999999          6.5575995574330364     
  0.10080000000000000          13.054712329327231     
  0.10110000000000001          19.092842236347678     
  0.10140000000000000          24.435488071503073     
  0.10170000000000000          28.891256042869486     
  0.10200000000000001          32.315853493097961     
  0.10230000000000002          34.612092938808999     
  0.10260000000000000          35.730947952334674     
  0.10290000000000001          35.665805691425476     
  0.10320000000000000          34.450424223439541     
  0.10350000000000001          32.155976503358943     
  0.10380000000000000          28.886464318195635     
  0.10410000000000001          24.772470224315612     
  0.10440000000000001          19.970411751141171     
  0.10470000000000000          14.653214517535616     
  0.10500000000000000          9.0047230921192494     
  0.10530000000000000          3.2148199716683337     
  0.10560000000000000         -2.5298916341496920     
  0.10590000000000001         -8.0525519238298671     
  0.10620000000000000         -13.191822325741327     
  0.10650000000000001         -17.808985353480352     
  0.10679999999999999         -21.791911027377068     
  0.10710000000000000         -25.057187105645511     
  0.10740000000000001         -27.550544195994974     
  0.10770000000000000         -29.250410946292817     
  0.10800000000000000         -30.161448887815141     
  0.10830000000000001         -30.312151003158988     
  0.10859999999999999         -29.756397577630423     
  0.10890000000000000         -28.562372809658086     
  0.10920000000000001         -26.810774454695547     
  0.10950000000000001         -24.593206072883959     
  0.10979999999999999         -22.002789706551653     
  0.11009999999999999         -19.132692246686929     
  0.11040000000000001         -16.076562541840872     
  0.11070000000000001         -12.918409731283305     
  0.11100000000000000         -9.7347320242216995     
  0.11130000000000000         -6.5968959717428390     
  0.11160000000000002         -3.5609029225499178     
  0.11190000000000001        -0.67524598900928368     
  0.11220000000000001          2.0198714807634701     
  0.11250000000000000          4.4971009757374532     
  0.11280000000000000          6.7352483109166883     
  0.11309999999999999          8.7204840046755407     
  0.11340000000000001          10.447329397434117     
  0.11369999999999998          11.915048515555554     
  0.11400000000000000          13.127010825681555     
  0.11430000000000000          14.092619452038662     
  0.11460000000000002          14.823850701762737     
  0.11489999999999999          15.334633220358967     
  0.11520000000000001          15.641179837061941     
  0.11550000000000001          15.759146304043099     
  0.11580000000000000          15.704568778008763     
  0.11609999999999999          15.491212261499072     
  0.11640000000000002          15.128087060571772     
  0.11670000000000001          14.623506269652410     
  0.11700000000000001          13.981171416361065     
  0.11730000000000000          13.199024624358970     
  0.11760000000000000          12.276848005884062     
  0.11789999999999999          11.210929510493713     
  0.11820000000000001          9.9972561355285166     
  0.11850000000000001          8.6391369349643696     
  0.11880000000000000          7.1416455587338987     
  0.11910000000000000          5.5143815455149081     
  0.11940000000000002          3.7817435253021188     
  0.11970000000000001          1.9710836099708224     
  0.12000000000000001         0.11663130287418255     
  0.12030000000000000         -1.7330689751892265     
  0.12060000000000000         -3.5306407097252475     
  0.12089999999999999         -5.2266938121136377     
  0.12119999999999999         -6.7651696728817257     
  0.12150000000000001         -8.1004235348087335     
  0.12180000000000001         -9.1930650201584108     
  0.12210000000000000         -10.007799823070798     
  0.12239999999999999         -10.528089120096894     
  0.12270000000000002         -10.749710579759409     
  0.12300000000000001         -10.678121751627742     
  0.12330000000000001         -10.339745686723404     
  0.12360000000000000         -9.7705358173062109     
  0.12390000000000000         -9.0145318497943663     
  0.12419999999999999         -8.1279471164120878     
  0.12450000000000001         -7.1679253232036331     
  0.12480000000000001         -6.1903280604514919     
  0.12509999999999999         -5.2493772681436610     
  0.12540000000000001         -4.3894438590849347     
  0.12570000000000003         -3.6437729577448152     
  0.12600000000000000         -3.0342114678628320     
  0.12630000000000002         -2.5660971196075337     
  0.12659999999999999         -2.2311724088363221     
  0.12690000000000001         -2.0089131591600093     
  0.12719999999999998         -1.8653789314265694     
  0.12750000000000000         -1.7617629383446243     
  0.12780000000000002         -1.6542283455469260     
  0.12809999999999999         -1.4985157008366130     
  0.12840000000000001         -1.2580257828478381     
  0.12869999999999998        -0.90397548200629529     
  0.12900000000000000        -0.41896253282377316     
  0.12930000000000003         0.19694158061018285     
  0.12959999999999999         0.92965475939656272     
  0.12990000000000002          1.7525140965461787     
  0.13019999999999998          2.6222076011999604     
  0.13050000000000000          3.4894909241963106     
  0.13080000000000003          4.3021603979855207     
  0.13109999999999999          5.0050228620817308     
  0.13140000000000002          5.5523044062897640     
  0.13169999999999998          5.9095024126187781     
  0.13200000000000001          6.0517088162712867     
  0.13229999999999997          5.9745581619757786     
  0.13260000000000000          5.6894373304678254     
  0.13290000000000002          5.2202315407623701     
  0.13319999999999999          4.6063698938441178     
  0.13350000000000001          3.8947087914489913     
  0.13380000000000003          3.1348981109183001     
  0.13410000000000000          2.3778214881965312     
  0.13440000000000002          1.6694053755340050     
  0.13469999999999999          1.0457380465733550     
  0.13500000000000001         0.53347107992555998     
  0.13529999999999998         0.14754817443504664     
  0.13560000000000000        -0.10919792043357557     
  0.13590000000000002        -0.24540378685637521     
  0.13619999999999999        -0.27720308469619770     
  0.13650000000000001        -0.22764385020479061     
  0.13680000000000003        -0.12555669490010768     
  0.13710000000000000          1.4441416511044025E-003
  0.13740000000000002         0.12472333781053990     
  0.13769999999999999         0.21709711065666498     
  0.13800000000000001         0.25863788990357789     
  0.13829999999999998         0.23150827737916302     
  0.13860000000000000         0.12338533680922126     
  0.13890000000000002         -6.8214407237803698E-002
  0.13919999999999999        -0.34255051909751799     
  0.13950000000000001        -0.69252391070229535     
  0.13979999999999998         -1.1013828112142861     
  0.14010000000000000         -1.5502289611195295     
  0.14040000000000002         -2.0148937074254079     
  0.14069999999999999         -2.4655190203570339     
  0.14100000000000001         -2.8737959365696319     
  0.14130000000000004         -3.2096000367527893     
  0.14160000000000000         -3.4455122030721412     
  0.14189999999999997         -3.5591838098001176     
  0.14219999999999999         -3.5339175124744600     
  0.14250000000000002         -3.3619547410012700     
  0.14279999999999998         -3.0438326679875587     
  0.14310000000000000         -2.5898841297125728     
  0.14339999999999997         -2.0209331192151510     
  0.14369999999999999         -1.3646575073751706     
  0.14400000000000002        -0.65640226127249512     
  0.14429999999999998          6.3339132518601460E-002
  0.14460000000000001         0.75410860891214071     
  0.14490000000000003          1.3746104071659317     
  0.14520000000000000          1.8880803800167314     
  0.14550000000000002          2.2658205630723218     
  0.14579999999999999          2.4860176434554404     
  0.14610000000000001          2.5388059188870713     
  0.14640000000000003          2.4262300618573818     
  0.14670000000000000          2.1600007399984946     
  0.14699999999999996          1.7638870414939944     
  0.14729999999999999          1.2698695480052855     
  0.14760000000000001         0.71568381261093172     
  0.14789999999999998         0.14342246936567449     
  0.14820000000000000        -0.40496638578995103     