  -1.4999999999999999E-002     0.0000000000000000     
  -1.4700000000000000E-002     0.0000000000000000     
  -1.4400000000000000E-002     0.0000000000000000     
  -1.4100000000000000E-002     0.0000000000000000     
  -1.3800000000000000E-002     0.0000000000000000     
  -1.3500000000000000E-002     0.0000000000000000     
  -1.3200000000000000E-002     0.0000000000000000     
  -1.2899999999999998E-002    -9.3773250910816570E-037
  -1.2600000000000000E-002    -4.0299912006126791E-035
  -1.2299999999999998E-002     1.3524204887269720E-033
  -1.2000000000000000E-002    -1.8352629078525797E-032
  -1.1699999999999999E-002    -6.3423155148218868E-033
  -1.1399999999999999E-002     1.1901039644230494E-030
  -1.1099999999999999E-002    -4.1172784483104188E-030
  -1.0799999999999999E-002    -1.7428393630766883E-029
  -1.0499999999999999E-002     8.3746029972267675E-029
  -1.0199999999999999E-002     2.1622192065422264E-028
  -9.8999999999999991E-003    -1.1246483954910488E-027
  -9.5999999999999992E-003    -1.5522349706742429E-027
  -9.2999999999999992E-003     6.8078799291445933E-027
  -8.9999999999999993E-003     1.7974164483733805E-026
  -8.6999999999999994E-003    -2.1710872555585519E-026
  -8.3999999999999995E-003    -1.9901631514102091E-025
  -8.0999999999999996E-003     2.1802892765170507E-026
  -7.7999999999999988E-003     1.5359525244037205E-024
  -7.4999999999999997E-003    -3.4103156074553219E-025
  -7.1999999999999998E-003    -5.1167226714359606E-024
  -6.8999999999999981E-003    -2.7105738782323862E-024
  -6.5999999999999982E-003    -4.0968110436439928E-024
  -6.3000000000000000E-003     9.3686665564138396E-023
  -6.0000000000000001E-003    -2.2171520814788321E-023
  -5.6999999999999985E-003    -4.4963770792100096E-022
  -5.3999999999999986E-003     4.8581321377872913E-022
  -5.1000000000000004E-003    -1.6188267525922516E-022
  -4.7999999999999987E-003     3.4965178751233513E-022
  -4.5000000000000005E-003     6.8865453158482547E-021
  -4.1999999999999989E-003    -2.3190616983751725E-020
  -3.8999999999999990E-003     9.0646616497764232E-021
  -3.5999999999999990E-003     6.4912646428525028E-020
  -3.2999999999999991E-003    -2.0016147742884583E-019
  -2.9999999999999992E-003     4.6814819520185828E-019
  -2.6999999999999993E-003    -5.7522121645137798E-019
  -2.3999999999999994E-003    -5.3736510427032258E-019
  -2.0999999999999977E-003     3.3030383334333501E-018
  -1.7999999999999995E-003    -7.0474828272793111E-018
  -1.4999999999999979E-003     1.0596235649438395E-017
  -1.1999999999999997E-003    -5.8845437293000229E-018
  -8.9999999999999976E-004    -2.3266461324313584E-017
  -5.9999999999999810E-004     8.4610606928323543E-017
  -2.9999999999999992E-004    -1.7330697857111041E-016
   0.0000000000000000          2.2821220559526755E-016
   3.0000000000000165E-004     1.5405593846452438E-017
   5.9999999999999984E-004    -9.6519233761370344E-016
   9.0000000000000149E-004     2.5669771745794120E-015
   1.2000000000000031E-003    -3.2752359876231880E-015
   1.5000000000000013E-003    -7.8752811661657631E-016
   1.8000000000000030E-003     1.3200398154271331E-014
   2.1000000000000012E-003    -2.7317922610050182E-014
   2.3999999999999994E-003     1.7976654054456039E-014
   2.7000000000000010E-003     4.2333417181745668E-014
   2.9999999999999992E-003    -1.3316646699946197E-013
   3.3000000000000008E-003     1.3998510582850997E-013
   3.6000000000000025E-003     8.4011240804107243E-014
   3.9000000000000007E-003    -4.8379856400874310E-013
   4.2000000000000023E-003     6.1581239509167559E-013
   4.5000000000000005E-003     5.8924442906525642E-014
   4.7999999999999987E-003    -1.3821156680483452E-012
   5.1000000000000004E-003     2.0144359333448845E-012
   5.4000000000000020E-003    -3.5888035640186982E-013
   5.7000000000000037E-003    -3.2148351945163747E-012
   5.9999999999999984E-003     5.2980960213582912E-012
   6.3000000000000000E-003    -2.0956461853652347E-012
   6.6000000000000017E-003    -5.8198497260003800E-012
   6.9000000000000034E-003     1.1793536296544047E-011
   7.2000000000000015E-003    -7.7014521193544540E-012
   7.5000000000000032E-003    -7.3356175623217139E-012
   7.8000000000000014E-003     2.2463697024694030E-011
   8.0999999999999996E-003    -2.1972851421755510E-011
   8.4000000000000012E-003    -1.1720352243786084E-012
   8.7000000000000029E-003     3.5645157769253558E-011
   9.0000000000000011E-003    -5.2929188672733857E-011
   9.2999999999999992E-003     2.5861716876440029E-011
   9.6000000000000009E-003     4.2674578233469724E-011
   9.8999999999999991E-003    -1.0682985636978132E-010
   1.0200000000000001E-002     9.7129530896829044E-011
   1.0500000000000002E-002     2.2437365201752892E-011
   1.0800000000000004E-002    -1.8542348787602560E-010
   1.1099999999999999E-002     2.3561555164390389E-010
   1.1400000000000000E-002    -6.1137625759808949E-011
   1.1700000000000002E-002    -2.6335425309144199E-010
   1.2000000000000004E-002     4.6418462427568981E-010
   1.2300000000000002E-002    -2.6583662231745839E-010
   1.2600000000000000E-002    -2.9059741659100805E-010
   1.2900000000000002E-002     7.6850082861336339E-010
   1.3200000000000000E-002    -6.6939329798833203E-010
   1.3500000000000002E-002    -1.2737051955336423E-010
   1.3800000000000003E-002     1.1241537218837993E-009
   1.4100000000000001E-002    -1.3918428046435369E-009
   1.4400000000000000E-002     3.5463192526972813E-010
   1.4700000000000001E-002     1.3580867081845208E-009
   1.4999999999999999E-002    -2.1869397351115677E-009
   1.5300000000000001E-002     1.4684475208119029E-009
   1.5600000000000003E-002    -8.4187799476179210E-011
   1.5899999999999997E-002    -2.5267019645741483E-009
   1.6199999999999999E-002     6.8005934655199260E-009
   1.6500000000000001E-002    -4.5856977587521939E-009
   1.6800000000000002E-002    -6.6602561172580071E-009
   1.7100000000000004E-002     5.7849729483106646E-009
   1.7400000000000006E-002    -2.0548800922562587E-008
   1.7700000000000000E-002     7.2982786995766007E-008
   1.8000000000000002E-002     9.8245152268889298E-008
   1.8300000000000004E-002    -4.6123128099183227E-007
   1.8600000000000005E-002    -3.3560169579989611E-007
   1.8900000000000000E-002     3.0519238606815618E-006
   1.9200000000000002E-002     9.9731379204196572E-006
   1.9500000000000003E-002     1.8555857367376409E-005
   1.9799999999999998E-002     2.7572995333639415E-005
   2.0100000000000000E-002     3.6945347189342738E-005
   2.0400000000000001E-002     4.6958829174841899E-005
   2.0700000000000003E-002     5.8279023082802436E-005
   2.0999999999999998E-002     7.6628076157134227E-005
   2.1299999999999999E-002     1.1553981733871625E-004
   2.1600000000000001E-002     1.8323258789905428E-004
   2.1900000000000003E-002     2.6937823842541377E-004
   2.2200000000000004E-002     3.5802027644878109E-004
   2.2500000000000006E-002     4.5189491173372280E-004
   2.2800000000000001E-002     5.7114562731077137E-004
   2.3100000000000002E-002     7.2098623549975496E-004
   2.3400000000000004E-002     8.6736976235384650E-004
   2.3699999999999999E-002     9.5159673035022721E-004
   2.4000000000000000E-002     9.1226215990282064E-004
   2.4300000000000002E-002     6.6924138017942711E-004
   2.4599999999999997E-002     8.8775484912618878E-005
   2.4900000000000005E-002    -1.0238512825452781E-003
   2.5200000000000000E-002    -2.9200879086908466E-003
   2.5499999999999995E-002    -5.9260327149941831E-003
   2.5800000000000003E-002    -1.0457017194128282E-002
   2.6099999999999998E-002    -1.7032554258688881E-002
   2.6400000000000007E-002    -2.6277825697107460E-002
   2.6700000000000002E-002    -3.8876774546227622E-002
   2.6999999999999996E-002    -5.5553130710986331E-002
   2.7300000000000005E-002    -7.7071045765471524E-002
   2.7600000000000000E-002   -0.10417213087913257     
   2.7900000000000008E-002   -0.13748519233616596     
   2.8200000000000003E-002   -0.17744825321155089     
   2.8499999999999998E-002   -0.22424489083982113     
   2.8800000000000006E-002   -0.27773117706262607     
   2.9100000000000001E-002   -0.33736317036413332     
   2.9400000000000003E-002   -0.40213636142000198     
   2.9700000000000004E-002   -0.47056564568740633     
   3.0000000000000006E-002   -0.54070750623534103     
   3.0300000000000001E-002   -0.61019093764174492     
   3.0600000000000002E-002   -0.67632033769275424     
   3.0900000000000004E-002   -0.73624040224522602     
   3.1199999999999999E-002   -0.78705402663367607     
   3.1500000000000007E-002   -0.82596095142345760     
   3.1800000000000002E-002   -0.85041527992552446     
   3.2099999999999997E-002   -0.85821231908655093     
   3.2400000000000005E-002   -0.84763128687076161     
   3.2700000000000000E-002   -0.81731314541228528     
   3.3000000000000002E-002   -0.76643228636124405     
   3.3300000000000003E-002   -0.69431934828679331     
   3.3599999999999998E-002   -0.60078550593891578     
   3.3900000000000000E-002   -0.48560147275189536     
   3.4200000000000001E-002   -0.34898633796427347     
   3.4500000000000003E-002   -0.19115540463966241     
   3.4799999999999998E-002    -1.2935987052531628E-002
   3.5099999999999999E-002    0.18457704155435906     
   3.5400000000000001E-002    0.39902269634542842     
   3.5699999999999996E-002    0.62719367747606558     
   3.6000000000000004E-002    0.86447499421616669     
   3.6299999999999999E-002     1.1047736129628021     
   3.6600000000000008E-002     1.3405867641673801     
   3.6900000000000002E-002     1.5634232774317809     
   3.7199999999999997E-002     1.7640131456407460     
   3.7500000000000006E-002     1.9334051380060160     
   3.7800000000000000E-002     2.0633229601986685     
   3.8100000000000009E-002     2.1475902712656278     
   3.8400000000000004E-002     2.1823617363270813     
   3.8699999999999998E-002     2.1671096269337369     
   3.9000000000000007E-002     2.1045600154875217     
   3.9300000000000002E-002     2.0004948243661289     
   3.9600000000000003E-002     1.8634492681668036     
   3.9900000000000005E-002     1.7032419720478629     
   4.0200000000000000E-002     1.5304369478896902     
   4.0500000000000001E-002     1.3543112101142398     
   4.0800000000000003E-002     1.1822152676475781     
   4.1100000000000005E-002     1.0181670204253805     
   4.1399999999999999E-002    0.86273327612922301     
   4.1700000000000008E-002    0.71299605058585414     
   4.2000000000000003E-002    0.56327882255437345     
   4.2299999999999997E-002    0.40617159026749405     
   4.2600000000000006E-002    0.23462053143787553     
   4.2900000000000001E-002     4.2925927335976555E-002
   4.3200000000000002E-002   -0.17085240226156806     
   4.3500000000000004E-002   -0.40432599995072493     
   4.3799999999999999E-002   -0.64982762132718985     
   4.4100000000000000E-002   -0.89433674246142925     
   4.4400000000000002E-002    -1.1211495349166931     
   4.4700000000000004E-002    -1.3106452258547669     
   4.4999999999999998E-002    -1.4435476666229015     
   4.5300000000000000E-002    -1.5026055077882745     
   4.5600000000000002E-002    -1.4759156377985292     
   4.5899999999999996E-002    -1.3590593574327983     
   4.6200000000000005E-002    -1.1562466841759615     
   4.6500000000000000E-002   -0.88159409628085328     
   4.6799999999999994E-002   -0.55832405141926422     
   4.7100000000000003E-002   -0.21737566647148887     
   4.7399999999999998E-002    0.10451876484932221     
   4.7700000000000006E-002    0.36904987662122224     
   4.8000000000000001E-002    0.53890179369678393     
   4.8300000000000010E-002    0.58212270229346252     
   4.8600000000000004E-002    0.47550122037668519     
   4.8899999999999999E-002    0.20719068968197896     
   4.9200000000000008E-002   -0.22102792179335040     
   4.9500000000000002E-002   -0.79328035878764425     
   4.9800000000000011E-002    -1.4799224243378895     
   5.0100000000000006E-002    -2.2390242729725855     
   5.0400000000000000E-002    -3.0193420477963842     
   5.0700000000000009E-002    -3.7635452137645053     
   5.1000000000000004E-002    -4.4128714573277463     
   5.1299999999999998E-002    -4.9110062798729857     
   5.1600000000000007E-002    -5.2091271335887228     
   5.1900000000000002E-002    -5.2696354982823266     
   5.2200000000000010E-002    -5.0691235562705685     
   5.2500000000000005E-002    -4.6013572595771848     
   5.2800000000000000E-002    -3.8773740321440471     
   5.3099999999999994E-002    -2.9264678539062032     
   5.3400000000000003E-002    -1.7931558545878374     
   5.3699999999999998E-002   -0.53571404783620036     
   5.4000000000000006E-002    0.77920107815954509     
   5.4300000000000001E-002     2.0798090086703098     
   5.4599999999999996E-002     3.2957360920460701     
   5.4900000000000004E-002     4.3620729814438626     
   5.5199999999999999E-002     5.2250186634769022     
   5.5499999999999994E-002     5.8450230722302621     
   5.5800000000000002E-002     6.2001816659175546     
   5.6099999999999997E-002     6.2868915927637090     
   5.6400000000000006E-002     6.1206405173911094     
   5.6700000000000000E-002     5.7325538464709780     
   5.6999999999999995E-002     5.1689986248793502     
   5.7300000000000004E-002     4.4842800200136992     
   5.7599999999999998E-002     3.7388097740243040     
   5.7900000000000007E-002     2.9912253328006813     
   5.8200000000000002E-002     2.2962763820320689     
   5.8499999999999996E-002     1.6975298480634251     
   5.8800000000000005E-002     1.2271432707045768     
   5.9100000000000000E-002    0.90080827420542775     
   5.9400000000000008E-002    0.71994366445079550     
   5.9700000000000003E-002    0.66957009616388774     
   6.0000000000000012E-002    0.72270474682379415     
   6.0300000000000006E-002    0.84132714586906232     
   6.0600000000000001E-002    0.98198181391564532     
   6.0900000000000010E-002     1.0985235589211513     
   6.1200000000000004E-002     1.1470307325613049     
   6.1500000000000013E-002     1.0897764283170517     
   6.1800000000000008E-002    0.89808364888292402     
   6.2100000000000002E-002    0.55453999768966256     
   6.2399999999999997E-002     5.4187532408169758E-002
   6.2700000000000006E-002   -0.59608589558067493     
   6.3000000000000000E-002    -1.3771775310439338     
   6.3300000000000009E-002    -2.2620573150034602     
   6.3600000000000004E-002    -3.2155126327187205     
   6.3899999999999998E-002    -4.1993542420929373     
   6.4199999999999993E-002    -5.1723240129699732     
   6.4500000000000002E-002    -6.0939566156592520     
   6.4800000000000010E-002    -6.9246955067326468     
   6.5100000000000005E-002    -7.6261997254863161     
   6.5400000000000000E-002    -8.1624313052210482     
   6.5700000000000008E-002    -8.4970098760941255     
   6.5999999999999989E-002    -8.5960352086854641     
   6.6299999999999998E-002    -8.4249924181567053     
   6.6600000000000006E-002    -7.9543523801149263     
   6.6900000000000001E-002    -7.1576104568144387     
   6.7199999999999996E-002    -6.0201534594215218     
   6.7500000000000004E-002    -4.5401401281634719     
   6.7800000000000013E-002    -2.7380608521392276     
   6.8099999999999994E-002   -0.65843209540084757     
   6.8400000000000002E-002     1.6236810454221171     
   6.8700000000000011E-002     4.0028841227751286     
   6.8999999999999992E-002     6.3449482189607238     
   6.9300000000000000E-002     8.4920882404461793     
   6.9600000000000009E-002     10.274376590591132     
   6.9900000000000004E-002     11.521610093880867     
   7.0199999999999999E-002     12.080570926370198     
   7.0500000000000007E-002     11.830046942897539     
   7.0800000000000016E-002     10.698910733573769     
   7.1099999999999997E-002     8.6772363908636123     
   7.1400000000000005E-002     5.8258822853725434     
   7.1700000000000000E-002     2.2767432023568404     
   7.1999999999999995E-002    -1.7704343582101956     
   7.2300000000000003E-002    -6.0609379528252703     
   7.2600000000000012E-002    -10.302761081876213     
   7.2900000000000006E-002    -14.189447158301050     
   7.3200000000000001E-002    -17.424013662773461     
   7.3499999999999996E-002    -19.745065395579388     
   7.3800000000000004E-002    -20.946437129013475     
   7.4099999999999999E-002    -20.897761217370110     
   7.4400000000000008E-002    -19.551673427102401     
   7.4700000000000003E-002    -16.950235739368054     
   7.5000000000000011E-002    -13.217167237201124     
   7.5299999999999992E-002    -8.5509204303839113     
   7.5600000000000001E-002    -3.2034742684406723     
   7.5900000000000009E-002     2.5346576474692597     
   7.6200000000000004E-002     8.3607466388469902     
   7.6499999999999999E-002     13.977554918292753     
   7.6800000000000007E-002     19.113172079140327     
   7.7099999999999988E-002     23.535632117276805     
   7.7399999999999997E-002     27.063584722926180     
   7.7700000000000005E-002     29.570031495339308     
   7.8000000000000014E-002     30.986057846054237     
   7.8299999999999995E-002     31.295699787995801     
   7.8600000000000003E-002     30.531924376732377     
   7.8900000000000012E-002     28.768894394157428     
   7.9199999999999993E-002     26.114500761209797     
   7.9500000000000001E-002     22.701150642900416     
   7.9800000000000010E-002     18.679136510946989     
   8.0100000000000018E-002     14.210310582936359     
   8.0399999999999999E-002     9.4597154558861689     
   8.0700000000000008E-002     4.5934783902898317     
   8.1000000000000003E-002   -0.22999014006808238     
   8.1299999999999997E-002    -4.8596764274582256     
   8.1600000000000006E-002    -9.1626404807778385     
   8.1900000000000014E-002    -13.020801753012165     
   8.2199999999999995E-002    -16.340510865361239     
   8.2500000000000004E-002    -19.050714107181989     
   8.2799999999999999E-002    -21.107727538951423     
   8.3100000000000007E-002    -22.494462389147913     
   8.3400000000000002E-002    -23.219598849794835     
   8.3700000000000011E-002    -23.316986765781223     
   8.4000000000000005E-002    -22.839776832160567     
   8.4300000000000000E-002    -21.860755529621656     
   8.4599999999999995E-002    -20.461079996055787     
   8.4900000000000003E-002    -18.733352640539238     
   8.5199999999999998E-002    -16.767473310190155     
   8.5500000000000007E-002    -14.654881622653420     
   8.5800000000000001E-002    -12.476397159881174     
   8.6100000000000010E-002    -10.304664877654659     
   8.6399999999999991E-002    -8.1985704082910047     
   8.6699999999999999E-002    -6.2012581202720582     
   8.7000000000000008E-002    -4.3445698543370384     
   8.7300000000000003E-002    -2.6391579236352172     
   8.7599999999999997E-002    -1.0903016707158688     
   8.7900000000000006E-002    0.31705547814719637     
   8.8200000000000014E-002     1.5966677868618007     
   8.8499999999999995E-002     2.7766581007560802     
   8.8800000000000004E-002     3.8784899212299990     
   8.9100000000000013E-002     4.9270322011695953     
   8.9399999999999993E-002     5.9377134719085092     
   8.9700000000000002E-002     6.9199776939826947     
   9.0000000000000011E-002     7.8712824897840683     
   9.0299999999999991E-002     8.7799875390876636     
   9.0600000000000000E-002     9.6234371907299874     
   9.0900000000000009E-002     10.371315647871853     
   9.1200000000000017E-002     10.987948590311817     
   9.1499999999999998E-002     11.435307130455953     
   9.1800000000000007E-002     11.679020819333743     
   9.2100000000000001E-002     11.688665389582411     
   9.2399999999999996E-002     11.446369206787949     
   9.2700000000000005E-002     10.942631269313097     
   9.3000000000000013E-002     10.184505208572034     
   9.3300000000000008E-002     9.1920092673395288     
   9.3600000000000003E-002     7.9964903076500491     
   9.3899999999999997E-002     6.6447592953712160     
   9.4200000000000006E-002     5.1856935239292170     
   9.4500000000000001E-002     3.6816201961875521     
   9.4800000000000009E-002     2.1877066717241362     
   9.5100000000000004E-002    0.76418134917383718     
   9.5399999999999999E-002   -0.53831802230536852     
   9.5699999999999993E-002    -1.6764510332934606     
   9.6000000000000002E-002    -2.6163052032617600     
   9.6300000000000011E-002    -3.3387311962505635     
   9.6600000000000005E-002    -3.8358056667513765     
   9.6900000000000000E-002    -4.1149794676454725     
   9.7200000000000009E-002    -4.1945989786050326     
   9.7499999999999989E-002    -4.1051839816416447     
   9.7799999999999998E-002    -3.8856223617726471     
   9.8100000000000007E-002    -3.5808060266916328     
   9.8400000000000015E-002    -3.2377244173000719     
   9.8699999999999996E-002    -2.9029369846213342     
   9.9000000000000005E-002    -2.6174145493526311     
   9.9300000000000013E-002    -2.4157442784788543     
   9.9599999999999994E-002    -2.3204709282696854     
   9.9900000000000003E-002    -2.3434581311484521     
  0.10020000000000001         -2.4826631922737761     
  0.10049999999999999         -2.7234536588130140     
  0.10080000000000000         -3.0408952764914261     
  0.10110000000000001         -3.3994663871514206     
  0.10140000000000000         -3.7588545632803232     
  0.10170000000000000         -4.0765067652951359     
  0.10200000000000001         -4.3088333242400836     
  0.10230000000000002         -4.4214530963637344     
  0.10260000000000000         -4.3816945043579096     
  0.10290000000000001         -4.1745071522861963     
  0.10320000000000000         -3.7898883116046989     
  0.10350000000000001         -3.2360060156849642     
  0.10380000000000000         -2.5300284291811579     
  0.10410000000000001         -1.7022950019204828     
  0.10440000000000001        -0.79253285817186381     
  0.10470000000000000         0.15479925406543416     
  0.10500000000000000          1.0871235794482104     
  0.10530000000000000          1.9570182515847847     
  0.10560000000000000          2.7139726426541344     
  0.10590000000000001          3.3193874497371096     
  0.10620000000000000          3.7384586450612503     
  0.10650000000000001          3.9528830665727170     
  0.10679999999999999          3.9525156795276217     
  0.10710000000000000          3.7473148336992210     
  0.10740000000000001          3.3548069001371914     
  0.10770000000000000          2.8119263029526422     
  0.10800000000000000          2.1608457311028531     
  0.10830000000000001          1.4560976778140926     
  0.10859999999999999         0.75379185576025698     
  0.10890000000000000         0.10980527630649650     
  0.10920000000000001        -0.42302067601124094     
  0.10950000000000001        -0.80353277765640030     
  0.10979999999999999         -1.0008559709843148     
  0.11009999999999999         -1.0015965403090732     
  0.11040000000000001        -0.80929105913633270     
  0.11070000000000001        -0.44310130707997697     
  0.11100000000000000          5.8766656155537333E-002
  0.11130000000000000         0.65006679510895182     
  0.11160000000000002          1.2702610345876177     
  0.11190000000000001          1.8612841071857131     
  0.11220000000000001          2.3615551054861026     
  0.11250000000000000          2.7217097666114860     
  0.11280000000000000          2.8994411981929602     
  0.11309999999999999          2.8731428211074643     
  0.11340000000000001          2.6339147798483395     
  0.11369999999999998          2.1953349290879984     
  0.11400000000000000          1.5843455371654258     
  0.11430000000000000         0.84446556020903074     
  0.11460000000000002          2.8829107726473069E-002
  0.11489999999999999        -0.80497493298862111     
  0.11520000000000001         -1.5959207929667372     
  0.11550000000000001         -2.2918235294295215     
  0.11580000000000000         -2.8438327127939971     
  0.11609999999999999         -3.2202241536041658     
  0.11640000000000002         -3.3984330462647918     
  0.11670000000000001         -3.3750512455516102     
  0.11700000000000001         -3.1579561458055565     
  0.11730000000000000         -2.7698950595309810     
  0.11760000000000000         -2.2431642799086262     
  0.11789999999999999         -1.6179142733905181     
  0.11820000000000001        -0.93973045893102025     
  0.11850000000000001        -0.25332641660541810     
  0.11880000000000000         0.39615902503968670     
  0.11910000000000000         0.97026075382599686     
  0.11940000000000002          1.4351568387631062     
  0.11970000000000001          1.7683697840474437     
  0.12000000000000001          1.9534013482074339     
  0.12030000000000000          1.9874305356356778     
  0.12060000000000000          1.8745775494329493     
  0.12089999999999999          1.6297216948040045     
  0.12119999999999999          1.2760125631653665     
  0.12150000000000001         0.84121147315574873     
  0.12180000000000001         0.35974353448841700     
  0.12210000000000000        -0.13470464046058339     
  0.12239999999999999        -0.60477947633130569     
  0.12270000000000002         -1.0211089748847257     
  0.12300000000000001         -1.3536671361650141     
  0.12330000000000001         -1.5838586506532089     
  0.12360000000000000         -1.6968351551206631     
  0.12390000000000000         -1.6901336054106579     
  0.12419999999999999         -1.5668920929492813     
  0.12450000000000001         -1.3408669035838940     
  0.12480000000000001         -1.0308605119043364     
  0.12509999999999999        -0.66224334839304788     
  0.12540000000000001        -0.26269365964460301     
  0.12570000000000003         0.13799876822101886     
  0.12600000000000000         0.51186893555689394     
  0.12630000000000002         0.83468491624874375     
  0.12659999999999999          1.0856866573351458     
  0.12690000000000001          1.2513215508958542     
  0.12719999999999998          1.3243695799119841     
  0.12750000000000000          1.3054702208354030     
  0.12780000000000002          1.2010797103303688     
  0.12809999999999999          1.0239373981606654     
  0.12840000000000001         0.79201969068441969     
  0.12869999999999998         0.52574627707322463     
  0.12900000000000000         0.24813296651831163     
  0.12930000000000003         -1.9225775810231660E-002
  0.12959999999999999        -0.25489981552720131     
  0.12990000000000002        -0.44242989062730786     
  0.13019999999999998        -0.56787774282553194     
  0.13050000000000000        -0.62488062783234710     
  0.13080000000000003        -0.60934547513667425     
  0.13109999999999999        -0.52724454954695155     
  0.13140000000000002        -0.38492418639025416     
  0.13169999999999998        -0.19823812711885580     
  0.13200000000000001          1.9042968620736289E-002
  0.13229999999999997         0.24481307880820857     
  0.13260000000000000         0.46325508085751999     
  0.13290000000000002         0.65232371857971039     
  0.13319999999999999         0.79951722040760309     
  0.13350000000000001         0.88874882022224355     
  0.13380000000000003         0.91543727591783508     
  0.13410000000000000         0.87304090402598433     
  0.13440000000000002         0.76687972197757759     
  0.13469999999999999         0.60136495944638924     
  0.13500000000000001         0.38997724294100067     
  0.13529999999999998         0.14588161072724043     
  0.13560000000000000        -0.11334142302078121     
  0.13590000000000002        -0.37027666638478784     
  0.13619999999999999        -0.60775408997764657     
  0.13650000000000001        -0.80983538469917038     
  0.13680000000000003        -0.96464312407115038     
  0.13710000000000000         -1.0623748726525122     
  0.13740000000000002         -1.0983836517946273     
  0.13769999999999999         -1.0718631799456233     
  0.13800000000000001        -0.98648772804202522     
  0.13829999999999998        -0.84954943501316649     
  0.13860000000000000        -0.67201250693817371     
  0.13890000000000002        -0.46675172938958376     
  0.13919999999999999        -0.24869043515267464     
  0.13950000000000001         -3.2520737193015847E-002
  0.13979999999999998         0.16751602135723864     
  0.14010000000000000         0.33797010128114202     
  0.14040000000000002         0.46985755140141894     
  0.14069999999999999         0.55492636975144727     
  0.14100000000000001         0.59102582798946734     
  0.14130000000000004         0.57817347603398694     
  0.14160000000000000         0.52030780312767533     
  0.14189999999999997         0.42581262261366959     
  0.14219999999999999         0.30316046127969898     
  0.14250000000000002         0.16572800592001258     
  0.14279999999999998          2.4013812381851074E-002
  0.14310000000000000        -0.10854637610136209     
  0.14339999999999997        -0.22219954953598631     
  0.14369999999999999        -0.30794358686748136     
  0.14400000000000002        -0.35952074206684070     
  0.14429999999999998        -0.37422715258145267     
  0.14460000000000001        -0.35127572639311744     
  0.14490000000000003        -0.29344913625022073     
  0.14520000000000000        -0.20606583394042310     
  0.14550000000000002         -9.5541198733238186E-002
  0.14579999999999999          2.8948096158367687E-002
  0.14610000000000001         0.15830917084788343     
  0.14640000000000003         0.28395152615938901     
  0.14670000000000000         0.39475790641139796     
  0.14699999999999996         0.48536660244868290     
  0.14729999999999999         0.54659670970827179     
  0.14760000000000001         0.57617070963959094     
  0.14789999999999998         0.57039393010516193     
  0.14820000000000000         0.53003943770565698     