  -1.4999999999999999E-002     0.0000000000000000     
  -1.4700000000000000E-002     1.5423433398354530E-013
  -1.4400000000000000E-002     2.6659315126030331E-011
  -1.4100000000000000E-002    -1.9685581042147688E-010
  -1.3800000000000000E-002    -8.5512000629701389E-010
  -1.3500000000000000E-002     3.2836439446392869E-009
  -1.3200000000000000E-002     4.5755315194858146E-009
  -1.2899999999999998E-002    -5.6140938457779287E-009
  -1.2600000000000000E-002    -3.3975601228208670E-008
  -1.2299999999999998E-002     3.9447766931783142E-009
  -1.2000000000000000E-002     6.4051218872794308E-008
  -1.1699999999999999E-002     1.1530848973092248E-007
  -1.1399999999999999E-002    -5.0391509060514559E-008
  -1.1099999999999999E-002    -3.5759669614333878E-007
  -1.0799999999999999E-002    -2.0595752114841693E-007
  -1.0499999999999999E-002     3.1343959401428827E-007
  -1.0199999999999999E-002     8.0509339102553760E-007
  -9.8999999999999991E-003     5.0829768615087281E-007
  -9.5999999999999992E-003    -4.8211885574359446E-007
  -9.2999999999999992E-003    -2.3179568869189225E-006
  -8.9999999999999993E-003    -1.2965543653553658E-006
  -8.6999999999999994E-003     2.0970153188806079E-006
  -8.3999999999999995E-003     2.9588987125606572E-006
  -8.0999999999999996E-003     2.3305259008353196E-006
  -7.7999999999999988E-003    -5.7275927863717686E-007
  -7.4999999999999997E-003    -6.0696678448115019E-006
  -7.1999999999999998E-003    -5.1959756944101605E-006
  -6.8999999999999981E-003     2.5300221964919364E-006
  -6.5999999999999982E-003     5.4689074570788093E-006
  -6.3000000000000000E-003     2.0288264854557454E-006
  -6.0000000000000001E-003    -6.9064457752810728E-009
  -5.6999999999999985E-003    -1.5684876532965372E-006
  -5.3999999999999986E-003     7.6427294272870508E-006
  -5.1000000000000004E-003     3.4349097066002255E-005
  -4.7999999999999987E-003     5.9624608226401153E-005
  -4.5000000000000005E-003     8.3685480744817011E-005
  -4.1999999999999989E-003     1.1276189729031352E-004
  -3.8999999999999990E-003     1.7344226765256320E-004
  -3.5999999999999990E-003     2.7111066189314031E-004
  -3.2999999999999991E-003     4.2370582916793605E-004
  -2.9999999999999992E-003     6.3525821350085381E-004
  -2.6999999999999993E-003     9.1447425254361208E-004
  -2.3999999999999994E-003     1.2985742920763096E-003
  -2.0999999999999977E-003     1.8509501230153640E-003
  -1.7999999999999995E-003     2.6313405930480788E-003
  -1.4999999999999979E-003     3.6654804717389765E-003
  -1.1999999999999997E-003     4.9801232657458450E-003
  -8.9999999999999976E-004     6.6209575264081083E-003
  -5.9999999999999810E-004     8.6346683977876482E-003
  -2.9999999999999992E-004     1.1002886104648460E-002
   0.0000000000000000          1.3669952519124673E-002
   3.0000000000000165E-004     1.6337589219192178E-002
   5.9999999999999984E-004     1.8632159842861706E-002
   9.0000000000000149E-004     2.0019787424334357E-002
   1.2000000000000031E-003     1.9760823598599542E-002
   1.5000000000000013E-003     1.6756813430794160E-002
   1.8000000000000030E-003     9.6026931833067750E-003
   2.1000000000000012E-003    -3.6660518837169365E-003
   2.3999999999999994E-003    -2.5424839373951791E-002
   2.7000000000000010E-003    -5.8574474552817946E-002
   2.9999999999999992E-003   -0.10654764290786689     
   3.3000000000000008E-003   -0.17321349997412366     
   3.6000000000000025E-003   -0.26282468061082132     
   3.9000000000000007E-003   -0.37966506845679482     
   4.2000000000000023E-003   -0.52802988184220423     
   4.5000000000000005E-003   -0.71198311452850938     
   4.7999999999999987E-003   -0.93528399384265537     
   5.1000000000000004E-003    -1.2003794449602445     
   5.4000000000000020E-003    -1.5088209083223454     
   5.7000000000000037E-003    -1.8605144190596121     
   5.9999999999999984E-003    -2.2538285891103413     
   6.3000000000000000E-003    -2.6849327551670399     
   6.6000000000000017E-003    -3.1477854158350240     
   6.9000000000000034E-003    -3.6334329016271383     
   7.2000000000000015E-003    -4.1301269479592690     
   7.5000000000000032E-003    -4.6226855648255878     
   7.8000000000000014E-003    -5.0919044324769374     
   8.0999999999999996E-003    -5.5143482226973362     
   8.4000000000000012E-003    -5.8612729415603155     
   8.7000000000000029E-003    -6.0987040225083717     
   9.0000000000000011E-003    -6.1869896139855598     
   9.2999999999999992E-003    -6.0811924959919281     
   9.6000000000000009E-003    -5.7320176200025230     
   9.8999999999999991E-003    -5.0878189393042987     
   1.0200000000000001E-002    -4.0970911901671201     
   1.0500000000000002E-002    -2.7135815636725482     
   1.0800000000000004E-002   -0.90137896139772522     
   1.1099999999999999E-002     1.3589232368350679     
   1.1400000000000000E-002     4.0630783311284517     
   1.1700000000000002E-002     7.1770742646107664     
   1.2000000000000004E-002     10.630837884367843     
   1.2300000000000002E-002     14.315163171006532     
   1.2600000000000000E-002     18.081626754492653     
   1.2900000000000002E-002     21.744285553431325     
   1.3200000000000000E-002     25.088863124562408     
   1.3500000000000002E-002     27.883595520812406     
   1.3800000000000003E-002     29.894232436670279     
   1.4100000000000001E-002     30.904108978825434     
   1.4400000000000000E-002     30.731430829740418     
   1.4700000000000001E-002     29.251481881100631     
   1.4999999999999999E-002     26.408987797276041     
   1.5300000000000001E-002     22.235089541391631     
   1.5600000000000003E-002     16.846176225129966     
   1.5899999999999997E-002     10.448477968871970     
   1.6199999999999999E-002     3.3217948745353993     
   1.6500000000000001E-002    -4.1941886406715412     
   1.6800000000000002E-002    -11.723555354054724     
   1.7100000000000004E-002    -18.885498349813474     
   1.7400000000000006E-002    -25.316035753538472     
   1.7700000000000000E-002    -30.703113940752871     
   1.8000000000000002E-002    -34.800593459117749     
   1.8300000000000004E-002    -37.453160391631727     
   1.8600000000000005E-002    -38.595750514724386     
   1.8900000000000000E-002    -38.261840797883565     
   1.9200000000000002E-002    -36.567530353652273     
   1.9500000000000003E-002    -33.701132924722401     
   1.9799999999999998E-002    -29.901611119648464     
   2.0100000000000000E-002    -25.435088206753221     
   2.0400000000000001E-002    -20.572422995319016     
   2.0700000000000003E-002    -15.570850189442353     
   2.0999999999999998E-002    -10.653108564076888     
   2.1299999999999999E-002    -6.0022680687498777     
   2.1600000000000001E-002    -1.7482872775406477     
   2.1900000000000003E-002     2.0221578439586665     
   2.2200000000000004E-002     5.2718368352826417     
   2.2500000000000006E-002     7.9955449451489358     
   2.2800000000000001E-002     10.216208364392912     
   2.3100000000000002E-002     11.973081659328045     
   2.3400000000000004E-002     13.308434092357288     
   2.3699999999999999E-002     14.268459131499565     
   2.4000000000000000E-002     14.886400083448564     
   2.4300000000000002E-002     15.192059168475055     
   2.4599999999999997E-002     15.201723823755458     
   2.4900000000000005E-002     14.927731844838831     
   2.5200000000000000E-002     14.377604040624078     
   2.5499999999999995E-002     13.560047768510969     
   2.5800000000000003E-002     12.489959152124811     
   2.6099999999999998E-002     11.188396580321239     
   2.6400000000000007E-002     9.6921785309650659     
   2.6700000000000002E-002     8.0432297438387934     
   2.6999999999999996E-002     6.3012136406066190     
   2.7300000000000005E-002     4.5281820769948666     
   2.7600000000000000E-002     2.7958200429112665     
   2.7900000000000008E-002     1.1736660687870533     
   2.8200000000000003E-002   -0.27308302271380569     
   2.8499999999999998E-002    -1.4871069506389887     
   2.8800000000000006E-002    -2.4257969126695116     
   2.9100000000000001E-002    -3.0624594087275199     
   2.9400000000000003E-002    -3.3900966125929131     
   2.9700000000000004E-002    -3.4192883532100495     
   3.0000000000000006E-002    -3.1825960946412648     
   3.0300000000000001E-002    -2.7242656254508368     
   3.0600000000000002E-002    -2.1067396611085911     
   3.0900000000000004E-002    -1.3953771576698308     
   3.1199999999999999E-002   -0.66255305784283713     
   3.1500000000000007E-002     2.4081711512753401E-002
   3.1800000000000002E-002    0.60239513713470316     
   3.2099999999999997E-002     1.0237279408463182     
   3.2400000000000005E-002     1.2530288066483664     
   3.2700000000000000E-002     1.2731960238679072     
   3.3000000000000002E-002     1.0851994200122199     
   3.3300000000000003E-002    0.70617964374276809     
   3.3599999999999998E-002    0.16943777138700922     
   3.3900000000000000E-002   -0.48093918677165526     
   3.4200000000000001E-002    -1.1924137239470021     
   3.4500000000000003E-002    -1.9088528930851183     
   3.4799999999999998E-002    -2.5761353836573164     
   3.5099999999999999E-002    -3.1437319676917710     
   3.5400000000000001E-002    -3.5713356856165888     
   3.5699999999999996E-002    -3.8285186690279716     
   3.6000000000000004E-002    -3.8986755325695128     
   3.6299999999999999E-002    -3.7790271922805090     
   3.6600000000000008E-002    -3.4789713574381551     
   3.6900000000000002E-002    -3.0217355031268198     
   3.7199999999999997E-002    -2.4372836963633233     
   3.7500000000000006E-002    -1.7666654253463250     
   3.7800000000000000E-002    -1.0514305019246208     
   3.8100000000000009E-002   -0.33786109405515963     
   3.8400000000000004E-002    0.33364943900109623     
   3.8699999999999998E-002    0.92449893366821811     
   3.9000000000000007E-002     1.4048459722043418     
   3.9300000000000002E-002     1.7535570012918953     
   3.9600000000000003E-002     1.9589287097718788     
   3.9900000000000005E-002     2.0210440728884578     
   4.0200000000000000E-002     1.9476029093081380     
   4.0500000000000001E-002     1.7577817403012617     
   4.0800000000000003E-002     1.4747970419241270     
   4.1100000000000005E-002     1.1293744464264392     
   4.1399999999999999E-002    0.75288159747466565     
   4.1700000000000008E-002    0.37711605614532218     
   4.2000000000000003E-002     3.2245821399625285E-002
   4.2299999999999997E-002   -0.25711977902509631     
   4.2600000000000006E-002   -0.47098729318756583     
   4.2900000000000001E-002   -0.59720150642482039     
   4.3200000000000002E-002   -0.63075462709215913     
   4.3500000000000004E-002   -0.57366070480409803     
   4.3799999999999999E-002   -0.43537077083076348     
   4.4100000000000000E-002   -0.23016575204062573     
   4.4400000000000002E-002     2.2435692341527869E-002
   4.4700000000000004E-002    0.30067178691848540     
   4.4999999999999998E-002    0.58101057490803498     
   4.5300000000000000E-002    0.84008895028781660     
   4.5600000000000002E-002     1.0575691753303236     
   4.5899999999999996E-002     1.2148160521924503     
   4.6200000000000005E-002     1.2997573786776293     
   4.6500000000000000E-002     1.3033669907868486     
   4.6799999999999994E-002     1.2253580651153726     
   4.7100000000000003E-002     1.0687823769274623     
   4.7399999999999998E-002    0.84524907168110630     
   4.7700000000000006E-002    0.56888586672213393     
   4.8000000000000001E-002    0.26003301752420338     
   4.8300000000000010E-002    -6.0515833863892254E-002
   4.8600000000000004E-002   -0.36970165086850137     
   4.8899999999999999E-002   -0.64731232697957353     
   4.9200000000000008E-002   -0.87487450380700693     
   4.9500000000000002E-002    -1.0386755766787399     
   4.9800000000000011E-002    -1.1315979471837956     
   5.0100000000000006E-002    -1.1511525704605177     
   5.0400000000000000E-002    -1.1022837108418244     
   5.0700000000000009E-002   -0.99374969946808633     
   5.1000000000000004E-002   -0.84083715880397136     
   5.1299999999999998E-002   -0.65763061913726162     
   5.1600000000000007E-002   -0.46338373734837468     
   5.1900000000000002E-002   -0.27142725697080472     
   5.2200000000000010E-002    -9.6255731126658084E-002
   5.2500000000000005E-002     5.3874288523787062E-002
   5.2800000000000000E-002    0.17481131977782915     
   5.3099999999999994E-002    0.26522949090463310     
   5.3400000000000003E-002    0.32994268061991328     
   5.3699999999999998E-002    0.37294736669058715     
   5.4000000000000006E-002    0.40308944952066739     
   5.4300000000000001E-002    0.42454973508148086     
   5.4599999999999996E-002    0.44343193418536231     
   5.4900000000000004E-002    0.46044152499245428     
   5.5199999999999999E-002    0.47461658421351771     
   5.5499999999999994E-002    0.48318144741176194     
   5.5800000000000002E-002    0.47788981065486347     
   5.6099999999999997E-002    0.45500354084868633     
   5.6400000000000006E-002    0.40595550483244125     
   5.6700000000000000E-002    0.32926247352738081     
   5.6999999999999995E-002    0.22205860121705889     
   5.7300000000000004E-002     8.9208820923075249E-002
   5.7599999999999998E-002    -6.3737165686260866E-002
   5.7900000000000007E-002   -0.22573199624578066     
   5.8200000000000002E-002   -0.38483492838028788     
   5.8499999999999996E-002   -0.52741508608585486     
   5.8800000000000005E-002   -0.64148421139812140     
   5.9100000000000000E-002   -0.71717108229167614     
   5.9400000000000008E-002   -0.74829891157432193     
   5.9700000000000003E-002   -0.73316417835478020     
   6.0000000000000012E-002   -0.67509281978123781     
   6.0300000000000006E-002   -0.58064887343421745     
   6.0600000000000001E-002   -0.46024683948898826     
   6.0900000000000010E-002   -0.32702564838251735     
   6.1200000000000004E-002   -0.19183190808712336     
   6.1500000000000013E-002    -6.7560098329661589E-002
   6.1800000000000008E-002     3.8095458068585941E-002
   6.2100000000000002E-002    0.11912444820459811     
   6.2399999999999997E-002    0.17402770318441263     
   6.2700000000000006E-002    0.20383555527024733     
   6.3000000000000000E-002    0.21379938883199756     
   6.3300000000000009E-002    0.20983890309755360     
   6.3600000000000004E-002    0.19957921559061198     
   6.3899999999999998E-002    0.19037429264060091     
   6.4199999999999993E-002    0.18788566877561585     
   6.4500000000000002E-002    0.19644171358649221     
   6.4800000000000010E-002    0.21876595344115923     
   6.5100000000000005E-002    0.25286437822314589     
   6.5400000000000000E-002    0.29884722862719038     
   6.5700000000000008E-002    0.35061320687064368     
   6.5999999999999989E-002    0.40447527712156006     
   6.6299999999999998E-002    0.45382571600531385     
   6.6600000000000006E-002    0.49377693863986316     
   6.6900000000000001E-002    0.51810176500082683     
   6.7199999999999996E-002    0.52356159108140510     
   6.7500000000000004E-002    0.50581387380525911     
   6.7800000000000013E-002    0.46334888257792528     
   6.8099999999999994E-002    0.39611064992865508     
   6.8400000000000002E-002    0.30524918295254100     
   6.8700000000000011E-002    0.19341366635494328     
   6.8999999999999992E-002     6.6180185663986868E-002
   6.9300000000000000E-002    -7.1435358580577812E-002
   6.9600000000000009E-002   -0.21141833861212866     
   6.9900000000000004E-002   -0.34632718929525730     
   7.0199999999999999E-002   -0.46837132801632064     
   7.0500000000000007E-002   -0.57003927434099699     
   7.0800000000000016E-002   -0.64584165509929647     
   7.1099999999999997E-002   -0.68987570903598616     
   7.1400000000000005E-002   -0.70191447940257490     
   7.1700000000000000E-002   -0.67907890235553481     
   7.1999999999999995E-002   -0.62632982987614483     
   7.2300000000000003E-002   -0.54552091113217216     
   7.2600000000000012E-002   -0.44408836767269477     
   7.2900000000000006E-002   -0.32801277355291170     
   7.3200000000000001E-002   -0.20496039831912061     
   7.3499999999999996E-002    -8.2886786689575942E-002
   7.3800000000000004E-002     3.2243552059059155E-002
   7.4099999999999999E-002    0.13332454756998402     
   7.4400000000000008E-002    0.21691868834306405     
   7.4700000000000003E-002    0.27914999744099189     
   7.5000000000000011E-002    0.31819749875402215     
   7.5299999999999992E-002    0.33466896992210105     
   7.5600000000000001E-002    0.32814272100468056     
   7.5900000000000009E-002    0.30277871955529001     
   7.6200000000000004E-002    0.25970411043003860     
   7.6499999999999999E-002    0.20513231617680550     
   7.6800000000000007E-002    0.14220691455315748     
   7.7099999999999988E-002     7.6719691309244720E-002
   7.7399999999999997E-002     1.3713794581700967E-002
   7.7700000000000005E-002    -4.3029307896170210E-002
   7.8000000000000014E-002    -8.7761380843641712E-002
   7.8299999999999995E-002   -0.11910431988917569     
   7.8600000000000003E-002   -0.13311717115084631     
   7.8900000000000012E-002   -0.13067877833074704     
   7.9199999999999993E-002   -0.11157077727781317     
   7.9500000000000001E-002    -7.7788074680251285E-002
   7.9800000000000010E-002    -3.3048335345540858E-002
   8.0100000000000018E-002     2.0379773346445473E-002
   8.0399999999999999E-002     7.5533168986292032E-002
   8.0700000000000008E-002    0.13104424812928950     
   8.1000000000000003E-002    0.17965073020909861     
   8.1299999999999997E-002    0.21982876539775731     
   8.1600000000000006E-002    0.24773554375799467     
   8.1900000000000014E-002    0.26100127034743892     
   8.2199999999999995E-002    0.26037185063114343     
   8.2500000000000004E-002    0.24411040688325158     
   8.2799999999999999E-002    0.21513293795328803     
   8.3100000000000007E-002    0.17334918173520375     
   8.3400000000000002E-002    0.12370589498660944     
   8.3700000000000011E-002     6.7029222495906593E-002
   8.4000000000000005E-002     8.3489896313371781E-003
   8.4300000000000000E-002    -4.9771131380401012E-002
   8.4599999999999995E-002   -0.10436792159201547     
   8.4900000000000003E-002   -0.15137302638855765     
   8.5199999999999998E-002   -0.18951041395732116     
   8.5500000000000007E-002   -0.21631373938234288     
   8.5800000000000001E-002   -0.23010645115970174     
   8.6100000000000010E-002   -0.23207253353820079     
   8.6399999999999991E-002   -0.22110161330324019     
   8.6699999999999999E-002   -0.20009037149100362     
   8.7000000000000008E-002   -0.16961252892031808     
   8.7300000000000003E-002   -0.13395346028962773     
   8.7599999999999997E-002    -9.4107474005581171E-002
   8.7900000000000006E-002    -5.4672081239596215E-002
   8.8200000000000014E-002    -1.7836919725708666E-002
   8.8499999999999995E-002     1.4541676975688977E-002
   8.8800000000000004E-002     3.9096951603124319E-002
   8.9100000000000013E-002     5.6654084138735072E-002
   8.9399999999999993E-002     6.4991339454452568E-002
   8.9700000000000002E-002     6.5911720964504192E-002
   9.0000000000000011E-002     5.8609167914494220E-002
   9.0299999999999991E-002     4.5839091443127811E-002
   9.0600000000000000E-002     2.7948681534275099E-002
   9.0900000000000009E-002     7.8275084556170826E-003
   9.1200000000000017E-002    -1.3272033803787969E-002
   9.1499999999999998E-002    -3.3879468819937697E-002
   9.1800000000000007E-002    -5.1543486425729812E-002
   9.2100000000000001E-002    -6.6073265681955817E-002
   9.2399999999999996E-002    -7.5145875067663015E-002
   9.2700000000000005E-002    -7.9163843768035314E-002
   9.3000000000000013E-002    -7.6473232016657011E-002
   9.3300000000000008E-002    -6.8177034848150742E-002
   9.3600000000000003E-002    -5.3554388786200890E-002
   9.3899999999999997E-002    -3.4362663218747924E-002
   9.4200000000000006E-002    -1.0652607070940401E-002
   9.4500000000000001E-002     1.5309773517655945E-002
   9.4800000000000009E-002     4.2277812106090551E-002
   9.5100000000000004E-002     6.8478960855632320E-002
   9.5399999999999999E-002     9.1608003705009988E-002
   9.5699999999999993E-002    0.11065791626606658     
   9.6000000000000002E-002    0.12372636429266226     
   9.6300000000000011E-002    0.13072615338420146     
   9.6600000000000005E-002    0.13029933430108631     
   9.6900000000000000E-002    0.12368066196891858     
   9.7200000000000009E-002    0.11016008122878107     
   9.7499999999999989E-002     9.2296663567187132E-002
   9.7799999999999998E-002     6.9948112121710704E-002
   9.8100000000000007E-002     4.5824462203270855E-002
   9.8400000000000015E-002     2.0543659212542087E-002
   9.8699999999999996E-002    -3.8620068718771550E-003
   9.9000000000000005E-002    -2.6830400101317209E-002
   9.9300000000000013E-002    -4.6510966691198807E-002
   9.9599999999999994E-002    -6.2473354239044543E-002
   9.9900000000000003E-002    -7.4317092785315397E-002
  0.10020000000000001         -8.0801725353059961E-002
  0.10049999999999999         -8.2639005039780500E-002
  0.10080000000000000         -7.9240125591649724E-002
  0.10110000000000001         -7.1460309677892964E-002
  0.10140000000000000         -5.9155223876930396E-002
  0.10170000000000000         -4.3416572444906931E-002
  0.10200000000000001         -2.5519869846474919E-002
  0.10230000000000002         -6.4260375634616063E-003
  0.10260000000000000          1.2090906547320680E-002
  0.10290000000000001          2.9421046239273052E-002
  0.10320000000000000          4.3099467602644936E-002
  0.10350000000000001          5.3343288249860121E-002
  0.10380000000000000          5.8632910654640824E-002
  0.10410000000000001          5.8586558685707502E-002
  0.10440000000000001          5.3944587113498477E-002
  0.10470000000000000          4.4842475800292547E-002
  0.10500000000000000          3.2087482699832082E-002
  0.10530000000000000          1.7019129046930925E-002
  0.10560000000000000          1.0029451180945947E-003
  0.10590000000000001         -1.5517460797086935E-002
  0.10620000000000000         -3.0692000017851551E-002
  0.10650000000000001         -4.4038844146916611E-002
  0.10679999999999999         -5.4702636137763827E-002
  0.10710000000000000         -6.2697254062383134E-002
  0.10740000000000001         -6.6923835296320844E-002
  0.10770000000000000         -6.7854820675436578E-002
  0.10800000000000000         -6.5370749181170806E-002
  0.10830000000000001         -5.9822777984496200E-002
  0.10859999999999999         -5.0770461315917226E-002
  0.10890000000000000         -3.9096897586099466E-002
  0.10920000000000001         -2.5495690544643845E-002
  0.10950000000000001         -1.0149818199214955E-002
  0.10979999999999999          5.4366753911094558E-003
  0.11009999999999999          2.0941621061048354E-002
  0.11040000000000001          3.4501577490502089E-002
  0.11070000000000001          4.5871650082020543E-002
  0.11100000000000000          5.3950040281527611E-002
  0.11130000000000000          5.7664328966034795E-002
  0.11160000000000002          5.7916307914479104E-002
  0.11190000000000001          5.3603311707063339E-002
  0.11220000000000001          4.6450236572245784E-002
  0.11250000000000000          3.5783046372013461E-002
  0.11280000000000000          2.4117262220618829E-002
  0.11309999999999999          1.1293830482705589E-002
  0.11340000000000001         -1.1633487246036633E-003
  0.11369999999999998         -1.2070060663764925E-002
  0.11400000000000000         -2.1324278580516443E-002
  0.11430000000000000         -2.8055904635930551E-002
  0.11460000000000002         -3.2153024154434551E-002
  0.11489999999999999         -3.3457372139339192E-002
  0.11520000000000001         -3.2142839922068234E-002
  0.11550000000000001         -2.8687090445618346E-002
  0.11580000000000000         -2.2975420120449744E-002
  0.11609999999999999         -1.5523671782567833E-002
  0.11640000000000002         -7.1738091482661526E-003
  0.11670000000000001          2.3235540867135862E-003
  0.11700000000000001          1.1718426148788097E-002
  0.11730000000000000          2.0911474978948075E-002
  0.11760000000000000          2.8679932268146802E-002
  0.11789999999999999          3.4981382563015972E-002
  0.11820000000000001          3.8946814405329100E-002
  0.11850000000000001          4.0411924043322500E-002
  0.11880000000000000          3.8639693196761193E-002
  0.11910000000000000          3.4163884619708762E-002
  0.11940000000000002          2.7424879160087734E-002
  0.11970000000000001          1.8127920971146905E-002
  0.12000000000000001          8.1062821507068006E-003
  0.12030000000000000         -2.8559783328370777E-003
  0.12060000000000000         -1.3401819484026301E-002
  0.12089999999999999         -2.2873676254740571E-002
  0.12119999999999999         -3.0784853411499835E-002
  0.12150000000000001         -3.6468318468339533E-002
  0.12180000000000001         -3.9850975500026697E-002
  0.12210000000000000         -4.1068846722860597E-002
  0.12239999999999999         -3.9731807120127360E-002
  0.12270000000000002         -3.6426882653656900E-002
  0.12300000000000001         -3.1511990550416924E-002
  0.12330000000000001         -2.4703971538168890E-002
  0.12360000000000000         -1.6968417763647770E-002
  0.12390000000000000         -8.3188657683329059E-003
  0.12419999999999999          4.3155198928368499E-004
  0.12450000000000001          9.8104919038092958E-003
  0.12480000000000001          1.7847343562667983E-002
  0.12509999999999999          2.5790209539120701E-002
  0.12540000000000001          3.1567044579889458E-002
  0.12570000000000003          3.5800766054682631E-002
  0.12600000000000000          3.7611043205099337E-002
  0.12630000000000002          3.6855153918289529E-002
  0.12659999999999999          3.3951095669870368E-002
  0.12690000000000001          2.8204805597073862E-002
  0.12719999999999998          2.1151585899713499E-002
  0.12750000000000000          1.2277106785024916E-002
  0.12780000000000002          3.2030780193230690E-003
  0.12809999999999999         -5.9323494025971171E-003
  0.12840000000000001         -1.4492290507331251E-002
  0.12869999999999998         -2.1202833292206569E-002
  0.12900000000000000         -2.6945306197833752E-002
  0.12930000000000003         -2.9894639925133637E-002
  0.12959999999999999         -3.1677292254364331E-002
  0.12990000000000002         -3.0640191976535280E-002
  0.13019999999999998         -2.8478235412774777E-002
  0.13050000000000000         -2.4572626813154266E-002
  0.13080000000000003         -1.9178732060320891E-002
  0.13109999999999999         -1.3455319057613324E-002
  0.13140000000000002         -6.4726137552117979E-003
  0.13169999999999998          1.1263536551833764E-004
  0.13200000000000001          7.1164996401455512E-003
  0.13229999999999997          1.3318561627821857E-002
  0.13260000000000000          1.9107416759901685E-002
  0.13290000000000002          2.3386268744203020E-002
  0.13319999999999999          2.6508319089913024E-002
  0.13350000000000001          2.7554496105661741E-002
  0.13380000000000003          2.7156761341101690E-002
  0.13410000000000000          2.4451026347595162E-002
  0.13440000000000002          2.0473570747977954E-002
  0.13469999999999999          1.4763337790961839E-002
  0.13500000000000001          8.4432294755670823E-003
  0.13529999999999998          1.5609651232570132E-003
  0.13560000000000000         -4.8011440413640305E-003
  0.13590000000000002         -1.0961335476663753E-002
  0.13619999999999999         -1.5564609923202577E-002
  0.13650000000000001         -1.9074875928753954E-002
  0.13680000000000003         -2.1092413194887749E-002
  0.13710000000000000         -2.1632298824290214E-002
  0.13740000000000002         -2.0832779520853738E-002
  0.13769999999999999         -1.9044588912896288E-002
  0.13800000000000001         -1.6295750746315063E-002
  0.13829999999999998         -1.2759133573876147E-002
  0.13860000000000000         -8.7665895269676830E-003
  0.13890000000000002         -4.4444961797937554E-003
  0.13919999999999999         -7.3829971908662140E-005
  0.13950000000000001          4.7940965083677622E-003
  0.13979999999999998          9.1337305285019849E-003
  0.14010000000000000          1.3455827710813495E-002
  0.14040000000000002          1.6926993543343816E-002
  0.14069999999999999          1.9613441076923033E-002
  0.14100000000000001          2.1139219741723114E-002
  0.14130000000000004          2.1359398619529651E-002
  0.14160000000000000          1.9983355145572035E-002
  0.14189999999999997          1.7226057268494577E-002
  0.14219999999999999          1.3088085752190226E-002
  0.14250000000000002          7.7608881656053841E-003
  0.14279999999999998          1.9234403834291203E-003
  0.14310000000000000         -3.9716225489551671E-003
  0.14339999999999997         -9.9919383130998574E-003
  0.14369999999999999         -1.4480234419407323E-002
  0.14400000000000002         -1.8472896765298619E-002
  0.14429999999999998         -2.0898084718258381E-002
  0.14460000000000001         -2.2033142449802368E-002
  0.14490000000000003         -2.1591143726393661E-002
  0.14520000000000000         -2.0001426808423289E-002
  0.14550000000000002         -1.7115390748844606E-002
  0.14579999999999999         -1.3544653297315135E-002
  0.14610000000000001         -9.3623995022361073E-003
  0.14640000000000003         -4.3753237196746397E-003
  0.14670000000000000          5.9027630182351132E-004
  0.14699999999999996          5.5948108967554307E-003
  0.14729999999999999          1.0672357672514954E-002
  0.14760000000000001          1.4612271660832399E-002
  0.14789999999999998          1.8779506242214250E-002
  0.14820000000000000          2.1045571413210340E-002