  -1.4999999999999999E-002     0.0000000000000000     
  -1.4700000000000000E-002     0.0000000000000000     
  -1.4400000000000000E-002     0.0000000000000000     
  -1.4100000000000000E-002     0.0000000000000000     
  -1.3800000000000000E-002     0.0000000000000000     
  -1.3500000000000000E-002     0.0000000000000000     
  -1.3200000000000000E-002     0.0000000000000000     
  -1.2899999999999998E-002     0.0000000000000000     
  -1.2600000000000000E-002     5.4570239207978765E-038
  -1.2299999999999998E-002    -7.4168441694449807E-035
  -1.2000000000000000E-002     1.9614647712706090E-033
  -1.1699999999999999E-002    -1.3533648662641374E-032
  -1.1399999999999999E-002    -4.4830166011935440E-032
  -1.1099999999999999E-002     7.7551373110471313E-031
  -1.0799999999999999E-002    -8.4985401570099800E-031
  -1.0499999999999999E-002    -1.3328079197984827E-029
  -1.0199999999999999E-002     2.1216730379912478E-029
  -9.8999999999999991E-003     1.7042709355984416E-028
  -9.5999999999999992E-003    -2.9631077380928993E-028
  -9.2999999999999992E-003    -1.2879652651229751E-027
  -8.9999999999999993E-003     9.0878365173664679E-028
  -8.6999999999999994E-003     9.8957469882604083E-027
  -8.3999999999999995E-003     1.1261659645650590E-026
  -8.0999999999999996E-003    -8.2824349168924819E-026
  -7.7999999999999988E-003    -1.4274397404333783E-025
  -7.4999999999999997E-003     5.7103555377930867E-025
  -7.1999999999999998E-003     5.3972665052721823E-025
  -6.8999999999999981E-003    -1.3451426400090048E-024
  -6.5999999999999982E-003    -1.9272177598150092E-024
  -6.3000000000000000E-003    -1.0737371952136824E-023
  -6.0000000000000001E-003     3.6302233432236582E-023
  -5.6999999999999985E-003     4.4517699111915974E-023
  -5.3999999999999986E-003    -1.9631685888461278E-022
  -5.1000000000000004E-003     1.2280614230133447E-022
  -4.7999999999999987E-003    -1.0048085487993877E-022
  -4.5000000000000005E-003    -5.1290186103563609E-022
  -4.1999999999999989E-003     5.0957233790107512E-021
  -3.8999999999999990E-003    -9.1785503654596818E-021
  -3.5999999999999990E-003    -4.0730567232567150E-021
  -3.2999999999999991E-003     4.1136425338820854E-020
  -2.9999999999999992E-003    -1.1541947062515324E-019
  -2.6999999999999993E-003     2.3245781125725519E-019
  -2.3999999999999994E-003    -1.6298499248515485E-019
  -2.0999999999999977E-003    -4.9649479336237074E-019
  -1.7999999999999995E-003     1.7896493026260938E-018
  -1.4999999999999979E-003    -3.5762380369857414E-018
  -1.1999999999999997E-003     4.8993882866097453E-018
  -8.9999999999999976E-004    -1.0076982021844297E-018
  -5.9999999999999810E-004    -1.5194750332866258E-017
  -2.9999999999999992E-004     4.8525250307500435E-017
   0.0000000000000000         -9.6558036982956200E-017
   3.0000000000000165E-004     1.0569273807116709E-016
   5.9999999999999984E-004     9.1083484373839346E-017
   9.0000000000000149E-004    -6.7572662172142649E-016
   1.2000000000000031E-003     1.4656003563269081E-015
   1.5000000000000013E-003    -1.3318551245048750E-015
   1.8000000000000030E-003    -1.8824754563728742E-015
   2.1000000000000012E-003     8.8788204287188095E-015
   2.3999999999999994E-003    -1.3521214042074708E-014
   2.7000000000000010E-003     1.6605227545226199E-015
   2.9999999999999992E-003     3.5182682369674576E-014
   3.3000000000000008E-003    -7.2670724147495813E-014
   3.6000000000000025E-003     4.3472763231041864E-014
   3.9000000000000007E-003     1.0342497257925798E-013
   4.2000000000000023E-003    -2.8110649116612485E-013
   4.5000000000000005E-003     2.3500911503285260E-013
   4.7999999999999987E-003     2.2538259236357105E-013
   5.1000000000000004E-003    -8.4869627601721898E-013
   5.4000000000000020E-003     8.7960606680315134E-013
   5.7000000000000037E-003     2.8431911772847096E-013
   5.9999999999999984E-003    -2.0800644193186280E-012
   6.3000000000000000E-003     2.6575586349608660E-012
   6.6000000000000017E-003    -3.8955313584262963E-013
   6.9000000000000034E-003    -4.0468362168255556E-012
   7.2000000000000015E-003     7.0028587963177902E-012
   7.5000000000000032E-003    -4.0127796918643099E-012
   7.8000000000000014E-003    -5.6876751572398909E-012
   8.0999999999999996E-003     1.5896433475104388E-011
   8.4000000000000012E-003    -1.5748947285176840E-011
   8.7000000000000029E-003    -1.8638088034733657E-012
   9.0000000000000011E-003     2.9929874550971292E-011
   9.2999999999999992E-003    -4.4748437594277490E-011
   9.6000000000000009E-003     2.0951389928525188E-011
   9.8999999999999991E-003     4.1821542756670382E-011
   1.0200000000000001E-002    -1.0188707516567419E-010
   1.0500000000000002E-002     9.0744321779023807E-011
   1.0800000000000004E-002     2.7693640783366114E-011
   1.1099999999999999E-002    -1.9013697560854581E-010
   1.1400000000000000E-002     2.4394308795194775E-010
   1.1700000000000002E-002    -6.6858366065680741E-011
   1.2000000000000004E-002    -2.8111352134985168E-010
   1.2300000000000002E-002     5.1760273844791982E-010
   1.2600000000000000E-002    -3.3041530622668347E-010
   1.2900000000000002E-002    -2.8839958199355920E-010
   1.3200000000000000E-002     8.9846341477795022E-010
   1.3500000000000002E-002    -8.7853530006398728E-010
   1.3800000000000003E-002    -2.0630788744036010E-011
   1.4100000000000001E-002     1.2685041905768912E-009
   1.4400000000000000E-002    -1.8029993054113902E-009
   1.4700000000000001E-002     8.7845175578138424E-010
   1.4999999999999999E-002     1.2330988452546876E-009
   1.5300000000000001E-002    -3.1590925431146388E-009
   1.5600000000000003E-002     3.0059956745986938E-009
   1.5899999999999997E-002     1.8543511171031923E-010
   1.6199999999999999E-002    -4.8093022897433002E-009
   1.6500000000000001E-002     7.1928281109023828E-009
   1.6800000000000002E-002    -3.8465288731970304E-009
   1.7100000000000004E-002    -8.0208719666075012E-009
   1.7400000000000006E-002     2.2826153411870109E-008
   1.7700000000000000E-002    -7.3461281502318343E-009
   1.8000000000000002E-002    -5.8489042942255765E-008
   1.8300000000000004E-002     4.8771198635222390E-008
   1.8600000000000005E-002     1.6348988651770924E-007
   1.8900000000000000E-002    -2.1094005830946116E-007
   1.9200000000000002E-002    -5.5916092378538451E-007
   1.9500000000000003E-002     1.3382841643760912E-006
   1.9799999999999998E-002     6.7876826506108046E-006
   2.0100000000000000E-002     1.4392335287993774E-005
   2.0400000000000001E-002     2.2244637875701301E-005
   2.0700000000000003E-002     3.0265749956015497E-005
   2.0999999999999998E-002     4.0318511310033500E-005
   2.1299999999999999E-002     5.3783936891704798E-005
   2.1600000000000001E-002     7.1684073191136122E-005
   2.1900000000000003E-002     1.0053037112811580E-004
   2.2200000000000004E-002     1.5203104703687131E-004
   2.2500000000000006E-002     2.3164003505371511E-004
   2.2800000000000001E-002     3.2999529503285885E-004
   2.3100000000000002E-002     4.3499609455466270E-004
   2.3400000000000004E-002     5.5490789236500859E-004
   2.3699999999999999E-002     7.0941477315500379E-004
   2.4000000000000000E-002     8.9285086141899228E-004
   2.4300000000000002E-002     1.0652905330061913E-003
   2.4599999999999997E-002     1.1743541108444333E-003
   2.4900000000000005E-002     1.1607544729486108E-003
   2.5200000000000000E-002     9.3544978881254792E-004
   2.5499999999999995E-002     3.5648469929583371E-004
   2.5800000000000003E-002    -7.8817992471158504E-004
   2.6099999999999998E-002    -2.7740939985960722E-003
   2.6400000000000007E-002    -5.9175090864300728E-003
   2.6700000000000002E-002    -1.0622868314385414E-002
   2.6999999999999996E-002    -1.7423475161194801E-002
   2.7300000000000005E-002    -2.6931907981634140E-002
   2.7600000000000000E-002    -3.9817269891500473E-002
   2.7900000000000008E-002    -5.6786399334669113E-002
   2.8200000000000003E-002    -7.8533336520195007E-002
   2.8499999999999998E-002   -0.10571186989545822     
   2.8800000000000006E-002   -0.13886219263076782     
   2.9100000000000001E-002   -0.17832691967487335     
   2.9400000000000003E-002   -0.22417846322059631     
   2.9700000000000004E-002   -0.27614879608154297     
   3.0000000000000006E-002   -0.33358258008956909     
   3.0300000000000001E-002   -0.39542874693870544     
   3.0600000000000002E-002   -0.46019405126571655     
   3.0900000000000004E-002   -0.52595263719558716     
   3.1199999999999999E-002   -0.59044420719146729     
   3.1500000000000007E-002   -0.65117800235748291     
   3.1800000000000002E-002   -0.70556420087814331     
   3.2099999999999997E-002   -0.75098675489425659     
   3.2400000000000005E-002   -0.78503692150115967     
   3.2700000000000000E-002   -0.80550700426101685     
   3.3000000000000002E-002   -0.81058478355407715     
   3.3300000000000003E-002   -0.79877102375030518     
   3.3599999999999998E-002   -0.76893049478530884     
   3.3900000000000000E-002   -0.72023564577102661     
   3.4200000000000001E-002   -0.65191918611526489     
   3.4500000000000003E-002   -0.56348365545272827     
   3.4799999999999998E-002   -0.45437887310981750     
   3.5099999999999999E-002   -0.32428953051567078     
   3.5400000000000001E-002   -0.17288319766521454     
   3.5699999999999996E-002    -4.3360237032175064E-004
   3.6000000000000004E-002    0.19237494468688965     
   3.6299999999999999E-002    0.40371668338775635     
   3.6600000000000008E-002    0.63033717870712280     
   3.6900000000000002E-002    0.86756616830825806     
   3.7199999999999997E-002     1.1090162992477417     
   3.7500000000000006E-002     1.3466056585311890     
   3.7800000000000000E-002     1.5710933208465576     
   3.8100000000000009E-002     1.7721090316772461     
   3.8400000000000004E-002     1.9399197101593018     
   3.8699999999999998E-002     2.0650823116302490     
   3.9000000000000007E-002     2.1407303810119629     
   3.9300000000000002E-002     2.1626944541931152     
   3.9600000000000003E-002     2.1300339698791504     
   3.9900000000000005E-002     2.0463955402374268     
   4.0200000000000000E-002     1.9185121059417725     
   4.0500000000000001E-002     1.7569035291671753     
   4.0800000000000003E-002     1.5739265680313110     
   4.1100000000000005E-002     1.3826761245727539     
   4.1399999999999999E-002     1.1961997747421265     
   4.1700000000000008E-002     1.0242007970809937     
   4.2000000000000003E-002    0.87365418672561646     
   4.2299999999999997E-002    0.74629783630371094     
   4.2600000000000006E-002    0.63913059234619141     
   4.2900000000000001E-002    0.54503381252288818     
   4.3200000000000002E-002    0.45227703452110291     
   4.3500000000000004E-002    0.34831199049949646     
   4.3799999999999999E-002    0.21976709365844727     
   4.4100000000000000E-002     5.5679656565189362E-002
   4.4400000000000002E-002   -0.15024323761463165     
   4.4700000000000004E-002   -0.39911204576492310     
   4.4999999999999998E-002   -0.68449968099594116     
   4.5300000000000000E-002   -0.99342834949493408     
   4.5600000000000002E-002    -1.3065235614776611     
   4.5899999999999996E-002    -1.5996358394622803     
   4.6200000000000005E-002    -1.8471724987030029     
   4.6500000000000000E-002    -2.0231513977050781     
   4.6799999999999994E-002    -2.1070325374603271     
   4.7100000000000003E-002    -2.0835413932800293     
   4.7399999999999998E-002    -1.9475026130676270     
   4.7700000000000006E-002    -1.7040368318557739     
   4.8000000000000001E-002    -1.3689548969268799     
   4.8300000000000010E-002   -0.96922427415847778     
   4.8600000000000004E-002   -0.53913825750350952     
   4.8899999999999999E-002   -0.11895205825567245     
   4.9200000000000008E-002    0.24881879985332489     
   4.9500000000000002E-002    0.52466183900833130     
   4.9800000000000011E-002    0.67388451099395752     
   5.0100000000000006E-002    0.67207086086273193     
   5.0400000000000000E-002    0.50668072700500488     
   5.0700000000000009E-002    0.17888034880161285     
   5.1000000000000004E-002   -0.29561778903007507     
   5.1299999999999998E-002   -0.88800358772277832     
   5.1600000000000007E-002    -1.5571967363357544     
   5.1900000000000002E-002    -2.2539949417114258     
   5.2200000000000010E-002    -2.9239554405212402     
   5.2500000000000005E-002    -3.5114288330078125     
   5.2800000000000000E-002    -3.9650869369506836     
   5.3099999999999994E-002    -4.2397089004516602     
   5.3400000000000003E-002    -4.3025875091552734     
   5.3699999999999998E-002    -4.1334037780761719     
   5.4000000000000006E-002    -3.7285542488098145     
   5.4300000000000001E-002    -3.1001536846160889     
   5.4599999999999996E-002    -2.2755777835845947     
   5.4900000000000004E-002    -1.2967579364776611     
   5.5199999999999999E-002   -0.21595001220703125     
   5.5499999999999994E-002    0.90747588872909546     
   5.5800000000000002E-002     2.0106499195098877     
   5.6099999999999997E-002     3.0336549282073975     
   5.6400000000000006E-002     3.9221096038818359     
   5.6700000000000000E-002     4.6330399513244629     
   5.6999999999999995E-002     5.1359262466430664     
   5.7300000000000004E-002     5.4169602394104004     
   5.7599999999999998E-002     5.4783201217651367     
   5.7900000000000007E-002     5.3373522758483887     
   5.8200000000000002E-002     5.0256881713867188     
   5.8499999999999996E-002     4.5851001739501953     
   5.8800000000000005E-002     4.0627965927124023     
   5.9100000000000000E-002     3.5089383125305176     
   5.9400000000000008E-002     2.9695329666137695     
   5.9700000000000003E-002     2.4845139980316162     
   6.0000000000000012E-002     2.0827398300170898     
   6.0300000000000006E-002     1.7803983688354492     
   6.0600000000000001E-002     1.5810265541076660     
   6.0900000000000010E-002     1.4737547636032104     
   6.1200000000000004E-002     1.4381682872772217     
   6.1500000000000013E-002     1.4426524639129639     
   6.1800000000000008E-002     1.4537981748580933     
   6.2100000000000002E-002     1.4340821504592896     
   6.2399999999999997E-002     1.3501040935516357     
   6.2700000000000006E-002     1.1748988628387451     
   6.3000000000000000E-002    0.88953232765197754     
   6.3300000000000009E-002    0.48652872443199158     
   6.3600000000000004E-002    -2.9960419982671738E-002
   6.3899999999999998E-002   -0.64586126804351807     
   6.4199999999999993E-002    -1.3362113237380981     
   6.4500000000000002E-002    -2.0710656642913818     
   6.4800000000000010E-002    -2.8146677017211914     
   6.5100000000000005E-002    -3.5323743820190430     
   6.5400000000000000E-002    -4.1924753189086914     
   6.5700000000000008E-002    -4.7688183784484863     
   6.5999999999999989E-002    -5.2445220947265625     
   6.6299999999999998E-002    -5.6118998527526855     
   6.6600000000000006E-002    -5.8731389045715332     
   6.6900000000000001E-002    -6.0384740829467773     
   6.7199999999999996E-002    -6.1245207786560059     
   6.7500000000000004E-002    -6.1491985321044922     
   6.7800000000000013E-002    -6.1288390159606934     
   6.8099999999999994E-002    -6.0740146636962891     
   6.8400000000000002E-002    -5.9846057891845703     
   6.8700000000000011E-002    -5.8483700752258301     
   6.8999999999999992E-002    -5.6403665542602539     
   6.9300000000000000E-002    -5.3219480514526367     
   6.9600000000000009E-002    -4.8489580154418945     
   6.9900000000000004E-002    -4.1724634170532227     
   7.0199999999999999E-002    -3.2497870922088623     
   7.0500000000000007E-002    -2.0533812046051025     
   7.0800000000000016E-002   -0.57671344280242920     
   7.1099999999999997E-002     1.1545407772064209     
   7.1400000000000005E-002     3.0816698074340820     
   7.1700000000000000E-002     5.1080818176269531     
   7.1999999999999995E-002     7.1040325164794922     
   7.2300000000000003E-002     8.9151878356933594     
   7.2600000000000012E-002     10.372226715087891     
   7.2900000000000006E-002     11.308714866638184     
   7.3200000000000001E-002     11.577556610107422     
   7.3499999999999996E-002     11.067950248718262     
   7.3800000000000004E-002     9.7218437194824219     
   7.4099999999999999E-002     7.5458989143371582     
   7.4400000000000008E-002     4.6176424026489258     
   7.4700000000000003E-002     1.0839107036590576     
   7.5000000000000011E-002    -2.8441984653472900     
   7.5299999999999992E-002    -6.9069280624389648     
   7.5600000000000001E-002    -10.815297126770020     
   7.5900000000000009E-002    -14.271483421325684     
   7.6200000000000004E-002    -16.997135162353516     
   7.6499999999999999E-002    -18.753578186035156     
   7.6800000000000007E-002    -19.363357543945312     
   7.7099999999999988E-002    -18.725646972656250     
   7.7399999999999997E-002    -16.824047088623047     
   7.7700000000000005E-002    -13.730494499206543     
   7.8000000000000014E-002    -9.5940084457397461     
   7.8299999999999995E-002    -4.6368904113769531     
   7.8600000000000003E-002    0.87062495946884155     
   7.8900000000000012E-002     6.6232199668884277     
   7.9199999999999993E-002     12.309288024902344     
   7.9500000000000001E-002     17.624395370483398     
   7.9800000000000010E-002     22.299314498901367     
   8.0100000000000018E-002     26.104164123535156     
   8.0399999999999999E-002     28.872053146362305     
   8.0700000000000008E-002     30.493144989013672     
   8.1000000000000003E-002     30.925735473632812     
   8.1299999999999997E-002     30.186380386352539     
   8.1600000000000006E-002     28.348058700561523     
   8.1900000000000014E-002     25.530847549438477     
   8.2199999999999995E-002     21.889669418334961     
   8.2500000000000004E-002     17.606330871582031     
   8.2799999999999999E-002     12.875275611877441     
   8.3100000000000007E-002     7.8985695838928223     
   8.3400000000000002E-002     2.8685071468353271     
   8.3700000000000011E-002    -2.0286495685577393     
   8.4000000000000005E-002    -6.6339774131774902     
   8.4300000000000000E-002    -10.807357788085938     
   8.4599999999999995E-002    -14.440909385681152     
   8.4900000000000003E-002    -17.457447052001953     
   8.5199999999999998E-002    -19.811218261718750     
   8.5500000000000007E-002    -21.489072799682617     
   8.5800000000000001E-002    -22.506622314453125     
   8.6100000000000010E-002    -22.904775619506836     
   8.6399999999999991E-002    -22.745569229125977     
   8.6699999999999999E-002    -22.104948043823242     
   8.7000000000000008E-002    -21.069522857666016     
   8.7300000000000003E-002    -19.724720001220703     
   8.7599999999999997E-002    -18.154708862304688     
   8.7900000000000006E-002    -16.435823440551758     
   8.8200000000000014E-002    -14.628038406372070     
   8.8499999999999995E-002    -12.784216880798340     
   8.8800000000000004E-002    -10.932974815368652     
   8.9100000000000013E-002    -9.0981531143188477     
   8.9399999999999993E-002    -7.2846264839172363     
   8.9700000000000002E-002    -5.4932265281677246     
   9.0000000000000011E-002    -3.7167332172393799     
   9.0299999999999991E-002    -1.9477933645248413     
   9.0600000000000000E-002   -0.18225705623626709     
   9.0900000000000009E-002     1.5796815156936646     
   9.1200000000000017E-002     3.3302738666534424     
   9.1499999999999998E-002     5.0494914054870605     
   9.1800000000000007E-002     6.7150144577026367     
   9.2100000000000001E-002     8.2859458923339844     
   9.2399999999999996E-002     9.7267065048217773     
   9.2700000000000005E-002     10.988671302795410     
   9.3000000000000013E-002     12.029768943786621     
   9.3300000000000008E-002     12.810782432556152     
   9.3600000000000003E-002     13.296957015991211     
   9.3899999999999997E-002     13.470967292785645     
   9.4200000000000006E-002     13.323053359985352     
   9.4500000000000001E-002     12.861404418945312     
   9.4800000000000009E-002     12.110211372375488     
   9.5100000000000004E-002     11.103440284729004     
   9.5399999999999999E-002     9.8937377929687500     
   9.5699999999999993E-002     8.5341434478759766     
   9.6000000000000002E-002     7.0901236534118652     
   9.6300000000000011E-002     5.6233282089233398     
   9.6600000000000005E-002     4.1922330856323242     
   9.6900000000000000E-002     2.8528604507446289     
   9.7200000000000009E-002     1.6428061723709106     
   9.7499999999999989E-002    0.59892082214355469     
   9.7799999999999998E-002   -0.26554685831069946     
   9.8100000000000007E-002   -0.94511270523071289     
   9.8400000000000015E-002    -1.4472504854202271     
   9.8699999999999996E-002    -1.7928563356399536     
   9.9000000000000005E-002    -2.0109395980834961     
   9.9300000000000013E-002    -2.1344509124755859     
   9.9599999999999994E-002    -2.2067036628723145     
   9.9900000000000003E-002    -2.2599451541900635     
  0.10020000000000001         -2.3383638858795166     
  0.10049999999999999         -2.4619698524475098     
  0.10080000000000000         -2.6626977920532227     
  0.10110000000000001         -2.9429228305816650     
  0.10140000000000000         -3.3074555397033691     
  0.10170000000000000         -3.7422432899475098     
  0.10200000000000001         -4.2235679626464844     
  0.10230000000000002         -4.7224960327148438     
  0.10260000000000000         -5.1972088813781738     
  0.10290000000000001         -5.6088228225708008     
  0.10320000000000000         -5.9174456596374512     
  0.10350000000000001         -6.0841307640075684     
  0.10380000000000000         -6.0843482017517090     
  0.10410000000000001         -5.8971095085144043     
  0.10440000000000001         -5.5178933143615723     
  0.10470000000000000         -4.9546656608581543     
  0.10500000000000000         -4.2244925498962402     
  0.10530000000000000         -3.3632674217224121     
  0.10560000000000000         -2.4050216674804688     
  0.10590000000000001         -1.4018242359161377     
  0.10620000000000000        -0.39891844987869263     
  0.10650000000000001         0.55410540103912354     
  0.10679999999999999          1.4115805625915527     
  0.10710000000000000          2.1382241249084473     
  0.10740000000000001          2.7023360729217529     
  0.10770000000000000          3.0874712467193604     
  0.10800000000000000          3.2869646549224854     
  0.10830000000000001          3.3018133640289307     
  0.10859999999999999          3.1527535915374756     
  0.10890000000000000          2.8564345836639404     
  0.10920000000000001          2.4520196914672852     
  0.10950000000000001          1.9706945419311523     
  0.10979999999999999          1.4560718536376953     
  0.11009999999999999         0.94778275489807129     
  0.11040000000000001         0.48433348536491394     
  0.11070000000000001         0.10220170021057129     
  0.11100000000000000        -0.17098356783390045     
  0.11130000000000000        -0.31332767009735107     
  0.11160000000000002        -0.31263151764869690     
  0.11190000000000001        -0.16920001804828644     
  0.11220000000000001         0.11012743413448334     
  0.11250000000000000         0.50300276279449463     
  0.11280000000000000         0.98009377717971802     
  0.11309999999999999          1.5044374465942383     
  0.11340000000000001          2.0282790660858154     
  0.11369999999999998          2.5099332332611084     
  0.11400000000000000          2.8967101573944092     
  0.11430000000000000          3.1526861190795898     
  0.11460000000000002          3.2403721809387207     
  0.11489999999999999          3.1405456066131592     
  0.11520000000000001          2.8453760147094727     
  0.11550000000000001          2.3630118370056152     
  0.11580000000000000          1.7182331085205078     
  0.11609999999999999         0.94836425781250000     
  0.11640000000000002         0.10471940040588379     
  0.11670000000000001        -0.75731855630874634     
  0.11700000000000001         -1.5781891345977783     
  0.11730000000000000         -2.2996239662170410     
  0.11760000000000000         -2.8752117156982422     
  0.11789999999999999         -3.2651605606079102     
  0.11820000000000001         -3.4477467536926270     
  0.11850000000000001         -3.4183561801910400     
  0.11880000000000000         -3.1842288970947266     
  0.11910000000000000         -2.7743811607360840     
  0.11940000000000002         -2.2240202426910400     
  0.11970000000000001         -1.5819674730300903     
  0.12000000000000001        -0.89824998378753662     
  0.12030000000000000        -0.22540038824081421     
  0.12060000000000000         0.38900727033615112     
  0.12089999999999999         0.90330862998962402     
  0.12119999999999999          1.2878619432449341     
  0.12150000000000001          1.5216704607009888     
  0.12180000000000001          1.5996620655059814     
  0.12210000000000000          1.5244370698928833     
  0.12239999999999999          1.3146995306015015     
  0.12270000000000002         0.99361705780029297     
  0.12300000000000001         0.59567523002624512     
  0.12330000000000001         0.15638348460197449     
  0.12360000000000000        -0.28668469190597534     
  0.12390000000000000        -0.69530445337295532     
  0.12419999999999999         -1.0395897626876831     
  0.12450000000000001         -1.2910445928573608     
  0.12480000000000001         -1.4350426197052002     
  0.12509999999999999         -1.4612166881561279     
  0.12540000000000001         -1.3723136186599731     
  0.12570000000000003         -1.1772298812866211     
  0.12600000000000000        -0.89687514305114746     
  0.12630000000000002        -0.55290567874908447     
  0.12659999999999999        -0.17666846513748169     
  0.12690000000000001         0.20374524593353271     
  0.12719999999999998         0.55652719736099243     
  0.12750000000000000         0.85749334096908569     
  0.12780000000000002          1.0830165147781372     
  0.12809999999999999          1.2198064327239990     
  0.12840000000000001          1.2592957019805908     
  0.12869999999999998          1.2021393775939941     
  0.12900000000000000          1.0560184717178345     
  0.12930000000000003         0.83603233098983765     
  0.12959999999999999         0.56176775693893433     
  0.12990000000000002         0.25719666481018066     
  0.13019999999999998         -5.2276276051998138E-002
  0.13050000000000000        -0.34071940183639526     
  0.13080000000000003        -0.58429729938507080     
  0.13109999999999999        -0.76506686210632324     
  0.13140000000000002        -0.86712312698364258     
  0.13169999999999998        -0.88390827178955078     
  0.13200000000000001        -0.81374806165695190     
  0.13229999999999997        -0.66349536180496216     
  0.13260000000000000        -0.44493019580841064     
  0.13290000000000002        -0.17534336447715759     
  0.13319999999999999         0.12398540973663330     
  0.13350000000000001         0.43000152707099915     
  0.13380000000000003         0.72023612260818481     
  0.13410000000000000         0.97071683406829834     
  0.13440000000000002          1.1665782928466797     
  0.13469999999999999          1.2897005081176758     
  0.13500000000000001          1.3330619335174561     
  0.13529999999999998          1.2923693656921387     
  0.13560000000000000          1.1694824695587158     
  0.13590000000000002         0.97412174940109253     
  0.13619999999999999         0.71733754873275757     
  0.13650000000000001         0.41606354713439941     
  0.13680000000000003          9.1932393610477448E-002
  0.13710000000000000        -0.23568820953369141     
  0.13740000000000002        -0.54320728778839111     
  0.13769999999999999        -0.81353074312210083     
  0.13800000000000001         -1.0268340110778809     
  0.13829999999999998         -1.1734755039215088     
  0.13860000000000000         -1.2430953979492188     
  0.13890000000000002         -1.2357283830642700     
  0.13919999999999999         -1.1555020809173584     
  0.13950000000000001         -1.0107285976409912     
  0.13979999999999998        -0.81449317932128906     
  0.14010000000000000        -0.58522653579711914     
  0.14040000000000002        -0.33803007006645203     
  0.14069999999999999         -9.6141397953033447E-002
  0.14100000000000001         0.12858451902866364     
  0.14130000000000004         0.31741166114807129     
  0.14160000000000000         0.46102389693260193     
  0.14189999999999997         0.55145806074142456     
  0.14219999999999999         0.58541429042816162     
  0.14250000000000002         0.56485593318939209     
  0.14279999999999998         0.49366658926010132     
  0.14310000000000000         0.38076627254486084     
  0.14339999999999997         0.23653440177440643     
  0.14369999999999999          7.3257640004158020E-002
  0.14400000000000002         -9.3924053013324738E-002
  0.14429999999999998        -0.25321727991104126     
  0.14460000000000001        -0.39068552851676941     
  0.14490000000000003        -0.49539226293563843     
  0.14520000000000000        -0.55882507562637329     
  0.14550000000000002        -0.57457351684570312     
  0.14579999999999999        -0.54288470745086670     
  0.14610000000000001        -0.46294525265693665     
  0.14640000000000003        -0.34214603900909424     
  0.14670000000000000        -0.19009701907634735     
  0.14699999999999996         -1.4906352385878563E-002
  0.14729999999999999         0.16621461510658264     
  0.14760000000000001         0.34310701489448547     
  0.14789999999999998         0.50183188915252686     
  0.14820000000000000         0.63135409355163574     