  -1.4999999999999999E-002     0.0000000000000000     
  -1.4700000000000000E-002     0.0000000000000000     
  -1.4400000000000000E-002     0.0000000000000000     
  -1.4100000000000000E-002     0.0000000000000000     
  -1.3800000000000000E-002     0.0000000000000000     
  -1.3500000000000000E-002     0.0000000000000000     
  -1.3200000000000000E-002     0.0000000000000000     
  -1.2899999999999998E-002     0.0000000000000000     
  -1.2600000000000000E-002     0.0000000000000000     
  -1.2299999999999998E-002     0.0000000000000000     
  -1.2000000000000000E-002     0.0000000000000000     
  -1.1699999999999999E-002     0.0000000000000000     
  -1.1399999999999999E-002     0.0000000000000000     
  -1.1099999999999999E-002     0.0000000000000000     
  -1.0799999999999999E-002     0.0000000000000000     
  -1.0499999999999999E-002     0.0000000000000000     
  -1.0199999999999999E-002     0.0000000000000000     
  -9.8999999999999991E-003     0.0000000000000000     
  -9.5999999999999992E-003     0.0000000000000000     
  -9.2999999999999992E-003     0.0000000000000000     
  -8.9999999999999993E-003     0.0000000000000000     
  -8.6999999999999994E-003     0.0000000000000000     
  -8.3999999999999995E-003     7.0400104840597178E-037
  -8.0999999999999996E-003     2.5877126296121407E-037
  -7.7999999999999988E-003    -7.9133103055061871E-035
  -7.4999999999999997E-003     2.5221326435183863E-034
  -7.1999999999999998E-003    -1.2432277358079841E-034
  -6.8999999999999981E-003    -1.9709903162741005E-033
  -6.5999999999999982E-003     1.5504893546910824E-033
  -6.3000000000000000E-003     1.3089361756540459E-032
  -6.0000000000000001E-003    -8.4517485464305831E-033
  -5.6999999999999985E-003    -5.9434716476798811E-032
  -5.3999999999999986E-003    -2.4571439230474895E-032
  -5.1000000000000004E-003     2.0575937752386580E-031
  -4.7999999999999987E-003     7.7166610299560161E-031
  -4.5000000000000005E-003    -9.9313398768769790E-031
  -4.1999999999999989E-003    -4.8365306932944414E-030
  -3.8999999999999990E-003    -1.3372829045406506E-030
  -3.5999999999999990E-003     4.1622960226119431E-029
  -3.2999999999999991E-003    -2.8508325223486858E-029
  -2.9999999999999992E-003    -1.0027888099158603E-028
  -2.6999999999999993E-003     1.8543309709215884E-028
  -2.3999999999999994E-003    -5.7363645245053964E-028
  -2.0999999999999977E-003     1.1156667574732320E-027
  -1.7999999999999995E-003     2.4744490444303091E-027
  -1.4999999999999979E-003    -1.0029525934057435E-026
  -1.1999999999999997E-003     3.9793464362571959E-027
  -8.9999999999999976E-004     2.1194054769636754E-026
  -5.9999999999999810E-004    -4.7793902151816933E-026
  -2.9999999999999992E-004     8.9316119751069763E-026
   0.0000000000000000         -3.9022431405660151E-026
   3.0000000000000165E-004    -3.8689924685216748E-025
   5.9999999999999984E-004     8.8296698222560773E-025
   9.0000000000000149E-004    -7.5713045442269389E-025
   1.2000000000000031E-003     5.3379752265977053E-027
   1.5000000000000013E-003     4.4998408859452313E-024
   1.8000000000000030E-003    -1.6922489522063722E-023
   2.1000000000000012E-003     1.8008419666972862E-023
   2.3999999999999994E-003     3.7273201299706054E-023
   2.7000000000000010E-003    -1.5245099238323731E-022
   2.9999999999999992E-003     1.8617052992166013E-022
   3.3000000000000008E-003     2.1514369965264710E-022
   3.6000000000000025E-003    -1.1787333826300231E-021
   3.9000000000000007E-003     1.2976072741998843E-021
   4.2000000000000023E-003     2.0330376836771907E-021
   4.5000000000000005E-003    -7.3430818226442624E-021
   4.7999999999999987E-003     4.5815857957660789E-021
   5.1000000000000004E-003     1.5242119489803657E-020
   5.4000000000000020E-003    -3.4906281910830445E-020
   5.7000000000000037E-003     3.1501137989293354E-021
   5.9999999999999984E-003     9.4369113440613836E-020
   6.3000000000000000E-003    -1.1947407734334090E-019
   6.6000000000000017E-003    -1.1950255045098863E-019
   6.9000000000000034E-003     4.3842702455387791E-019
   7.2000000000000015E-003    -1.4827129761951766E-019
   7.5000000000000032E-003    -9.8205632697832184E-019
   7.8000000000000014E-003     1.4209039728736830E-018
   8.0999999999999996E-003     1.0995497849683899E-018
   8.4000000000000012E-003    -4.9499257133142850E-018
   8.7000000000000029E-003     2.3343396709812902E-018
   9.0000000000000011E-003     1.0576251075583594E-017
   9.2999999999999992E-003    -1.7758164853194614E-017
   9.6000000000000009E-003    -7.4048315080685480E-018
   9.8999999999999991E-003     5.4888644880752470E-017
   1.0200000000000001E-002    -4.7360070461768440E-017
   1.0500000000000002E-002    -8.3386337163461908E-017
   1.0800000000000004E-002     2.2721624399383124E-016
   1.1099999999999999E-002    -7.9212013215604907E-017
   1.1400000000000000E-002    -4.6457734865736804E-016
   1.1700000000000002E-002     8.0247848483313211E-016
   1.2000000000000004E-002     6.0603380961252672E-017
   1.2300000000000002E-002    -1.9867613058058764E-015
   1.2600000000000000E-002     2.4958132840291339E-015
   1.2900000000000002E-002     1.2547550092722364E-015
   1.3200000000000000E-002    -7.2233665311107961E-015
   1.3500000000000002E-002     6.6215678332949817E-015
   1.3800000000000003E-002     6.8565025856113290E-015
   1.4100000000000001E-002    -2.2460630360807143E-014
   1.4400000000000000E-002     1.4392817721062962E-014
   1.4700000000000001E-002     2.6484441742013858E-014
   1.4999999999999999E-002    -6.0108961265434996E-014
   1.5300000000000001E-002     2.2955341647716912E-014
   1.5600000000000003E-002     8.1681284457534031E-014
   1.5899999999999997E-002    -1.3589654304212856E-013
   1.6199999999999999E-002     1.7765206555722494E-014
   1.6500000000000001E-002     2.0385643585522917E-013
   1.6800000000000002E-002    -2.5680157869981124E-013
   1.7100000000000004E-002    -2.8954333912032879E-014
   1.7400000000000006E-002     4.0993686852182354E-013
   1.7700000000000000E-002    -4.0754438669285409E-013
   1.8000000000000002E-002    -1.0954992203096245E-013
   1.8300000000000004E-002     6.9364295123691688E-013
   1.8600000000000005E-002    -7.3726452460426417E-013
   1.8900000000000000E-002    -1.6263177599323136E-013
   1.9200000000000002E-002     1.9509775739390278E-012
   1.9500000000000003E-002    -2.5033332611695824E-012
   1.9799999999999998E-002    -2.9998280335480354E-012
   2.0100000000000000E-002     1.2248829554806218E-011
   2.0400000000000001E-002    -2.8512084186693709E-012
   2.0700000000000003E-002    -3.5844688328623420E-011
   2.0999999999999998E-002     3.5290801531084881E-011
   2.1299999999999999E-002     5.9225936654971889E-011
   2.1600000000000001E-002    -4.6237784434577378E-011
   2.1900000000000003E-002    -1.2381583258669338E-010
   2.2200000000000004E-002    -4.9034565297034760E-010
   2.2500000000000006E-002     1.3136084442422202E-009
   2.2800000000000001E-002     3.6039102813134605E-009
   2.3100000000000002E-002    -1.0558582452802057E-008
   2.3400000000000004E-002    -1.5938550035343724E-008
   2.3699999999999999E-002     5.6833101780284778E-008
   2.4000000000000000E-002     6.1522371197497705E-008
   2.4300000000000002E-002    -2.7105022581963567E-007
   2.4599999999999997E-002    -2.9018761438237561E-007
   2.4900000000000005E-002     1.9848025658575352E-006
   2.5200000000000000E-002     7.9450255725532770E-006
   2.5499999999999995E-002     1.6179001249838620E-005
   2.5800000000000003E-002     2.3693546609138139E-005
   2.6099999999999998E-002     3.0886818422004580E-005
   2.6400000000000007E-002     4.4241300201974809E-005
   2.6700000000000002E-002     7.0061891165096313E-005
   2.6999999999999996E-002     1.0777505667647347E-004
   2.7300000000000005E-002     1.5740780509077013E-004
   2.7600000000000000E-002     2.2783856547903270E-004
   2.7900000000000008E-002     3.2746486249379814E-004
   2.8200000000000003E-002     4.6097688027657568E-004
   2.8499999999999998E-002     6.4357841620221734E-004
   2.8800000000000006E-002     8.9299777755513787E-004
   2.9100000000000001E-002     1.2076785787940025E-003
   2.9400000000000003E-002     1.5854655066505075E-003
   2.9700000000000004E-002     2.0429049618542194E-003
   3.0000000000000006E-002     2.5750428903847933E-003
   3.0300000000000001E-002     3.1301756389439106E-003
   3.0600000000000002E-002     3.6454338114708662E-003
   3.0900000000000004E-002     4.0404852479696274E-003
   3.1199999999999999E-002     4.1598565876483917E-003
   3.1500000000000007E-002     3.7756983656436205E-003
   3.1800000000000002E-002     2.6165575254708529E-003
   3.2099999999999997E-002     3.2263988396152854E-004
   3.2400000000000005E-002    -3.5916054621338844E-003
   3.2700000000000000E-002    -9.6961045637726784E-003
   3.3000000000000002E-002    -1.8610203638672829E-002
   3.3300000000000003E-002    -3.0995439738035202E-002
   3.3599999999999998E-002    -4.7510743141174316E-002
   3.3900000000000000E-002    -6.8739138543605804E-002
   3.4200000000000001E-002    -9.5106936991214752E-002
   3.4500000000000003E-002   -0.12676212191581726     
   3.4799999999999998E-002   -0.16342687606811523     
   3.5099999999999999E-002   -0.20429031550884247     
   3.5400000000000001E-002   -0.24791824817657471     
   3.5699999999999996E-002   -0.29212993383407593     
   3.6000000000000004E-002   -0.33391764760017395     
   3.6299999999999999E-002   -0.36947965621948242     
   3.6600000000000008E-002   -0.39430254697799683     
   3.6900000000000002E-002   -0.40329590439796448     
   3.7199999999999997E-002   -0.39110696315765381     
   3.7500000000000006E-002   -0.35246667265892029     
   3.7800000000000000E-002   -0.28259050846099854     
   3.8100000000000009E-002   -0.17774423956871033     
   3.8400000000000004E-002    -3.5717871040105820E-002
   3.8699999999999998E-002    0.14365600049495697     
   3.9000000000000007E-002    0.35801830887794495     
   3.9300000000000002E-002    0.60227376222610474     
   3.9600000000000003E-002    0.86847406625747681     
   3.9900000000000005E-002     1.1457499265670776     
   4.0200000000000000E-002     1.4207429885864258     
   4.0500000000000001E-002     1.6782176494598389     
   4.0800000000000003E-002     1.9016259908676147     
   4.1100000000000005E-002     2.0742688179016113     
   4.1399999999999999E-002     2.1803281307220459     
   4.1700000000000008E-002     2.2058486938476562     
   4.2000000000000003E-002     2.1400763988494873     
   4.2299999999999997E-002     1.9763171672821045     
   4.2600000000000006E-002     1.7125248908996582     
   4.2900000000000001E-002     1.3521412611007690     
   4.3200000000000002E-002    0.90398067235946655     
   4.3500000000000004E-002    0.38229131698608398     
   4.3799999999999999E-002   -0.19397492706775665     
   4.4100000000000000E-002   -0.80187964439392090     
   4.4400000000000002E-002    -1.4157955646514893     
   4.4700000000000004E-002    -2.0082354545593262     
   4.4999999999999998E-002    -2.5518739223480225     
   4.5300000000000000E-002    -3.0207681655883789     
   4.5600000000000002E-002    -3.3913934230804443     
   4.5899999999999996E-002    -3.6447310447692871     
   4.6200000000000005E-002    -3.7665376663208008     
   4.6500000000000000E-002    -3.7483911514282227     
   4.6799999999999994E-002    -3.5887110233306885     
   4.7100000000000003E-002    -3.2922122478485107     
   4.7399999999999998E-002    -2.8700230121612549     
   4.7700000000000006E-002    -2.3398048877716064     
   4.8000000000000001E-002    -1.7241172790527344     
   4.8300000000000010E-002    -1.0499281883239746     
   4.8600000000000004E-002   -0.34770888090133667     
   4.8899999999999999E-002    0.35100951790809631     
   4.9200000000000008E-002     1.0141737461090088     
   4.9500000000000002E-002     1.6110318899154663     
   4.9800000000000011E-002     2.1145958900451660     
   5.0100000000000006E-002     2.5021255016326904     
   5.0400000000000000E-002     2.7565474510192871     
   5.0700000000000009E-002     2.8684942722320557     
   5.1000000000000004E-002     2.8359723091125488     
   5.1299999999999998E-002     2.6649150848388672     
   5.1600000000000007E-002     2.3691794872283936     
   5.1900000000000002E-002     1.9694769382476807     
   5.2200000000000010E-002     1.4922411441802979     
   5.2500000000000005E-002    0.96770387887954712     
   5.2800000000000000E-002    0.42821028828620911     
   5.3099999999999994E-002    -9.4018049538135529E-002
   5.3400000000000003E-002   -0.56932568550109863     
   5.3699999999999998E-002   -0.97226744890213013     
   5.4000000000000006E-002    -1.2833170890808105     
   5.4300000000000001E-002    -1.4901770353317261     
   5.4599999999999996E-002    -1.5880042314529419     
   5.4900000000000004E-002    -1.5796356201171875     
   5.5199999999999999E-002    -1.4746260643005371     
   5.5499999999999994E-002    -1.2881127595901489     
   5.5800000000000002E-002    -1.0395296812057495     
   5.6099999999999997E-002   -0.75061172246932983     
   5.6400000000000006E-002   -0.44345897436141968     
   5.6700000000000000E-002   -0.13916409015655518     
   5.6999999999999995E-002    0.14376133680343628     
   5.7300000000000004E-002    0.39025607705116272     
   5.7599999999999998E-002    0.58924442529678345     
   5.7900000000000007E-002    0.73413538932800293     
   5.8200000000000002E-002    0.82208013534545898     
   5.8499999999999996E-002    0.85378402471542358     
   5.8800000000000005E-002    0.83278411626815796     
   5.9100000000000000E-002    0.76429551839828491     
   5.9400000000000008E-002    0.65510016679763794     
   5.9700000000000003E-002    0.51258897781372070     
   6.0000000000000012E-002    0.34401148557662964     
   6.0300000000000006E-002    0.15686744451522827     
   6.0600000000000001E-002    -4.1440334171056747E-002
   6.0900000000000010E-002   -0.24441778659820557     
   6.1200000000000004E-002   -0.44510656595230103     
   6.1500000000000013E-002   -0.63659894466400146     
   6.1800000000000008E-002   -0.81258428096771240     
   6.2100000000000002E-002   -0.96646195650100708     
   6.2399999999999997E-002    -1.0918265581130981     
   6.2700000000000006E-002    -1.1833515167236328     
   6.3000000000000000E-002    -1.2360429763793945     
   6.3300000000000009E-002    -1.2459785938262939     
   6.3600000000000004E-002    -1.2113597393035889     
   6.3899999999999998E-002    -1.1309223175048828     
   6.4199999999999993E-002    -1.0053824186325073     
   6.4500000000000002E-002   -0.83728939294815063     
   6.4800000000000010E-002   -0.62955838441848755     
   6.5100000000000005E-002   -0.38637048006057739     
   6.5400000000000000E-002   -0.11266800761222839     
   6.5700000000000008E-002    0.18770673871040344     
   6.5999999999999989E-002    0.51026570796966553     
   6.6299999999999998E-002    0.85079175233840942     
   6.6600000000000006E-002     1.2064216136932373     
   6.6900000000000001E-002     1.5731142759323120     
   6.7199999999999996E-002     1.9463881254196167     
   6.7500000000000004E-002     2.3213479518890381     
   6.7800000000000013E-002     2.6904840469360352     
   6.8099999999999994E-002     3.0436985492706299     
   6.8400000000000002E-002     3.3695514202117920     
   6.8700000000000011E-002     3.6529824733734131     
   6.8999999999999992E-002     3.8772885799407959     
   6.9300000000000000E-002     4.0260105133056641     
   6.9600000000000009E-002     4.0821723937988281     
   6.9900000000000004E-002     4.0316619873046875     
   7.0199999999999999E-002     3.8654496669769287     
   7.0500000000000007E-002     3.5788161754608154     
   7.0800000000000016E-002     3.1745779514312744     
   7.1099999999999997E-002     2.6635153293609619     
   7.1400000000000005E-002     2.0622444152832031     
   7.1700000000000000E-002     1.3941296339035034     
   7.1999999999999995E-002    0.68743824958801270     
   7.2300000000000003E-002    -2.8874002397060394E-002
   7.2600000000000012E-002   -0.72608232498168945     
   7.2900000000000006E-002    -1.3778544664382935     
   7.3200000000000001E-002    -1.9643796682357788     
   7.3499999999999996E-002    -2.4725384712219238     
   7.3800000000000004E-002    -2.8962976932525635     
   7.4099999999999999E-002    -3.2375037670135498     
   7.4400000000000008E-002    -3.5040776729583740     
   7.4700000000000003E-002    -3.7080688476562500     
   7.5000000000000011E-002    -3.8631079196929932     
   7.5299999999999992E-002    -3.9824442863464355     
   7.5600000000000001E-002    -4.0761966705322266     
   7.5900000000000009E-002    -4.1486968994140625     
   7.6200000000000004E-002    -4.1994323730468750     
   7.6499999999999999E-002    -4.2212643623352051     
   7.6800000000000007E-002    -4.2014379501342773     
   7.7099999999999988E-002    -4.1259202957153320     
   7.7399999999999997E-002    -3.9787912368774414     
   7.7700000000000005E-002    -3.7457036972045898     
   7.8000000000000014E-002    -3.4188590049743652     
   7.8299999999999995E-002    -2.9959216117858887     
   7.8600000000000003E-002    -2.4824368953704834     
   7.8900000000000012E-002    -1.8942900896072388     
   7.9199999999999993E-002    -1.2528865337371826     
   7.9500000000000001E-002   -0.58605533838272095     
   7.9800000000000010E-002     7.4518710374832153E-002
   8.0100000000000018E-002    0.69920235872268677     
   8.0399999999999999E-002     1.2607532739639282     
   8.0700000000000008E-002     1.7385581731796265     
   8.1000000000000003E-002     2.1218347549438477     
   8.1299999999999997E-002     2.4082200527191162     
   8.1600000000000006E-002     2.6056585311889648     
   8.1900000000000014E-002     2.7305541038513184     
   8.2199999999999995E-002     2.8046135902404785     
   8.2500000000000004E-002     2.8523573875427246     
   8.2799999999999999E-002     2.8969597816467285     
   8.3100000000000007E-002     2.9569160938262939     
   8.3400000000000002E-002     3.0440535545349121     
   8.3700000000000011E-002     3.1601607799530029     
   8.4000000000000005E-002     3.2981348037719727     
   8.4300000000000000E-002     3.4420845508575439     
   8.4599999999999995E-002     3.5686838626861572     
   8.4900000000000003E-002     3.6520907878875732     
   8.5199999999999998E-002     3.6663804054260254     
   8.5500000000000007E-002     3.5886535644531250     
   8.5800000000000001E-002     3.4043257236480713     
   8.6100000000000010E-002     3.1078186035156250     
   8.6399999999999991E-002     2.7037656307220459     
   8.6699999999999999E-002     2.2086868286132812     
   8.7000000000000008E-002     1.6488025188446045     
   8.7300000000000003E-002     1.0561993122100830     
   8.7599999999999997E-002    0.46746844053268433     
   8.7900000000000006E-002    -8.1936523318290710E-002
   8.8200000000000014E-002   -0.56099003553390503     
   8.8499999999999995E-002   -0.94760042428970337     
   8.8800000000000004E-002    -1.2315814495086670     
   8.9100000000000013E-002    -1.4173763990402222     
   8.9399999999999993E-002    -1.5248438119888306     
   8.9700000000000002E-002    -1.5876497030258179     
   9.0000000000000011E-002    -1.6531779766082764     
   9.0299999999999991E-002    -1.7768095731735229     
   9.0600000000000000E-002    -2.0162432193756104     
   9.0900000000000009E-002    -2.4258561134338379     
   9.1200000000000017E-002    -3.0485451221466064     
   9.1499999999999998E-002    -3.9061720371246338     
   9.1800000000000007E-002    -4.9946885108947754     
   9.2100000000000001E-002    -6.2766394615173340     
   9.2399999999999996E-002    -7.6786184310913086     
   9.2700000000000005E-002    -9.0930070877075195     
   9.3000000000000013E-002    -10.381071090698242     
   9.3300000000000008E-002    -11.383149147033691     
   9.3600000000000003E-002    -11.932646751403809     
   9.3899999999999997E-002    -11.872410774230957     
   9.4200000000000006E-002    -11.073524475097656     
   9.4500000000000001E-002    -9.4545440673828125     
   9.4800000000000009E-002    -6.9975652694702148     
   9.5100000000000004E-002    -3.7599415779113770     
   9.5399999999999999E-002    0.12113176286220551     
   9.5699999999999993E-002     4.4301919937133789     
   9.6000000000000002E-002     8.8863077163696289     
   9.6300000000000011E-002     13.162471771240234     
   9.6600000000000005E-002     16.910945892333984     
   9.6900000000000000E-002     19.795848846435547     
   9.7200000000000009E-002     21.524740219116211     
   9.7499999999999989E-002     21.876066207885742     
   9.7799999999999998E-002     20.727094650268555     
   9.8100000000000007E-002     18.069726943969727     
   9.8400000000000015E-002     14.013539314270020     
   9.8699999999999996E-002     8.7843084335327148     
   9.9000000000000005E-002     2.7080135345458984     
   9.9300000000000013E-002    -3.8170170783996582     
   9.9599999999999994E-002    -10.348643302917480     
   9.9900000000000003E-002    -16.436180114746094     
  0.10020000000000001         -21.658365249633789     
  0.10049999999999999         -25.652696609497070     
  0.10080000000000000         -28.142240524291992     
  0.10110000000000001         -28.954366683959961     
  0.10140000000000000         -28.028852462768555     
  0.10170000000000000         -25.415624618530273     
  0.10200000000000001         -21.268627166748047     
  0.10230000000000002         -15.828464508056641     
  0.10260000000000000         -9.4006538391113281     
  0.10290000000000001         -2.3352751731872559     
  0.10320000000000000          4.9985194206237793     
  0.10350000000000001          12.235419273376465     
  0.10380000000000000          19.030662536621094     
  0.10410000000000001          25.077423095703125     
  0.10440000000000001          30.120969772338867     
  0.10470000000000000          33.963062286376953     
  0.10500000000000000          36.467658996582031     
  0.10530000000000000          37.566200256347656     
  0.10560000000000000          37.251327514648438     
  0.10590000000000001          35.576076507568359     
  0.10620000000000000          32.649436950683594     
  0.10650000000000001          28.626701354980469     
  0.10679999999999999          23.701732635498047     
  0.10710000000000000          18.097539901733398     
  0.10740000000000001          12.052017211914062     
  0.10770000000000000          5.8101944923400879     
  0.10800000000000000        -0.39173233509063721     
  0.10830000000000001         -6.3358950614929199     
  0.10859999999999999         -11.828090667724609     
  0.10890000000000000         -16.713825225830078     
  0.10920000000000001         -20.875837326049805     
  0.10950000000000001         -24.236448287963867     
  0.10979999999999999         -26.763265609741211     
  0.11009999999999999         -28.457891464233398     
  0.11040000000000001         -29.354442596435547     
  0.11070000000000001         -29.515321731567383     
  0.11100000000000000         -29.018674850463867     
  0.11130000000000000         -27.955144882202148     
  0.11160000000000002         -26.420946121215820     
  0.11190000000000001         -24.508098602294922     
  0.11220000000000001         -22.305664062500000     
  0.11250000000000000         -19.893121719360352     
  0.11280000000000000         -17.336936950683594     
  0.11309999999999999         -14.695240974426270     
  0.11340000000000001         -12.011531829833984     
  0.11369999999999998         -9.3215675354003906     
  0.11400000000000000         -6.6524586677551270     
  0.11430000000000000         -4.0224456787109375     
  0.11460000000000002         -1.4485579729080200     
  0.11489999999999999          1.0550541877746582     
  0.11520000000000001          3.4773650169372559     
  0.11550000000000001          5.8006143569946289     
  0.11580000000000000          8.0091009140014648     
  0.11609999999999999          10.084255218505859     
  0.11640000000000002          12.000003814697266     
  0.11670000000000001          13.733653068542480     
  0.11700000000000001          15.259781837463379     
  0.11730000000000000          16.548561096191406     
  0.11760000000000000          17.576217651367188     
  0.11789999999999999          18.321784973144531     
  0.11820000000000001          18.764934539794922     
  0.11850000000000001          18.893194198608398     
  0.11880000000000000          18.700323104858398     
  0.11910000000000000          18.184904098510742     
  0.11940000000000002          17.354608535766602     
  0.11970000000000001          16.225477218627930     
  0.12000000000000001          14.817408561706543     
  0.12030000000000000          13.160361289978027     
  0.12060000000000000          11.294407844543457     
  0.12089999999999999          9.2591829299926758     
  0.12119999999999999          7.1043424606323242     
  0.12150000000000001          4.8877429962158203     
  0.12180000000000001          2.6627764701843262     
  0.12210000000000000         0.48801833391189575     
  0.12239999999999999         -1.5761144161224365     
  0.12270000000000002         -3.4806687831878662     
  0.12300000000000001         -5.1762890815734863     
  0.12330000000000001         -6.6243495941162109     
  0.12360000000000000         -7.8009386062622070     
  0.12390000000000000         -8.6907129287719727     
  0.12419999999999999         -9.2921791076660156     
  0.12450000000000001         -9.6201210021972656     
  0.12480000000000001         -9.6981010437011719     
  0.12509999999999999         -9.5626907348632812     
  0.12540000000000001         -9.2560682296752930     
  0.12570000000000003         -8.8252401351928711     
  0.12600000000000000         -8.3202953338623047     
  0.12630000000000002         -7.7846693992614746     
  0.12659999999999999         -7.2604618072509766     
  0.12690000000000001         -6.7802553176879883     
  0.12719999999999998         -6.3625917434692383     
  0.12750000000000000         -6.0211863517761230     
  0.12780000000000002         -5.7558803558349609     
  0.12809999999999999         -5.5497522354125977     
  0.12840000000000001         -5.3864111900329590     
  0.12869999999999998         -5.2361197471618652     
  0.12900000000000000         -5.0604691505432129     
  0.12930000000000003         -4.8280377388000488     
  0.12959999999999999         -4.5041499137878418     
  0.12990000000000002         -4.0541467666625977     
  0.13019999999999998         -3.4602975845336914     
  0.13050000000000000         -2.7103962898254395     
  0.13080000000000003         -1.8014591932296753     
  0.13109999999999999        -0.75176882743835449     
  0.13140000000000002         0.40890634059906006     
  0.13169999999999998          1.6413874626159668     
  0.13200000000000001          2.8904945850372314     
  0.13229999999999997          4.0940432548522949     
  0.13260000000000000          5.1897411346435547     
  0.13290000000000002          6.1140141487121582     
  0.13319999999999999          6.8109116554260254     
  0.13350000000000001          7.2401123046875000     
  0.13380000000000003          7.3740601539611816     
  0.13410000000000000          7.2063627243041992     
  0.13440000000000002          6.7561583518981934     
  0.13469999999999999          6.0583739280700684     
  0.13500000000000001          5.1672616004943848     
  0.13529999999999998          4.1552290916442871     
  0.13560000000000000          3.0992338657379150     
  0.13590000000000002          2.0777022838592529     
  0.13619999999999999          1.1660267114639282     
  0.13650000000000001         0.42610341310501099     
  0.13680000000000003         -9.7324810922145844E-002
  0.13710000000000000        -0.38133391737937927     
  0.13740000000000002        -0.42428100109100342     
  0.13769999999999999        -0.24762544035911560     
  0.13800000000000001         0.10552207380533218     
  0.13829999999999998         0.58110469579696655     
  0.13860000000000000          1.1114878654479980     
  0.13890000000000002          1.6253285408020020     
  0.13919999999999999          2.0599296092987061     
  0.13950000000000001          2.3541617393493652     
  0.13979999999999998          2.4640049934387207     
  0.14010000000000000          2.3671097755432129     
  0.14040000000000002          2.0497236251831055     
  0.14069999999999999          1.5229587554931641     
  0.14100000000000001         0.81969445943832397     
  0.14130000000000004         -2.4547517299652100E-002
  0.14160000000000000        -0.95522075891494751     
  0.14189999999999997         -1.9100816249847412     
  0.14219999999999999         -2.8348696231842041     
  0.14250000000000002         -3.6677727699279785     
  0.14279999999999998         -4.3559622764587402     
  0.14310000000000000         -4.8617467880249023     
  0.14339999999999997         -5.1519470214843750     
  0.14369999999999999         -5.2101507186889648     
  0.14400000000000002         -5.0373659133911133     
  0.14429999999999998         -4.6413245201110840     
  0.14460000000000001         -4.0498094558715820     
  0.14490000000000003         -3.2998712062835693     
  0.14520000000000000         -2.4335091114044189     
  0.14550000000000002         -1.5050446987152100     
  0.14579999999999999        -0.56833374500274658     
  0.14610000000000001         0.32498255372047424     
  0.14640000000000003          1.1229542493820190     
  0.14670000000000000          1.7840157747268677     
  0.14699999999999996          2.2757906913757324     
  0.14729999999999999          2.5759351253509521     
  0.14760000000000001          2.6787662506103516     
  0.14789999999999998          2.5875053405761719     
  0.14820000000000000          2.3205597400665283     