  -1.4999999999999999E-002     0.0000000000000000     
  -1.4700000000000000E-002     0.0000000000000000     
  -1.4400000000000000E-002     0.0000000000000000     
  -1.4100000000000000E-002     0.0000000000000000     
  -1.3800000000000000E-002     0.0000000000000000     
  -1.3500000000000000E-002     0.0000000000000000     
  -1.3200000000000000E-002     0.0000000000000000     
  -1.2899999999999998E-002     0.0000000000000000     
  -1.2600000000000000E-002     0.0000000000000000     
  -1.2299999999999998E-002     0.0000000000000000     
  -1.2000000000000000E-002     0.0000000000000000     
  -1.1699999999999999E-002     0.0000000000000000     
  -1.1399999999999999E-002     0.0000000000000000     
  -1.1099999999999999E-002     0.0000000000000000     
  -1.0799999999999999E-002     0.0000000000000000     
  -1.0499999999999999E-002     0.0000000000000000     
  -1.0199999999999999E-002     0.0000000000000000     
  -9.8999999999999991E-003     0.0000000000000000     
  -9.5999999999999992E-003     0.0000000000000000     
  -9.2999999999999992E-003     0.0000000000000000     
  -8.9999999999999993E-003     0.0000000000000000     
  -8.6999999999999994E-003     0.0000000000000000     
  -8.3999999999999995E-003     0.0000000000000000     
  -8.0999999999999996E-003     0.0000000000000000     
  -7.7999999999999988E-003     0.0000000000000000     
  -7.4999999999999997E-003     0.0000000000000000     
  -7.1999999999999998E-003     0.0000000000000000     
  -6.8999999999999981E-003     0.0000000000000000     
  -6.5999999999999982E-003     0.0000000000000000     
  -6.3000000000000000E-003     0.0000000000000000     
  -6.0000000000000001E-003     0.0000000000000000     
  -5.6999999999999985E-003     0.0000000000000000     
  -5.3999999999999986E-003     0.0000000000000000     
  -5.1000000000000004E-003     0.0000000000000000     
  -4.7999999999999987E-003     0.0000000000000000     
  -4.5000000000000005E-003     0.0000000000000000     
  -4.1999999999999989E-003     0.0000000000000000     
  -3.8999999999999990E-003     0.0000000000000000     
  -3.5999999999999990E-003     0.0000000000000000     
  -3.2999999999999991E-003     0.0000000000000000     
  -2.9999999999999992E-003     0.0000000000000000     
  -2.6999999999999993E-003     0.0000000000000000     
  -2.3999999999999994E-003     0.0000000000000000     
  -2.0999999999999977E-003     0.0000000000000000     
  -1.7999999999999995E-003     0.0000000000000000     
  -1.4999999999999979E-003     0.0000000000000000     
  -1.1999999999999997E-003     0.0000000000000000     
  -8.9999999999999976E-004     0.0000000000000000     
  -5.9999999999999810E-004     0.0000000000000000     
  -2.9999999999999992E-004     0.0000000000000000     
   0.0000000000000000          0.0000000000000000     
   3.0000000000000165E-004     0.0000000000000000     
   5.9999999999999984E-004     0.0000000000000000     
   9.0000000000000149E-004     0.0000000000000000     
   1.2000000000000031E-003     0.0000000000000000     
   1.5000000000000013E-003     0.0000000000000000     
   1.8000000000000030E-003     0.0000000000000000     
   2.1000000000000012E-003     0.0000000000000000     
   2.3999999999999994E-003     0.0000000000000000     
   2.7000000000000010E-003     0.0000000000000000     
   2.9999999999999992E-003     0.0000000000000000     
   3.3000000000000008E-003     0.0000000000000000     
   3.6000000000000025E-003     0.0000000000000000     
   3.9000000000000007E-003     0.0000000000000000     
   4.2000000000000023E-003     0.0000000000000000     
   4.5000000000000005E-003     0.0000000000000000     
   4.7999999999999987E-003     0.0000000000000000     
   5.1000000000000004E-003     0.0000000000000000     
   5.4000000000000020E-003     0.0000000000000000     
   5.7000000000000037E-003     0.0000000000000000     
   5.9999999999999984E-003     0.0000000000000000     
   6.3000000000000000E-003     0.0000000000000000     
   6.6000000000000017E-003     0.0000000000000000     
   6.9000000000000034E-003     0.0000000000000000     
   7.2000000000000015E-003     0.0000000000000000     
   7.5000000000000032E-003     0.0000000000000000     
   7.8000000000000014E-003     0.0000000000000000     
   8.0999999999999996E-003     0.0000000000000000     
   8.4000000000000012E-003     0.0000000000000000     
   8.7000000000000029E-003     0.0000000000000000     
   9.0000000000000011E-003     0.0000000000000000     
   9.2999999999999992E-003     0.0000000000000000     
   9.6000000000000009E-003     0.0000000000000000     
   9.8999999999999991E-003     0.0000000000000000     
   1.0200000000000001E-002     0.0000000000000000     
   1.0500000000000002E-002     0.0000000000000000     
   1.0800000000000004E-002     0.0000000000000000     
   1.1099999999999999E-002     0.0000000000000000     
   1.1400000000000000E-002     0.0000000000000000     
   1.1700000000000002E-002     0.0000000000000000     
   1.2000000000000004E-002     0.0000000000000000     
   1.2300000000000002E-002     0.0000000000000000     
   1.2600000000000000E-002     0.0000000000000000     
   1.2900000000000002E-002     0.0000000000000000     
   1.3200000000000000E-002     0.0000000000000000     
   1.3500000000000002E-002     0.0000000000000000     
   1.3800000000000003E-002     0.0000000000000000     
   1.4100000000000001E-002     0.0000000000000000     
   1.4400000000000000E-002     0.0000000000000000     
   1.4700000000000001E-002     0.0000000000000000     
   1.4999999999999999E-002     0.0000000000000000     
   1.5300000000000001E-002     0.0000000000000000     
   1.5600000000000003E-002     0.0000000000000000     
   1.5899999999999997E-002     0.0000000000000000     
   1.6199999999999999E-002     0.0000000000000000     
   1.6500000000000001E-002     0.0000000000000000     
   1.6800000000000002E-002     0.0000000000000000     
   1.7100000000000004E-002     0.0000000000000000     
   1.7400000000000006E-002     0.0000000000000000     
   1.7700000000000000E-002     0.0000000000000000     
   1.8000000000000002E-002     0.0000000000000000     
   1.8300000000000004E-002     0.0000000000000000     
   1.8600000000000005E-002     0.0000000000000000     
   1.8900000000000000E-002     0.0000000000000000     
   1.9200000000000002E-002     0.0000000000000000     
   1.9500000000000003E-002     0.0000000000000000     
   1.9799999999999998E-002     0.0000000000000000     
   2.0100000000000000E-002     0.0000000000000000     
   2.0400000000000001E-002     0.0000000000000000     
   2.0700000000000003E-002     0.0000000000000000     
   2.0999999999999998E-002     0.0000000000000000     
   2.1299999999999999E-002     0.0000000000000000     
   2.1600000000000001E-002     0.0000000000000000     
   2.1900000000000003E-002     0.0000000000000000     
   2.2200000000000004E-002     0.0000000000000000     
   2.2500000000000006E-002     0.0000000000000000     
   2.2800000000000001E-002     0.0000000000000000     
   2.3100000000000002E-002     0.0000000000000000     
   2.3400000000000004E-002     0.0000000000000000     
   2.3699999999999999E-002     0.0000000000000000     
   2.4000000000000000E-002     0.0000000000000000     
   2.4300000000000002E-002     0.0000000000000000     
   2.4599999999999997E-002     0.0000000000000000     
   2.4900000000000005E-002     0.0000000000000000     
   2.5200000000000000E-002     0.0000000000000000     
   2.5499999999999995E-002     0.0000000000000000     
   2.5800000000000003E-002     0.0000000000000000     
   2.6099999999999998E-002     0.0000000000000000     
   2.6400000000000007E-002     0.0000000000000000     
   2.6700000000000002E-002     0.0000000000000000     
   2.6999999999999996E-002     0.0000000000000000     
   2.7300000000000005E-002     0.0000000000000000     
   2.7600000000000000E-002     0.0000000000000000     
   2.7900000000000008E-002     0.0000000000000000     
   2.8200000000000003E-002     0.0000000000000000     
   2.8499999999999998E-002     0.0000000000000000     
   2.8800000000000006E-002     0.0000000000000000     
   2.9100000000000001E-002     0.0000000000000000     
   2.9400000000000003E-002     0.0000000000000000     
   2.9700000000000004E-002     0.0000000000000000     
   3.0000000000000006E-002     0.0000000000000000     
   3.0300000000000001E-002     0.0000000000000000     
   3.0600000000000002E-002     0.0000000000000000     
   3.0900000000000004E-002     0.0000000000000000     
   3.1199999999999999E-002     0.0000000000000000     
   3.1500000000000007E-002     0.0000000000000000     
   3.1800000000000002E-002     0.0000000000000000     
   3.2099999999999997E-002     0.0000000000000000     
   3.2400000000000005E-002     0.0000000000000000     
   3.2700000000000000E-002     0.0000000000000000     
   3.3000000000000002E-002     0.0000000000000000     
   3.3300000000000003E-002     0.0000000000000000     
   3.3599999999999998E-002     0.0000000000000000     
   3.3900000000000000E-002     0.0000000000000000     
   3.4200000000000001E-002     0.0000000000000000     
   3.4500000000000003E-002     0.0000000000000000     
   3.4799999999999998E-002     0.0000000000000000     
   3.5099999999999999E-002     0.0000000000000000     
   3.5400000000000001E-002     0.0000000000000000     
   3.5699999999999996E-002     0.0000000000000000     
   3.6000000000000004E-002     0.0000000000000000     
   3.6299999999999999E-002     0.0000000000000000     
   3.6600000000000008E-002     0.0000000000000000     
   3.6900000000000002E-002     0.0000000000000000     
   3.7199999999999997E-002     0.0000000000000000     
   3.7500000000000006E-002     0.0000000000000000     
   3.7800000000000000E-002     0.0000000000000000     
   3.8100000000000009E-002     0.0000000000000000     
   3.8400000000000004E-002     0.0000000000000000     
   3.8699999999999998E-002    -4.7620126168248939E-037
   3.9000000000000007E-002     1.9434755033592195E-036
   3.9300000000000002E-002     1.0357122595850228E-035
   3.9600000000000003E-002    -9.1686550462659970E-035
   3.9900000000000005E-002    -1.1031812444375621E-033
   4.0200000000000000E-002     9.8316143450868335E-033
   4.0500000000000001E-002    -2.9437699316131152E-032
   4.0800000000000003E-002     8.3323177326398633E-032
   4.1100000000000005E-002    -2.3316739188673438E-031
   4.1399999999999999E-002     5.6400200144543741E-031
   4.1700000000000008E-002    -9.6025813784209243E-031
   4.2000000000000003E-002    -4.5018725297509317E-031
   4.2299999999999997E-002     1.5326472256529632E-029
   4.2600000000000006E-002    -1.0025064204377646E-028
   4.2900000000000001E-002     4.9530190011626235E-028
   4.3200000000000002E-002    -2.1266081853254915E-027
   4.3500000000000004E-002     8.2997326952065948E-027
   4.3799999999999999E-002    -3.0042232994362547E-026
   4.4100000000000000E-002     1.0202187710613288E-025
   4.4400000000000002E-002    -3.2793793390320245E-025
   4.4700000000000004E-002     1.0071049938919676E-024
   4.4999999999999998E-002    -2.9901632589591776E-024
   4.5300000000000000E-002     8.7151498985690115E-024
   4.5600000000000002E-002    -2.5361486827846540E-023
   4.5899999999999996E-002     7.4685664948176205E-023
   4.6200000000000005E-002    -2.2334520249430408E-022
   4.6500000000000000E-002     6.7236515791224057E-022
   4.6799999999999994E-002    -2.0050155267882148E-021
   4.7100000000000003E-002     5.8333935981008080E-021
   4.7399999999999998E-002    -1.6452257260987461E-020
   4.7700000000000006E-002     4.5399203690384848E-020
   4.8000000000000001E-002    -1.2635570305189925E-019
   4.8300000000000010E-002     3.7125411685149591E-019
   4.8600000000000004E-002    -1.1855646779525993E-018
   4.8899999999999999E-002     4.0256320288960005E-018
   4.9200000000000008E-002    -1.3643315191380176E-017
   4.9500000000000002E-002     4.2850563003537601E-017
   4.9800000000000011E-002    -1.1380721444418979E-016
   5.0100000000000006E-002     2.0299569420911915E-016
   5.0400000000000000E-002     1.3283329497519548E-016
   5.0700000000000009E-002    -3.4518547129138528E-015
   5.1000000000000004E-002     2.0491895398426496E-014
   5.1299999999999998E-002    -8.7479001364791642E-014
   5.1600000000000007E-002     3.0157967052454882E-013
   5.1900000000000002E-002    -8.4254879548911754E-013
   5.2200000000000010E-002     1.7429669903548661E-012
   5.2500000000000005E-002    -1.4936901542028647E-012
   5.2800000000000000E-002    -7.8130097877493476E-012
   5.3099999999999994E-002     5.1342659290742887E-011
   5.3400000000000003E-002    -1.7893783677003228E-010
   5.3699999999999998E-002     4.0289854785768853E-010
   5.4000000000000006E-002    -3.6280195514493130E-010
   5.4300000000000001E-002    -1.5385609453133497E-009
   5.4599999999999996E-002     8.7367677537031341E-009
   5.4900000000000004E-002    -2.1564623864378518E-008
   5.5199999999999999E-002     1.4797391756360412E-008
   5.5499999999999994E-002     9.6330154519819189E-008
   5.5800000000000002E-002    -3.7696335652981361E-007
   5.6099999999999997E-002     3.7425465393425839E-007
   5.6400000000000006E-002     1.4083716450841166E-006
   5.6700000000000000E-002    -5.0140220082539599E-006
   5.6999999999999995E-002    -1.5778048236825271E-006
   5.7300000000000004E-002     4.0629387513035908E-005
   5.7599999999999998E-002     8.6968721006996930E-005
   5.7900000000000007E-002     9.4321265351027250E-005
   5.8200000000000002E-002     1.0000747715821490E-004
   5.8499999999999996E-002     1.5050785441417247E-004
   5.8800000000000005E-002     2.4917081464082003E-004
   5.9100000000000000E-002     3.9075600216165185E-004
   5.9400000000000008E-002     5.8479874860495329E-004
   5.9700000000000003E-002     8.5773400496691465E-004
   6.0000000000000012E-002     1.2486880877986550E-003
   6.0300000000000006E-002     1.8009727355092764E-003
   6.0600000000000001E-002     2.5492419954389334E-003
   6.0900000000000010E-002     3.5439338535070419E-003
   6.1200000000000004E-002     4.8362794332206249E-003
   6.1500000000000013E-002     6.4766551367938519E-003
   6.1800000000000008E-002     8.5182888433337212E-003
   6.2100000000000002E-002     1.0957999154925346E-002
   6.2399999999999997E-002     1.3769758865237236E-002
   6.2700000000000006E-002     1.6870241612195969E-002
   6.3000000000000000E-002     2.0085860043764114E-002
   6.3300000000000009E-002     2.3156899958848953E-002
   6.3600000000000004E-002     2.5647757574915886E-002
   6.3899999999999998E-002     2.6979137212038040E-002
   6.4199999999999993E-002     2.6417808607220650E-002
   6.4500000000000002E-002     2.3044135421514511E-002
   6.4800000000000010E-002     1.5821473672986031E-002
   6.5100000000000005E-002     3.6495430395007133E-003
   6.5400000000000000E-002    -1.4598841778934002E-002
   6.5700000000000008E-002    -3.9913147687911987E-002
   6.5999999999999989E-002    -7.2922125458717346E-002
   6.6299999999999998E-002   -0.11381930112838745     
   6.6600000000000006E-002   -0.16211603581905365     
   6.6900000000000001E-002   -0.21641087532043457     
   6.7199999999999996E-002   -0.27432659268379211     
   6.7500000000000004E-002   -0.33233639597892761     
   6.7800000000000013E-002   -0.38578215241432190     
   6.8099999999999994E-002   -0.42910137772560120     
   6.8400000000000002E-002   -0.45606058835983276     
   6.8700000000000011E-002   -0.46009433269500732     
   6.8999999999999992E-002   -0.43495213985443115     
   6.9300000000000000E-002   -0.37536317110061646     
   6.9600000000000009E-002   -0.27767935395240784     
   6.9900000000000004E-002   -0.14060285687446594     
   7.0199999999999999E-002     3.4271311014890671E-002
   7.0500000000000007E-002    0.24206088483333588     
   7.0800000000000016E-002    0.47446253895759583     
   7.1099999999999997E-002    0.72000241279602051     
   7.1400000000000005E-002    0.96454095840454102     
   7.1700000000000000E-002     1.1921491622924805     
   7.1999999999999995E-002     1.3862950801849365     
   7.2300000000000003E-002     1.5311168432235718     
   7.2600000000000012E-002     1.6128433942794800     
   7.2900000000000006E-002     1.6211367845535278     
   7.3200000000000001E-002     1.5501879453659058     
   7.3499999999999996E-002     1.3994607925415039     
   7.3800000000000004E-002     1.1739920377731323     
   7.4099999999999999E-002    0.88426619768142700     
   7.4400000000000008E-002    0.54553508758544922     
   7.4700000000000003E-002    0.17662712931632996     
   7.5000000000000011E-002   -0.20137640833854675     
   7.5299999999999992E-002   -0.56686782836914062     
   7.5600000000000001E-002   -0.89939761161804199     
   7.5900000000000009E-002    -1.1813410520553589     
   7.6200000000000004E-002    -1.3990751504898071     
   7.6499999999999999E-002    -1.5440070629119873     
   7.6800000000000007E-002    -1.6130259037017822     
   7.7099999999999988E-002    -1.6086138486862183     
   7.7399999999999997E-002    -1.5383905172348022     
   7.7700000000000005E-002    -1.4140322208404541     
   7.8000000000000014E-002    -1.2502553462982178     
   7.8299999999999995E-002    -1.0635781288146973     
   7.8600000000000003E-002   -0.87073856592178345     
   7.8900000000000012E-002   -0.68720895051956177     
   7.9199999999999993E-002   -0.52622365951538086     
   7.9500000000000001E-002   -0.39773121476173401     
   7.9800000000000010E-002   -0.30778446793556213     
   8.0100000000000018E-002   -0.25827395915985107     
   8.0399999999999999E-002   -0.24690967798233032     
   8.0700000000000008E-002   -0.26781067252159119     
   8.1000000000000003E-002   -0.31217640638351440     
   8.1299999999999997E-002   -0.36908000707626343     
   8.1600000000000006E-002   -0.42653229832649231     
   8.1900000000000014E-002   -0.47259429097175598     
   8.2199999999999995E-002   -0.49647620320320129     
   8.2500000000000004E-002   -0.48933875560760498     
   8.2799999999999999E-002   -0.44497331976890564     
   8.3100000000000007E-002   -0.36042368412017822     
   8.3400000000000002E-002   -0.23607026040554047     
   8.3700000000000011E-002    -7.5768515467643738E-002
   8.4000000000000005E-002    0.11373010277748108     
   8.4300000000000000E-002    0.32323110103607178     
   8.4599999999999995E-002    0.54157483577728271     
   8.4900000000000003E-002    0.75691533088684082     
   8.5199999999999998E-002    0.95715540647506714     
   8.5500000000000007E-002     1.1310012340545654     
   8.5800000000000001E-002     1.2688436508178711     
   8.6100000000000010E-002     1.3632887601852417     
   8.6399999999999991E-002     1.4094049930572510     
   8.6699999999999999E-002     1.4051476716995239     
   8.7000000000000008E-002     1.3517084121704102     
   8.7300000000000003E-002     1.2529408931732178     
   8.7599999999999997E-002     1.1151174306869507     
   8.7900000000000006E-002    0.94643574953079224     
   8.8200000000000014E-002    0.75647151470184326     
   8.8499999999999995E-002    0.55571579933166504     
   8.8800000000000004E-002    0.35471105575561523     
   8.9100000000000013E-002    0.16320540010929108     
   8.9399999999999993E-002    -1.0217564180493355E-002
   8.9700000000000002E-002   -0.15837585926055908     
   9.0000000000000011E-002   -0.27608934044837952     
   9.0299999999999991E-002   -0.36041536927223206     
   9.0600000000000000E-002   -0.41067984700202942     
   9.0900000000000009E-002   -0.42842102050781250     
   9.1200000000000017E-002   -0.41683885455131531     
   9.1499999999999998E-002   -0.38088491559028625     
   9.1800000000000007E-002   -0.32685440778732300     
   9.2100000000000001E-002   -0.26166349649429321     
   9.2399999999999996E-002   -0.19236609339714050     
   9.2700000000000005E-002   -0.12565800547599792     
   9.3000000000000013E-002    -6.7603126168251038E-002
   9.3300000000000008E-002    -2.3085851222276688E-002
   9.3600000000000003E-002     4.5407363213598728E-003
   9.3899999999999997E-002     1.3844106346368790E-002
   9.4200000000000006E-002     5.1217675209045410E-003
   9.4500000000000001E-002    -1.9837692379951477E-002
   9.4800000000000009E-002    -5.7559072971343994E-002
   9.5100000000000004E-002   -0.10334080457687378     
   9.5399999999999999E-002   -0.15181197226047516     
   9.5699999999999993E-002   -0.19748403131961823     
   9.6000000000000002E-002   -0.23522673547267914     
   9.6300000000000011E-002   -0.26069355010986328     
   9.6600000000000005E-002   -0.27078744769096375     
   9.6900000000000000E-002   -0.26405623555183411     
   9.7200000000000009E-002   -0.24087494611740112     
   9.7499999999999989E-002   -0.20337486267089844     
   9.7799999999999998E-002   -0.15506812930107117     
   9.8100000000000007E-002   -0.10061521083116531     
   9.8400000000000015E-002    -4.5601293444633484E-002
   9.8699999999999996E-002     4.3884925544261932E-003
   9.9000000000000005E-002     4.4253330677747726E-002
   9.9300000000000013E-002     6.9790929555892944E-002
   9.9599999999999994E-002     7.8404128551483154E-002
   9.9900000000000003E-002     6.9030717015266418E-002
  0.10020000000000001          4.2394272983074188E-002
  0.10049999999999999          1.1926454026252031E-003
  0.10080000000000000         -5.0387088209390640E-002
  0.10110000000000001        -0.10720801353454590     
  0.10140000000000000        -0.16361379623413086     
  0.10170000000000000        -0.21390052139759064     
  0.10200000000000001        -0.25310578942298889     
  0.10230000000000002        -0.27746635675430298     
  0.10260000000000000        -0.28493621945381165     
  0.10290000000000001        -0.27551075816154480     
  0.10320000000000000        -0.25092679262161255     
  0.10350000000000001        -0.21476450562477112     
  0.10380000000000000        -0.17204177379608154     
  0.10410000000000001        -0.12860089540481567     
  0.10440000000000001         -9.0483903884887695E-002
  0.10470000000000000         -6.2943413853645325E-002
  0.10500000000000000         -5.0007484853267670E-002
  0.10530000000000000         -5.3843934088945389E-002
  0.10560000000000000         -7.4291937053203583E-002
  0.10590000000000001        -0.10878932476043701     
  0.10620000000000000        -0.15238967537879944     
  0.10650000000000001        -0.19830273091793060     
  0.10679999999999999        -0.23853017389774323     
  0.10710000000000000        -0.26464420557022095     
  0.10740000000000001        -0.26867091655731201     
  0.10770000000000000        -0.24414114654064178     
  0.10800000000000000        -0.18674725294113159     
  0.10830000000000001         -9.4967514276504517E-002
  0.10859999999999999          2.9391730204224586E-002
  0.10890000000000000         0.18153068423271179     
  0.10920000000000001         0.35383048653602600     
  0.10950000000000001         0.53631711006164551     
  0.10979999999999999         0.71756213903427124     
  0.11009999999999999         0.88553547859191895     
  0.11040000000000001          1.0287959575653076     
  0.11070000000000001          1.1375243663787842     
  0.11100000000000000          1.2038902044296265     
  0.11130000000000000          1.2228245735168457     
  0.11160000000000002          1.1925122737884521     
  0.11190000000000001          1.1142708063125610     
  0.11220000000000001         0.99230784177780151     
  0.11250000000000000         0.83307772874832153     
  0.11280000000000000         0.64484077692031860     
  0.11309999999999999         0.43676447868347168     
  0.11340000000000001         0.21832557022571564     
  0.11369999999999998         -1.6466416418552399E-003
  0.11400000000000000        -0.21536442637443542     
  0.11430000000000000        -0.41653555631637573     
  0.11460000000000002        -0.60048079490661621     
  0.11489999999999999        -0.76391428709030151     
  0.11520000000000001        -0.90496510267257690     
  0.11550000000000001         -1.0226955413818359     
  0.11580000000000000         -1.1165173053741455     
  0.11609999999999999         -1.1859211921691895     
  0.11640000000000002         -1.2300676107406616     
  0.11670000000000001         -1.2475161552429199     
  0.11700000000000001         -1.2364705801010132     
  0.11730000000000000         -1.1948482990264893     
  0.11760000000000000         -1.1206202507019043     
  0.11789999999999999         -1.0123393535614014     
  0.11820000000000001        -0.86970192193984985     
  0.11850000000000001        -0.69429332017898560     
  0.11880000000000000        -0.48976448178291321     
  0.11910000000000000        -0.26186612248420715     
  0.11940000000000002         -1.8532425165176392E-002
  0.11970000000000001         0.23038519918918610     
  0.12000000000000001         0.47369009256362915     
  0.12030000000000000         0.69998705387115479     
  0.12060000000000000         0.89853847026824951     
  0.12089999999999999          1.0600469112396240     
  0.12119999999999999          1.1771655082702637     
  0.12150000000000001          1.2457150220870972     
  0.12180000000000001          1.2647149562835693     
  0.12210000000000000          1.2363702058792114     
  0.12239999999999999          1.1656689643859863     
  0.12270000000000002          1.0596176385879517     
  0.12300000000000001         0.92674809694290161     
  0.12330000000000001         0.77613472938537598     
  0.12360000000000000         0.61631554365158081     
  0.12390000000000000         0.45435494184494019     
  0.12419999999999999         0.29572710394859314     
  0.12450000000000001         0.14382940530776978     
  0.12480000000000001         -1.5553086996078491E-007
  0.12509999999999999        -0.13609352707862854     
  0.12540000000000001        -0.26619547605514526     
  0.12570000000000003        -0.39251893758773804     
  0.12600000000000000        -0.51704335212707520     
  0.12630000000000002        -0.64089983701705933     
  0.12659999999999999        -0.76402086019515991     
  0.12690000000000001        -0.88492989540100098     
  0.12719999999999998         -1.0004670619964600     
  0.12750000000000000         -1.1059383153915405     
  0.12780000000000002         -1.1956777572631836     
  0.12809999999999999         -1.2637665271759033     
  0.12840000000000001         -1.3044010400772095     
  0.12869999999999998         -1.3123219013214111     
  0.12900000000000000         -1.2834467887878418     
  0.12930000000000003         -1.2154567241668701     
  0.12959999999999999         -1.1081045866012573     
  0.12990000000000002        -0.96281272172927856     
  0.13019999999999998        -0.78282403945922852     
  0.13050000000000000        -0.57337772846221924     
  0.13080000000000003        -0.34127682447433472     
  0.13109999999999999         -9.4391882419586182E-002
  0.13140000000000002         0.15839600563049316     
  0.13169999999999998         0.40750548243522644     
  0.13200000000000001         0.64301002025604248     
  0.13229999999999997         0.85486292839050293     
  0.13260000000000000          1.0334705114364624     
  0.13290000000000002          1.1700538396835327     
  0.13319999999999999          1.2567782402038574     
  0.13350000000000001          1.2875669002532959     
  0.13380000000000003          1.2587223052978516     
  0.13410000000000000          1.1692439317703247     
  0.13440000000000002          1.0211074352264404     
  0.13469999999999999         0.81987166404724121     
  0.13500000000000001         0.57474398612976074     
  0.13529999999999998         0.29832178354263306     
  0.13560000000000000          6.0499329119920731E-003
  0.13590000000000002        -0.28441166877746582     
  0.13619999999999999        -0.55417782068252563     
  0.13650000000000001        -0.78442007303237915     
  0.13680000000000003        -0.95783346891403198     
  0.13710000000000000         -1.0601422786712646     
  0.13740000000000002         -1.0812320709228516     
  0.13769999999999999         -1.0161646604537964     
  0.13800000000000001        -0.86607998609542847     
  0.13829999999999998        -0.63816231489181519     
  0.13860000000000000        -0.34548392891883850     
  0.13890000000000002         -6.2641017138957977E-003
  0.13919999999999999         0.35752642154693604     
  0.13950000000000001         0.72184371948242188     
  0.13979999999999998          1.0625244379043579     
  0.14010000000000000          1.3567578792572021     
  0.14040000000000002          1.5851149559020996     
  0.14069999999999999          1.7330905199050903     
  0.14100000000000001          1.7921248674392700     
  0.14130000000000004          1.7600563764572144     
  0.14160000000000000          1.6408596038818359     
  0.14189999999999997          1.4442976713180542     
  0.14219999999999999          1.1850725412368774     
  0.14250000000000002         0.88149797916412354     
  0.14279999999999998         0.55343800783157349     
  0.14310000000000000         0.22102522850036621     
  0.14339999999999997         -9.6343994140625000E-002
  0.14369999999999999        -0.38154077529907227     
  0.14400000000000002        -0.62066411972045898     
  0.14429999999999998        -0.80371797084808350     
  0.14460000000000001        -0.92457556724548340     
  0.14490000000000003        -0.98066729307174683     
  0.14520000000000000        -0.97305852174758911     
  0.14550000000000002        -0.90598714351654053     
  0.14579999999999999        -0.78628498315811157     
  0.14610000000000001        -0.62266284227371216     
  0.14640000000000003        -0.42516696453094482     
  0.14670000000000000        -0.20510922372341156     
  0.14699999999999996          2.5441188365221024E-002
  0.14729999999999999         0.25406014919281006     
  0.14760000000000001         0.46851077675819397     
  0.14789999999999998         0.65660190582275391     
  0.14820000000000000         0.80692553520202637     