  -1.4999999999999999E-002     0.0000000000000000     
  -1.4700000000000000E-002     5.1196978483087563E-006
  -1.4400000000000000E-002     3.0977644719777062E-006
  -1.4100000000000000E-002    -2.4577518752210667E-005
  -1.3800000000000000E-002    -4.8295811711106192E-005
  -1.3500000000000000E-002    -2.8185827414505579E-005
  -1.3200000000000000E-002     3.6830668888787306E-005
  -1.2899999999999998E-002     9.5077799590552784E-005
  -1.2600000000000000E-002     4.3430583826532403E-005
  -1.2299999999999998E-002    -9.7956684952229221E-005
  -1.2000000000000000E-002    -2.4917147773309122E-004
  -1.1699999999999999E-002    -3.2488317363990924E-004
  -1.1399999999999999E-002    -2.1639178670930168E-004
  -1.1099999999999999E-002    -2.6862479561416078E-005
  -1.0799999999999999E-002     1.6736230437350660E-004
  -1.0499999999999999E-002     3.1319677292745030E-004
  -1.0199999999999999E-002     4.0190718240288009E-004
  -9.8999999999999991E-003     6.4030363657542524E-004
  -9.5999999999999992E-003     1.0788226001775224E-003
  -9.2999999999999992E-003     1.7046220947972389E-003
  -8.9999999999999993E-003     2.6274700225786818E-003
  -8.6999999999999994E-003     4.0123945324187088E-003
  -8.3999999999999995E-003     6.4009378456271158E-003
  -8.0999999999999996E-003     1.0146632257108296E-002
  -7.7999999999999988E-003     1.5541336569562934E-002
  -7.4999999999999997E-003     2.2905894139788316E-002
  -7.1999999999999998E-003     3.2490974548006424E-002
  -6.8999999999999981E-003     4.5101879320786020E-002
  -6.5999999999999982E-003     6.0964203321200894E-002
  -6.3000000000000000E-003     8.0047409442312478E-002
  -6.0000000000000001E-003    0.10205996630420877     
  -5.6999999999999985E-003    0.12580437263921995     
  -5.3999999999999986E-003    0.14910331192813642     
  -5.1000000000000004E-003    0.16823875536688182     
  -4.7999999999999987E-003    0.17730599798226310     
  -4.5000000000000005E-003    0.16811552692081988     
  -4.1999999999999989E-003    0.12937228475825191     
  -3.8999999999999990E-003     4.6232632451038924E-002
  -3.5999999999999990E-003    -9.9305462246386256E-002
  -3.2999999999999991E-003   -0.32854143732723351     
  -2.9999999999999992E-003   -0.66492379116998990     
  -2.6999999999999993E-003    -1.1334339766236194     
  -2.3999999999999994E-003    -1.7576224771169571     
  -2.0999999999999977E-003    -2.5569167902819352     
  -1.7999999999999995E-003    -3.5435964296643014     
  -1.4999999999999979E-003    -4.7179349935446808     
  -1.1999999999999997E-003    -6.0640739860381920     
  -8.9999999999999976E-004    -7.5465564202489031     
  -5.9999999999999810E-004    -9.1053478997732942     
  -2.9999999999999992E-004    -10.655448761942681     
   0.0000000000000000         -12.087722048121485     
   3.0000000000000165E-004    -13.270903697506803     
   5.9999999999999984E-004    -14.056895545492608     
   9.0000000000000149E-004    -14.291593837474551     
   1.2000000000000031E-003    -13.827514055913923     
   1.5000000000000013E-003    -12.535935330420102     
   1.8000000000000030E-003    -10.324125153139875     
   2.1000000000000012E-003    -7.1495294578534043     
   2.3999999999999994E-003    -3.0322807183994911     
   2.7000000000000010E-003     1.9369390330826946     
   2.9999999999999992E-003     7.5914227173028621     
   3.3000000000000008E-003     13.694954359290023     
   3.6000000000000025E-003     19.950399554914782     
   3.9000000000000007E-003     26.018019999619298     
   4.2000000000000023E-003     31.538283707024164     
   4.5000000000000005E-003     36.158290314561754     
   4.7999999999999987E-003     39.561580985826396     
   5.1000000000000004E-003     41.492063503664667     
   5.4000000000000020E-003     41.777722383798562     
   5.7000000000000037E-003     40.347292607644704     
   5.9999999999999984E-003     37.237922349158794     
   6.3000000000000000E-003     32.590307556930497     
   6.6000000000000017E-003     26.638637263343639     
   6.9000000000000034E-003     19.695736114454348     
   7.2000000000000015E-003     12.123442078943810     
   7.5000000000000032E-003     4.3061083866410712     
   7.8000000000000014E-003    -3.3801173038237380     
   8.0999999999999996E-003    -10.591318178115330     
   8.4000000000000012E-003    -17.038804472351899     
   8.7000000000000029E-003    -22.503550671286121     
   9.0000000000000011E-003    -26.847201474671920     
   9.2999999999999992E-003    -30.010785012326664     
   9.6000000000000009E-003    -32.007079883227675     
   9.8999999999999991E-003    -32.910753760774341     
   1.0200000000000001E-002    -32.838231449023795     
   1.0500000000000002E-002    -31.938218059105736     
   1.0800000000000004E-002    -30.369782026226176     
   1.1099999999999999E-002    -28.287345486568938     
   1.1400000000000000E-002    -25.831225694010072     
   1.1700000000000002E-002    -23.116996990115013     
   1.2000000000000004E-002    -20.237377684819876     
   1.2300000000000002E-002    -17.261972837455744     
   1.2600000000000000E-002    -14.241269743210637     
   1.2900000000000002E-002    -11.208935078267587     
   1.3200000000000000E-002    -8.1929327265896177     
   1.3500000000000002E-002    -5.2234512354845037     
   1.3800000000000003E-002    -2.3355442036161698     
   1.4100000000000001E-002    0.42687213950686953     
   1.4400000000000000E-002     3.0152973932133023     
   1.4700000000000001E-002     5.3731000573837662     
   1.4999999999999999E-002     7.4403060271441177     
   1.5300000000000001E-002     9.1595397615457443     
   1.5600000000000003E-002     10.483639259412854     
   1.5899999999999997E-002     11.380533120218288     
   1.6199999999999999E-002     11.836807752867998     
   1.6500000000000001E-002     11.858604970239668     
   1.6800000000000002E-002     11.473647989633605     
   1.7100000000000004E-002     10.732582927778310     
   1.7400000000000006E-002     9.7029311945920540     
   1.7700000000000000E-002     8.4648742141279456     
   1.8000000000000002E-002     7.1049715362678683     
   1.8300000000000004E-002     5.7120636798605062     
   1.8600000000000005E-002     4.3710402635783652     
   1.8900000000000000E-002     3.1586666503783647     
   1.9200000000000002E-002     2.1354435123210322     
   1.9500000000000003E-002     1.3458146906589192     
   1.9799999999999998E-002    0.81521421409014394     
   2.0100000000000000E-002    0.54972846361827976     
   2.0400000000000001E-002    0.53655984293748915     
   2.0700000000000003E-002    0.74393633164433481     
   2.0999999999999998E-002     1.1260284945930721     
   2.1299999999999999E-002     1.6266230506629142     
   2.1600000000000001E-002     2.1841993258242454     
   2.1900000000000003E-002     2.7339056117136096     
   2.2200000000000004E-002     3.2148487703190085     
   2.2500000000000006E-002     3.5739082144531835     
   2.2800000000000001E-002     3.7709548981453906     
   2.3100000000000002E-002     3.7797993368187122     
   2.3400000000000004E-002     3.5878111439478033     
   2.3699999999999999E-002     3.2003154891091157     
   2.4000000000000000E-002     2.6377272383438282     
   2.4300000000000002E-002     1.9335771585913477     
   2.4599999999999997E-002     1.1302477998736755     
   2.4900000000000005E-002    0.27536018991535194     
   2.5200000000000000E-002   -0.57991742334476726     
   2.5499999999999995E-002    -1.3852652823180662     
   2.5800000000000003E-002    -2.0949073238737270     
   2.6099999999999998E-002    -2.6709305662277636     
   2.6400000000000007E-002    -3.0858548657373746     
   2.6700000000000002E-002    -3.3226228362202335     
   2.6999999999999996E-002    -3.3745927535126867     
   2.7300000000000005E-002    -3.2477886920934367     
   2.7600000000000000E-002    -2.9599033684125544     
   2.7900000000000008E-002    -2.5393166603229673     
   2.8200000000000003E-002    -2.0211972486141718     
   2.8499999999999998E-002    -1.4454408715295202     
   2.8800000000000006E-002   -0.85566263981632318     
   2.9100000000000001E-002   -0.29555598094931756     
   2.9400000000000003E-002    0.19470449349742580     
   2.9700000000000004E-002    0.58233066978190351     
   3.0000000000000006E-002    0.84429897346340965     
   3.0300000000000001E-002    0.96680051490916830     
   3.0600000000000002E-002    0.94613129011426089     
   3.0900000000000004E-002    0.79022748361159501     
   3.1199999999999999E-002    0.51870182299706968     
   3.1500000000000007E-002    0.15815751793830124     
   3.1800000000000002E-002   -0.26133704307604777     
   3.2099999999999997E-002   -0.70630936597381888     
   3.2400000000000005E-002    -1.1421356200821471     
   3.2700000000000000E-002    -1.5364860270412137     
   3.3000000000000002E-002    -1.8628946378164244     
   3.3300000000000003E-002    -2.1009666257404263     
   3.3599999999999998E-002    -2.2360858307524438     
   3.3900000000000000E-002    -2.2601164133340745     
   3.4200000000000001E-002    -2.1729627182251221     
   3.4500000000000003E-002    -1.9825753532382038     
   3.4799999999999998E-002    -1.7017194853547650     
   3.5099999999999999E-002    -1.3476379857558811     
   3.5400000000000001E-002   -0.94143989066033029     
   3.5699999999999996E-002   -0.50890874781111961     
   3.6000000000000004E-002    -7.6567161739224954E-002
   3.6299999999999999E-002    0.33217679758399399     
   3.6600000000000008E-002    0.69590297318237404     
   3.6900000000000002E-002    0.99640601844149579     
   3.7199999999999997E-002     1.2205844186725159     
   3.7500000000000006E-002     1.3627048481227675     
   3.7800000000000000E-002     1.4254758486799517     
   3.8100000000000009E-002     1.4162362267847683     
   3.8400000000000004E-002     1.3467209306581580     
   3.8699999999999998E-002     1.2329887326314548     
   3.9000000000000007E-002     1.0934341144316875     
   3.9300000000000002E-002    0.94453736401493416     
   3.9600000000000003E-002    0.79955868671160601     
   3.9900000000000005E-002    0.66781884659520685     
   4.0200000000000000E-002    0.55392783025862258     
   4.0500000000000001E-002    0.45807236937920770     
   4.0800000000000003E-002    0.37497399171954271     
   4.1100000000000005E-002    0.29772784759640292     
   4.1399999999999999E-002    0.21825633804610733     
   4.1700000000000008E-002    0.13060320759250377     
   4.2000000000000003E-002     3.1038023248852742E-002
   4.2299999999999997E-002    -7.9709074761711740E-002
   4.2600000000000006E-002   -0.19599969949309326     
   4.2900000000000001E-002   -0.30846368719192974     
   4.3200000000000002E-002   -0.40463558691531887     
   4.3500000000000004E-002   -0.47042308928286047     
   4.3799999999999999E-002   -0.49162092289356352     
   4.4100000000000000E-002   -0.45814404638806394     
   4.4400000000000002E-002   -0.36553812225754800     
   4.4700000000000004E-002   -0.21459446017946843     
   4.4999999999999998E-002    -1.1860606485656788E-002
   4.5300000000000000E-002    0.22855406087795072     
   4.5600000000000002E-002    0.48601199089632452     
   4.5899999999999996E-002    0.73573978114617766     
   4.6200000000000005E-002    0.95461694784653162     
   4.6500000000000000E-002     1.1211660497215163     
   4.6799999999999994E-002     1.2156266094836532     
   4.7100000000000003E-002     1.2232500432700384     
   4.7399999999999998E-002     1.1392811056437218     
   4.7700000000000006E-002    0.96961816913784737     
   4.8000000000000001E-002    0.72611482526211812     
   4.8300000000000010E-002    0.42511081325017130     
   4.8600000000000004E-002     8.7793723540951163E-002
   4.8899999999999999E-002   -0.25852181116442274     
   4.9200000000000008E-002   -0.58653637966133942     
   4.9500000000000002E-002   -0.87537061397142679     
   4.9800000000000011E-002    -1.1100088195469731     
   5.0100000000000006E-002    -1.2790402647077066     
   5.0400000000000000E-002    -1.3749342618873470     
   5.0700000000000009E-002    -1.3992231262670884     
   5.1000000000000004E-002    -1.3610801081443009     
   5.1299999999999998E-002    -1.2727310414092641     
   5.1600000000000007E-002    -1.1450555955567756     
   5.1900000000000002E-002   -0.98955849771633098     
   5.2200000000000010E-002   -0.81985789468407333     
   5.2500000000000005E-002   -0.64896090670622542     
   5.2800000000000000E-002   -0.48373953948717130     
   5.3099999999999994E-002   -0.32642255262323072     
   5.3400000000000003E-002   -0.18034390852381699     
   5.3699999999999998E-002    -4.8531740738143370E-002
   5.4000000000000006E-002     6.7648323901523533E-002
   5.4300000000000001E-002    0.17094121259654749     
   5.4599999999999996E-002    0.26491708919306056     
   5.4900000000000004E-002    0.34869347739163459     
   5.5199999999999999E-002    0.42011728542981785     
   5.5499999999999994E-002    0.48115831579364432     
   5.5800000000000002E-002    0.53514627406274151     
   5.6099999999999997E-002    0.58338700502163121     
   5.6400000000000006E-002    0.62423035635143465     
   5.6700000000000000E-002    0.65672798657120524     
   5.6999999999999995E-002    0.68355347297598623     
   5.7300000000000004E-002    0.70633349324232952     
   5.7599999999999998E-002    0.72361500463774675     
   5.7900000000000007E-002    0.73159269167384622     
   5.8200000000000002E-002    0.72785511340141795     
   5.8499999999999996E-002    0.71266014144751466     
   5.8800000000000005E-002    0.68531066008569397     
   5.9100000000000000E-002    0.64230547350842926     
   5.9400000000000008E-002    0.58119528709871204     
   5.9700000000000003E-002    0.50286232607464498     
   6.0000000000000012E-002    0.41062518766415579     
   6.0300000000000006E-002    0.30773393757470657     
   6.0600000000000001E-002    0.19610633856175763     
   6.0900000000000010E-002     7.8566942188350697E-002
   6.1200000000000004E-002    -4.0390460742393053E-002
   6.1500000000000013E-002   -0.15427807215798239     
   6.1800000000000008E-002   -0.25924597698705742     
   6.2100000000000002E-002   -0.35309818902265833     
   6.2399999999999997E-002   -0.43436859766976710     
   6.2700000000000006E-002   -0.50029806859271808     
   6.3000000000000000E-002   -0.54754349838002092     
   6.3300000000000009E-002   -0.57569729063138553     
   6.3600000000000004E-002   -0.58616413893063424     
   6.3899999999999998E-002   -0.57981550108191726     
   6.4199999999999993E-002   -0.55714208177360192     
   6.4500000000000002E-002   -0.51865766676442959     
   6.4800000000000010E-002   -0.46764958348748742     
   6.5100000000000005E-002   -0.40813060017197422     
   6.5400000000000000E-002   -0.34339208809190858     
   6.5700000000000008E-002   -0.27600030566351563     
   6.5999999999999989E-002   -0.20900434041620297     
   6.6299999999999998E-002   -0.14601793779132333     
   6.6600000000000006E-002    -8.9868715331792970E-002
   6.6900000000000001E-002    -4.2225730206652212E-002
   6.7199999999999996E-002    -3.2155683965460757E-003
   6.7500000000000004E-002     2.6765850875561603E-002
   6.7800000000000013E-002     4.8513479127303971E-002
   6.8099999999999994E-002     6.1765698833465721E-002
   6.8400000000000002E-002     6.8177921706455979E-002
   6.8700000000000011E-002     6.9840426969405248E-002
   6.8999999999999992E-002     6.8602028975300988E-002
   6.9300000000000000E-002     6.5120711311931867E-002
   6.9600000000000009E-002     5.9912576485554592E-002
   6.9900000000000004E-002     5.5181637765616021E-002
   7.0199999999999999E-002     5.3010178399082175E-002
   7.0500000000000007E-002     5.4631403829648484E-002
   7.0800000000000016E-002     5.8734552703524567E-002
   7.1099999999999997E-002     6.5556833446423379E-002
   7.1400000000000005E-002     7.7172261620720217E-002
   7.1700000000000000E-002     9.3759998580425385E-002
   7.1999999999999995E-002    0.11254190674903614     
   7.2300000000000003E-002    0.13016036227856143     
   7.2600000000000012E-002    0.14624345840942077     
   7.2900000000000006E-002    0.16177616370229231     
   7.3200000000000001E-002    0.17425964461317989     
   7.3499999999999996E-002    0.17938959051720182     
   7.3800000000000004E-002    0.17599439643998416     
   7.4099999999999999E-002    0.16623679211261599     
   7.4400000000000008E-002    0.15238197567141754     
   7.4700000000000003E-002    0.13310549906485214     
   7.5000000000000011E-002    0.10675639387035751     
   7.5299999999999992E-002     7.6418523848075903E-002
   7.5600000000000001E-002     4.6240734449708665E-002
   7.5900000000000009E-002     1.7433795695829327E-002
   7.6200000000000004E-002    -1.1225982571622550E-002
   7.6499999999999999E-002    -3.9732024388327070E-002
   7.6800000000000007E-002    -6.5216550778548266E-002
   7.7099999999999988E-002    -8.5742489972671088E-002
   7.7399999999999997E-002   -0.10210629180222019     
   7.7700000000000005E-002   -0.11521309076485720     
   7.8000000000000014E-002   -0.12427117501913454     
   7.8299999999999995E-002   -0.12819901100869791     
   7.8600000000000003E-002   -0.12676676787656538     
   7.8900000000000012E-002   -0.12048624408214170     
   7.9199999999999993E-002   -0.11033293139807299     
   7.9500000000000001E-002    -9.6990480613183383E-002
   7.9800000000000010E-002    -8.0990641845029021E-002
   8.0100000000000018E-002    -6.3549542380076263E-002
   8.0399999999999999E-002    -4.5302475698216417E-002
   8.0700000000000008E-002    -2.7777623254274908E-002
   8.1000000000000003E-002    -1.2295617400487902E-002
   8.1299999999999997E-002     6.6032123423356848E-004
   8.1600000000000006E-002     1.0936776096811596E-002
   8.1900000000000014E-002     1.8749872319352157E-002
   8.2199999999999995E-002     2.3871647533208806E-002
   8.2500000000000004E-002     2.6166688609032152E-002
   8.2799999999999999E-002     2.6046424775903021E-002
   8.3100000000000007E-002     2.4461395919824658E-002
   8.3400000000000002E-002     2.1557918765837542E-002
   8.3700000000000011E-002     1.8086546678582560E-002
   8.4000000000000005E-002     1.4624991018095890E-002
   8.4300000000000000E-002     1.1118556966087434E-002
   8.4599999999999995E-002     7.6566188335184249E-003
   8.4900000000000003E-002     5.3787746591362762E-003
   8.5199999999999998E-002     5.1843524602985802E-003
   8.5500000000000007E-002     6.5397431919190785E-003
   8.5800000000000001E-002     8.6266217183224025E-003
   8.6100000000000010E-002     1.1324190521513788E-002
   8.6399999999999991E-002     1.5770827396500375E-002
   8.6699999999999999E-002     2.1596376916090509E-002
   8.7000000000000008E-002     2.7041725915404990E-002
   8.7300000000000003E-002     3.1023556920994899E-002
   8.7599999999999997E-002     3.4208935027183918E-002
   8.7900000000000006E-002     3.7361406870788372E-002
   8.8200000000000014E-002     3.9338955405317844E-002
   8.8499999999999995E-002     3.9057457499148907E-002
   8.8800000000000004E-002     3.7648341899835791E-002
   8.9100000000000013E-002     3.6402463003148977E-002
   8.9399999999999993E-002     3.4596247534533386E-002
   8.9700000000000002E-002     3.1225137417114857E-002
   9.0000000000000011E-002     2.6883667884669449E-002
   9.0299999999999991E-002     2.2639500516035083E-002
   9.0600000000000000E-002     1.7468651486465009E-002
   9.0900000000000009E-002     1.0281386440845586E-002
   9.1200000000000017E-002     1.4345700804877619E-003
   9.1499999999999998E-002    -7.3892553375132231E-003
   9.1800000000000007E-002    -1.5884847737635988E-002
   9.2100000000000001E-002    -2.4967536037535987E-002
   9.2399999999999996E-002    -3.4043804113707554E-002
   9.2700000000000005E-002    -4.1188137977289596E-002
   9.3000000000000013E-002    -4.5239700034126473E-002
   9.3300000000000008E-002    -4.6865025759232903E-002
   9.3600000000000003E-002    -4.7189803335594194E-002
   9.3899999999999997E-002    -4.5720348587139581E-002
   9.4200000000000006E-002    -4.2368944848000023E-002
   9.4500000000000001E-002    -3.7633748709277492E-002
   9.4800000000000009E-002    -3.2733059113735974E-002
   9.5100000000000004E-002    -2.7998349123330213E-002
   9.5399999999999999E-002    -2.3622519751908211E-002
   9.5699999999999993E-002    -1.9859510651900503E-002
   9.6000000000000002E-002    -1.5710284081751458E-002
   9.6300000000000011E-002    -1.0387553544951245E-002
   9.6600000000000005E-002    -4.2568679601704407E-003
   9.6900000000000000E-002     1.6124200658679255E-003
   9.7200000000000009E-002     7.6122850887252597E-003
   9.7499999999999989E-002     1.5137022688351653E-002
   9.7799999999999998E-002     2.4104777640927000E-002
   9.8100000000000007E-002     3.1836452772207674E-002
   9.8400000000000015E-002     3.6251259231767474E-002
   9.8699999999999996E-002     3.8733313884579790E-002
   9.9000000000000005E-002     4.1176687957592772E-002
   9.9300000000000013E-002     4.2251530594796027E-002
   9.9599999999999994E-002     3.9398961786114128E-002
   9.9900000000000003E-002     3.3291980521844122E-002
  0.10020000000000001          2.7237303043692762E-002
  0.10049999999999999          2.2439009080801209E-002
  0.10080000000000000          1.6766429602130872E-002
  0.10110000000000001          8.9788620273784370E-003
  0.10140000000000000          1.0098461954807028E-003
  0.10170000000000000         -5.4393292068734139E-003
  0.10200000000000001         -1.0494568240076219E-002
  0.10230000000000002         -1.6096241193028993E-002
  0.10260000000000000         -2.2269178625272779E-002
  0.10290000000000001         -2.6982034466320526E-002
  0.10320000000000000         -2.9299937235430118E-002
  0.10350000000000001         -2.9605057718376848E-002
  0.10380000000000000         -2.8388453060852470E-002
  0.10410000000000001         -2.5669546036933832E-002
  0.10440000000000001         -2.1395458618662710E-002
  0.10470000000000000         -1.5153143546126610E-002
  0.10500000000000000         -7.7699776945320265E-003
  0.10530000000000000         -9.9789899609792343E-004
  0.10560000000000000          3.7481159817133319E-003
  0.10590000000000001          7.0367685100865551E-003
  0.10620000000000000          9.4259264678107080E-003
  0.10650000000000001          9.9097054009097407E-003
  0.10679999999999999          7.2458395984075774E-003
  0.10710000000000000          2.3191812593985617E-003
  0.10740000000000001         -2.7922902465446486E-003
  0.10770000000000000         -7.3328031310271047E-003
  0.10800000000000000         -1.2642992300807260E-002
  0.10830000000000001         -1.9176317708756940E-002
  0.10859999999999999         -2.4827007223539921E-002
  0.10890000000000000         -2.7821197486653793E-002
  0.10920000000000001         -2.9329803317844905E-002
  0.10950000000000001         -3.1273925622859383E-002
  0.10979999999999999         -3.2461120853141678E-002
  0.11009999999999999         -3.0378498129327358E-002
  0.11040000000000001         -2.4660868729326380E-002
  0.11070000000000001         -1.7353052449024853E-002
  0.11100000000000000         -9.6562173540981622E-003
  0.11130000000000000          3.9074248234957643E-004
  0.11160000000000002          1.3181984664230428E-002
  0.11190000000000001          2.6964819651103200E-002
  0.11220000000000001          3.8857373799831230E-002
  0.11250000000000000          4.7965602074721225E-002
  0.11280000000000000          5.5233274590502757E-002
  0.11309999999999999          6.0326298745663365E-002
  0.11340000000000001          6.1789969803789785E-002
  0.11369999999999998          5.8736135734782785E-002
  0.11400000000000000          5.2042472977815279E-002
  0.11430000000000000          4.3528550675310473E-002
  0.11460000000000002          3.4476495109257821E-002
  0.11489999999999999          2.4591053404474761E-002
  0.11520000000000001          1.3998110283596654E-002
  0.11550000000000001          3.4569109217841842E-003
  0.11580000000000000         -5.6026838116752797E-003
  0.11609999999999999         -1.2545037729700198E-002
  0.11640000000000002         -1.8301567531589374E-002
  0.11670000000000001         -2.3931851862908516E-002
  0.11700000000000001         -2.8604467338599254E-002
  0.11730000000000000         -3.1067945136645403E-002
  0.11760000000000000         -3.1064528378144218E-002
  0.11789999999999999         -2.9655230797744681E-002
  0.11820000000000001         -2.7106003871354867E-002
  0.11850000000000001         -2.2588866368724481E-002
  0.11880000000000000         -1.5485026369744026E-002
  0.11910000000000000         -7.1638349680871460E-003
  0.11940000000000002          9.0974339061164478E-004
  0.11970000000000001          8.4923149384683178E-003
  0.12000000000000001          1.5152959054258647E-002
  0.12030000000000000          2.0135456063602286E-002
  0.12060000000000000          2.2570747749349640E-002
  0.12089999999999999          2.2192407305884676E-002
  0.12119999999999999          1.9440668474407286E-002
  0.12150000000000001          1.5021957686018994E-002
  0.12180000000000001          8.8254152011205123E-003
  0.12210000000000000          1.7617871877629310E-003
  0.12239999999999999         -5.5292760518129425E-003
  0.12270000000000002         -1.2445402260768429E-002
  0.12300000000000001         -1.8587915592715165E-002
  0.12330000000000001         -2.3649269472230783E-002
  0.12360000000000000         -2.7643852754729137E-002
  0.12390000000000000         -3.0530679087098167E-002
  0.12419999999999999         -3.2182056326052755E-002
  0.12450000000000001         -3.2133266806523599E-002
  0.12480000000000001         -3.0523375748570614E-002
  0.12509999999999999         -2.7612060303694341E-002
  0.12540000000000001         -2.3493598816274885E-002
  0.12570000000000003         -1.7772709568281142E-002
  0.12600000000000000         -1.0020319325689364E-002
  0.12630000000000002         -1.6578855057159392E-003
  0.12659999999999999          6.5833815200808769E-003
  0.12690000000000001          1.4296801325794195E-002
  0.12719999999999998          2.2131487555121176E-002
  0.12750000000000000          2.9128348540803928E-002
  0.12780000000000002          3.3613934097500492E-002
  0.12809999999999999          3.5297350132560745E-002
  0.12840000000000001          3.5147173272202514E-002
  0.12869999999999998          3.3967052809555143E-002
  0.12900000000000000          3.0976183661163947E-002
  0.12930000000000003          2.5683390228883107E-002
  0.12959999999999999          1.8793040514007542E-002
  0.12990000000000002          1.1754085183661611E-002
  0.13019999999999998          5.0192802224604538E-003
  0.13050000000000000         -2.1034005361286190E-003
  0.13080000000000003         -9.8207373447209700E-003
  0.13109999999999999         -1.7037408105540108E-002
  0.13140000000000002         -2.2892768621948167E-002
  0.13169999999999998         -2.7199584139931982E-002
  0.13200000000000001         -3.0079243197330963E-002
  0.13229999999999997         -3.1566610516606808E-002
  0.13260000000000000         -3.1114567034881913E-002
  0.13290000000000002         -2.8105070942582300E-002
  0.13319999999999999         -2.2986269640159707E-002
  0.13350000000000001         -1.6627209229902906E-002
  0.13380000000000003         -9.6037093913927674E-003
  0.13410000000000000         -1.9267141355581718E-003
  0.13440000000000002          6.0533159096916311E-003
  0.13469999999999999          1.3208254395195629E-002
  0.13500000000000001          1.8506732931682660E-002
  0.13529999999999998          2.2218401225869544E-002
  0.13560000000000000          2.4760501293519921E-002
  0.13590000000000002          2.5535079215661893E-002
  0.13619999999999999          2.4120356765039319E-002
  0.13650000000000001          2.0933820825507321E-002
  0.13680000000000003          1.6947896777280813E-002
  0.13710000000000000          1.2396213347565133E-002
  0.13740000000000002          6.6539626700679588E-003
  0.13769999999999999         -3.3792936073379076E-004
  0.13800000000000001         -7.1923283897479609E-003
  0.13829999999999998         -1.3111910319485942E-002
  0.13860000000000000         -1.8826785893336528E-002
  0.13890000000000002         -2.4506969417814703E-002
  0.13919999999999999         -2.8931654366925658E-002
  0.13950000000000001         -3.0899958728875410E-002
  0.13979999999999998         -3.0618473572650351E-002
  0.14010000000000000         -2.8699133590209702E-002
  0.14040000000000002         -2.4996269897917922E-002
  0.14069999999999999         -1.8952184794132299E-002
  0.14100000000000001         -1.0881691068341581E-002
  0.14130000000000004         -1.7625174150041611E-003
  0.14160000000000000          7.3104290860886399E-003
  0.14189999999999997          1.6242991975739418E-002
  0.14219999999999999          2.4446311406875587E-002
  0.14250000000000002          3.1152737130749175E-002
  0.14279999999999998          3.5958629120744018E-002
  0.14310000000000000          3.8799312749302733E-002
  0.14339999999999997          3.9216152539722160E-002
  0.14369999999999999          3.6927914222776637E-002
  0.14400000000000002          3.2750404982616277E-002
  0.14429999999999998          2.6959439789459361E-002
  0.14460000000000001          1.9480367131609500E-002
  0.14490000000000003          1.0420402236058779E-002
  0.14520000000000000          8.3059550144348737E-004
  0.14550000000000002         -8.4546830375329049E-003
  0.14579999999999999         -1.7364854695734955E-002
  0.14610000000000001         -2.5643752595176206E-002
  0.14640000000000003         -3.2305656035853392E-002
  0.14670000000000000         -3.6422166496644398E-002
  0.14699999999999996         -3.7931416337600499E-002
  0.14729999999999999         -3.7573364824066591E-002
  0.14760000000000001         -3.5065864006324499E-002
  0.14789999999999998         -2.9269947434657939E-002
  0.14820000000000000         -2.1174865533751475E-002