  -1.4999999999999999E-002     0.0000000000000000     
  -1.4700000000000000E-002    -1.9913321685124765E-016
  -1.4400000000000000E-002     3.8210874382049529E-015
  -1.4100000000000000E-002     1.5657517199716325E-012
  -1.3800000000000000E-002    -4.7736127322772158E-012
  -1.3500000000000000E-002    -1.8019101735009296E-011
  -1.3200000000000000E-002     1.0832317620545948E-011
  -1.2899999999999998E-002     1.5142501935641989E-010
  -1.2600000000000000E-002     3.0132412804020641E-011
  -1.2299999999999998E-002    -3.3855062617695396E-010
  -1.2000000000000000E-002    -9.5863139203341241E-010
  -1.1699999999999999E-002     6.1114942395167899E-010
  -1.1399999999999999E-002     2.5000011828900234E-009
  -1.1099999999999999E-002     2.1979801539840099E-009
  -1.0799999999999999E-002    -2.9188948939309253E-009
  -1.0499999999999999E-002    -9.2989017760363803E-009
  -1.0199999999999999E-002    -6.7797176191492058E-009
  -9.8999999999999991E-003     1.3570637160338112E-008
  -9.5999999999999992E-003     2.5157573054181447E-008
  -9.2999999999999992E-003     1.3630054138045758E-008
  -8.9999999999999993E-003    -2.2148630713437617E-008
  -8.6999999999999994E-003    -7.1972778940012621E-008
  -8.3999999999999995E-003    -4.9128495128194000E-008
  -8.0999999999999996E-003     6.5911611341706174E-008
  -7.7999999999999988E-003     1.2495664052096244E-007
  -7.4999999999999997E-003     1.2841130133098207E-007
  -7.1999999999999998E-003    -1.8604991761812242E-008
  -6.8999999999999981E-003    -2.9122528508205715E-007
  -6.5999999999999982E-003    -3.3671249330311751E-007
  -6.3000000000000000E-003     4.4304351017900295E-008
  -6.0000000000000001E-003     2.4130772847046052E-007
  -5.6999999999999985E-003     6.6129960390762065E-007
  -5.3999999999999986E-003     5.6011520846385731E-007
  -5.1000000000000004E-003    -5.9628168946727724E-007
  -4.7999999999999987E-003    -8.2513671596186799E-007
  -4.5000000000000005E-003    -8.3676668210035077E-007
  -4.1999999999999989E-003    -5.9140742841456864E-007
  -3.8999999999999990E-003     1.7698644800577843E-006
  -3.5999999999999990E-003     1.7963416364957530E-006
  -3.2999999999999991E-003     2.3162409379815033E-007
  -2.9999999999999992E-003    -6.4532378432739292E-007
  -2.6999999999999993E-003    -3.6554521384627966E-006
  -2.3999999999999994E-003    -1.4806494657897210E-006
  -2.0999999999999977E-003     9.4428304249032893E-006
  -1.7999999999999995E-003     2.3211657694715074E-005
  -1.4999999999999979E-003     4.8783092442574263E-005
  -1.1999999999999997E-003     8.7536968848012705E-005
  -8.9999999999999976E-004     1.2667199622397535E-004
  -5.9999999999999810E-004     1.8498108604911214E-004
  -2.9999999999999992E-004     2.7566873904295592E-004
   0.0000000000000000          4.0319378166365182E-004
   3.0000000000000165E-004     6.2290100491516759E-004
   5.9999999999999984E-004     9.5617417914073757E-004
   9.0000000000000149E-004     1.3897096812865370E-003
   1.2000000000000031E-003     1.9819218021766422E-003
   1.5000000000000013E-003     2.7767131746463114E-003
   1.8000000000000030E-003     3.8179738223414333E-003
   2.1000000000000012E-003     5.2247989378476634E-003
   2.3999999999999994E-003     7.0366188211310465E-003
   2.7000000000000010E-003     9.2816302018259300E-003
   2.9999999999999992E-003     1.1957271890334131E-002
   3.3000000000000008E-003     1.4909495786390670E-002
   3.6000000000000025E-003     1.7956565308966832E-002
   3.9000000000000007E-003     2.0789342814792056E-002
   4.2000000000000023E-003     2.2853348215808672E-002
   4.5000000000000005E-003     2.3316999118470849E-002
   4.7999999999999987E-003     2.0849555397090658E-002
   5.1000000000000004E-003     1.3624053650142298E-002
   5.4000000000000020E-003    -6.5917129659789908E-004
   5.7000000000000037E-003    -2.4964903615729617E-002
   5.9999999999999984E-003    -6.2821564460799229E-002
   6.3000000000000000E-003   -0.11839246063317566     
   6.6000000000000017E-003   -0.19639056538533151     
   6.9000000000000034E-003   -0.30176569771037975     
   7.2000000000000015E-003   -0.43946397020854633     
   7.5000000000000032E-003   -0.61403739860312712     
   7.8000000000000014E-003   -0.82909996902736438     
   8.0999999999999996E-003    -1.0866882268503382     
   8.4000000000000012E-003    -1.3865316729436401     
   8.7000000000000029E-003    -1.7253592616666680     
   9.0000000000000011E-003    -2.0963197665662392     
   9.2999999999999992E-003    -2.4883789131444303     
   9.6000000000000009E-003    -2.8861834081719451     
   9.8999999999999991E-003    -3.2699581579202146     
   1.0200000000000001E-002    -3.6161997236753933     
   1.0500000000000002E-002    -3.8984824394749467     
   1.0800000000000004E-002    -4.0891068316524581     
   1.1099999999999999E-002    -4.1609583404180626     
   1.1400000000000000E-002    -4.0898251455965777     
   1.1700000000000002E-002    -3.8571229657684825     
   1.2000000000000004E-002    -3.4520724072098403     
   1.2300000000000002E-002    -2.8740573331858812     
   1.2600000000000000E-002    -2.1342136037357538     
   1.2900000000000002E-002    -1.2559394916303930     
   1.3200000000000000E-002   -0.27452176061720479     
   1.3500000000000002E-002    0.76503051133206057     
   1.3800000000000003E-002     1.8107435333780941     
   1.4100000000000001E-002     2.8090526125711222     
   1.4400000000000000E-002     3.7096165579563376     
   1.4700000000000001E-002     4.4720214594202901     
   1.4999999999999999E-002     5.0707603641559160     
   1.5300000000000001E-002     5.5016007957002273     
   1.5600000000000003E-002     5.7826924821777084     
   1.5899999999999997E-002     5.9575823346758057     
   1.6199999999999999E-002     6.0906328144891404     
   1.6500000000000001E-002     6.2637779481971450     
   1.6800000000000002E-002     6.5657104642631907     
   1.7100000000000004E-002     7.0828172752906084     
   1.7400000000000006E-002     7.8845050759836113     
   1.7700000000000000E-002     9.0121701265110232     
   1.8000000000000002E-002     10.465975438677503     
   1.8300000000000004E-002     12.198160220437842     
   1.8600000000000005E-002     14.107232028015346     
   1.8900000000000000E-002     16.042443905126277     
   1.9200000000000002E-002     17.808258965144660     
   1.9500000000000003E-002     19.182475555615667     
   1.9799999999999998E-002     19.931378037688916     
   2.0100000000000000E-002     19.837398234105990     
   2.0400000000000001E-002     18.717914332668784     
   2.0700000000000003E-002     16.452658188609234     
   2.0999999999999998E-002     12.998769330461300     
   2.1299999999999999E-002     8.4052362084311767     
   2.1600000000000001E-002     2.8158128331903072     
   2.1900000000000003E-002    -3.5364391194408995     
   2.2200000000000004E-002    -10.341525681014417     
   2.2500000000000006E-002    -17.237676163211574     
   2.2800000000000001E-002    -23.835597156059976     
   2.3100000000000002E-002    -29.753091182059393     
   2.3400000000000004E-002    -34.642037640585386     
   2.3699999999999999E-002    -38.220017233808903     
   2.4000000000000000E-002    -40.288083236856096     
   2.4300000000000002E-002    -40.748314523952331     
   2.4599999999999997E-002    -39.605423110199155     
   2.4900000000000005E-002    -36.964522717086489     
   2.5200000000000000E-002    -33.017596067006991     
   2.5499999999999995E-002    -28.023887645623404     
   2.5800000000000003E-002    -22.289300834826690     
   2.6099999999999998E-002    -16.135454109049817     
   2.6400000000000007E-002    -9.8847738127481080     
   2.6700000000000002E-002    -3.8270232391496393     
   2.6999999999999996E-002     1.7832168339140821     
   2.7300000000000005E-002     6.7542291747815568     
   2.7600000000000000E-002     10.944416743789617     
   2.7900000000000008E-002     14.282379552021666     
   2.8200000000000003E-002     16.742550061324550     
   2.8499999999999998E-002     18.356553706121247     
   2.8800000000000006E-002     19.187670743144110     
   2.9100000000000001E-002     19.331913361025158     
   2.9400000000000003E-002     18.899687636012857     
   2.9700000000000004E-002     18.011420937288619     
   3.0000000000000006E-002     16.787770321794738     
   3.0300000000000001E-002     15.340964577619900     
   3.0600000000000002E-002     13.776509372577266     
   3.0900000000000004E-002     12.180092608359871     
   3.1199999999999999E-002     10.628052309408140     
   3.1500000000000007E-002     9.1728261459675267     
   3.1800000000000002E-002     7.8560723671027652     
   3.2099999999999997E-002     6.6974588920755522     
   3.2400000000000005E-002     5.7072405216108137     
   3.2700000000000000E-002     4.8764962851126441     
   3.3000000000000002E-002     4.1900607343041187     
   3.3300000000000003E-002     3.6202483459068162     
   3.3599999999999998E-002     3.1367275038829803     
   3.3900000000000000E-002     2.7039187419730446     
   3.4200000000000001E-002     2.2888558544131019     
   3.4500000000000003E-002     1.8592254095878218     
   3.4799999999999998E-002     1.3900630015198381     
   3.5099999999999999E-002    0.86158221141183589     
   3.5400000000000001E-002    0.26543354156868304     
   3.5699999999999996E-002   -0.40107272648817038     
   3.6000000000000004E-002    -1.1278131964021085     
   3.6299999999999999E-002    -1.8991526020629550     
   3.6600000000000008E-002    -2.6887862568003555     
   3.6900000000000002E-002    -3.4674014844325143     
   3.7199999999999997E-002    -4.1999409443396161     
   3.7500000000000006E-002    -4.8501797287808870     
   3.7800000000000000E-002    -5.3840038335639804     
   3.8100000000000009E-002    -5.7691074593817007     
   3.8400000000000004E-002    -5.9811148137710859     
   3.8699999999999998E-002    -6.0024665432979560     
   3.9000000000000007E-002    -5.8276710345708267     
   3.9300000000000002E-002    -5.4605735191672977     
   3.9600000000000003E-002    -4.9188655893766438     
   3.9900000000000005E-002    -4.2289757668097110     
   4.0200000000000000E-002    -3.4300428745627070     
   4.0500000000000001E-002    -2.5654741639903662     
   4.0800000000000003E-002    -1.6856341547256264     
   4.1100000000000005E-002   -0.83957673026469593     
   4.1399999999999999E-002    -7.5534217290991634E-002
   4.1700000000000008E-002    0.56768449629874684     
   4.2000000000000003E-002     1.0575229937580026     
   4.2299999999999997E-002     1.3766373641548810     
   4.2600000000000006E-002     1.5176822520561473     
   4.2900000000000001E-002     1.4899511643531369     
   4.3200000000000002E-002     1.3114114531167615     
   4.3500000000000004E-002     1.0144137729997267     
   4.3799999999999999E-002    0.63479762165905473     
   4.4100000000000000E-002    0.21721346294571475     
   4.4400000000000002E-002   -0.19757526553501714     
   4.4700000000000004E-002   -0.56695395325427178     
   4.4999999999999998E-002   -0.85764604284716484     
   4.5300000000000000E-002    -1.0419128088452076     
   4.5600000000000002E-002    -1.1038361495697764     
   4.5899999999999996E-002    -1.0373121199677167     
   4.6200000000000005E-002   -0.84769888308476027     
   4.6500000000000000E-002   -0.55111374616913267     
   4.6799999999999994E-002   -0.17016232694988176     
   4.7100000000000003E-002    0.26304099922832114     
   4.7399999999999998E-002    0.71575663112392007     
   4.7700000000000006E-002     1.1506860315690517     
   4.8000000000000001E-002     1.5361195704405262     
   4.8300000000000010E-002     1.8403406516161667     
   4.8600000000000004E-002     2.0425829635017365     
   4.8899999999999999E-002     2.1266120032132463     
   4.9200000000000008E-002     2.0881797359572545     
   4.9500000000000002E-002     1.9304521348646269     
   4.9800000000000011E-002     1.6665411895381528     
   5.0100000000000006E-002     1.3173058265999043     
   5.0400000000000000E-002    0.90875334416777775     
   5.0700000000000009E-002    0.47204264751288250     
   5.1000000000000004E-002     3.8335191458081397E-002
   5.1299999999999998E-002   -0.36080702165755696     
   5.1600000000000007E-002   -0.69902258611493551     
   5.1900000000000002E-002   -0.95283653680178659     
   5.2200000000000010E-002    -1.1076264055943952     
   5.2500000000000005E-002    -1.1540926571666539     
   5.2800000000000000E-002    -1.0933871514866915     
   5.3099999999999994E-002   -0.93157165078379212     
   5.3400000000000003E-002   -0.68478907396796007     
   5.3699999999999998E-002   -0.37229748569760091     
   5.4000000000000006E-002    -2.0135112454980231E-002
   5.4300000000000001E-002    0.34392771750754925     
   5.4599999999999996E-002    0.69108003905035176     
   5.4900000000000004E-002    0.99318186198859593     
   5.5199999999999999E-002     1.2249745123285862     
   5.5499999999999994E-002     1.3660477897006729     
   5.5800000000000002E-002     1.4009434816808977     
   5.6099999999999997E-002     1.3236640792115031     
   5.6400000000000006E-002     1.1335983546955894     
   5.6700000000000000E-002    0.84110394811829181     
   5.6999999999999995E-002    0.46213753137061886     
   5.7300000000000004E-002     2.2232205547030759E-002
   5.7599999999999998E-002   -0.44871133514583317     
   5.7900000000000007E-002   -0.91636522689940847     
   5.8200000000000002E-002    -1.3452568610672841     
   5.8499999999999996E-002    -1.7009200693717048     
   5.8800000000000005E-002    -1.9536345503618975     
   5.9100000000000000E-002    -2.0796984542570129     
   5.9400000000000008E-002    -2.0653878144293305     
   5.9700000000000003E-002    -1.9065699141634305     
   6.0000000000000012E-002    -1.6121873600033894     
   6.0300000000000006E-002    -1.2008903450943542     
   6.0600000000000001E-002   -0.70165087641696289     
   6.0900000000000010E-002   -0.15218497386363339     
   6.1200000000000004E-002    0.40603707534237632     
   6.1500000000000013E-002    0.93002312059321923     
   6.1800000000000008E-002     1.3789125483329627     
   6.2100000000000002E-002     1.7182937208828015     
   6.2399999999999997E-002     1.9219909674023903     
   6.2700000000000006E-002     1.9768227756530186     
   6.3000000000000000E-002     1.8792054067247239     
   6.3300000000000009E-002     1.6417441446303584     
   6.3600000000000004E-002     1.2845442631575708     
   6.3899999999999998E-002    0.83912202194847296     
   6.4199999999999993E-002    0.34191249725166983     
   6.4500000000000002E-002   -0.16749991682362531     
   6.4800000000000010E-002   -0.65071817689037559     
   6.5100000000000005E-002    -1.0734414240707402     
   6.5400000000000000E-002    -1.4078258899689331     
   6.5700000000000008E-002    -1.6345105618712488     
   6.5999999999999989E-002    -1.7444723316251505     
   6.6299999999999998E-002    -1.7364118303863254     
   6.6600000000000006E-002    -1.6191384482079307     
   6.6900000000000001E-002    -1.4071372140550027     
   6.7199999999999996E-002    -1.1210229843258936     
   6.7500000000000004E-002   -0.78367310226009934     
   6.7800000000000013E-002   -0.41978456670481634     
   6.8099999999999994E-002    -5.2328614962227959E-002
   6.8400000000000002E-002    0.29653341160397328     
   6.8700000000000011E-002    0.61009593407019480     
   6.8999999999999992E-002    0.87211932423213412     
   6.9300000000000000E-002     1.0751487262127633     
   6.9600000000000009E-002     1.2100462104323384     
   6.9900000000000004E-002     1.2785353744584285     
   7.0199999999999999E-002     1.2793645121223669     
   7.0500000000000007E-002     1.2198937129872292     
   7.0800000000000016E-002     1.1069997405555103     
   7.1099999999999997E-002    0.95089306089619741     
   7.1400000000000005E-002    0.76361860970488049     
   7.1700000000000000E-002    0.55763693043428830     
   7.1999999999999995E-002    0.34525389387759375     
   7.2300000000000003E-002    0.13894002049779708     
   7.2600000000000012E-002    -5.0604131955616527E-002
   7.2900000000000006E-002   -0.21491974216036214     
   7.3200000000000001E-002   -0.34683641466951620     
   7.3499999999999996E-002   -0.44343992255958398     
   7.3800000000000004E-002   -0.50199181627344558     
   7.4099999999999999E-002   -0.52529404828728055     
   7.4400000000000008E-002   -0.51492051232131963     
   7.4700000000000003E-002   -0.47781543724678066     
   7.5000000000000011E-002   -0.41862984940748227     
   7.5299999999999992E-002   -0.34569215085289473     
   7.5600000000000001E-002   -0.26591002048737633     
   7.5900000000000009E-002   -0.18581084246826229     
   7.6200000000000004E-002   -0.11285622658147343     
   7.6499999999999999E-002    -5.1433246383334019E-002
   7.6800000000000007E-002    -6.5317225966468051E-003
   7.7099999999999988E-002     1.9502284478626578E-002
   7.7399999999999997E-002     2.5470597043396964E-002
   7.7700000000000005E-002     1.1488249930281413E-002
   7.8000000000000014E-002    -1.9967061381426010E-002
   7.8299999999999995E-002    -6.6114157191257350E-002
   7.8600000000000003E-002   -0.12160739622980365     
   7.8900000000000012E-002   -0.18161034342163962     
   7.9199999999999993E-002   -0.23922724306921506     
   7.9500000000000001E-002   -0.28975474133904644     
   7.9800000000000010E-002   -0.32617881405333105     
   8.0100000000000018E-002   -0.34590392869111852     
   8.0399999999999999E-002   -0.34380080383945533     
   8.0700000000000008E-002   -0.32091065247158523     
   8.1000000000000003E-002   -0.27480665100795953     
   8.1299999999999997E-002   -0.21019420999617999     
   8.1600000000000006E-002   -0.12835678637547376     
   8.1900000000000014E-002    -3.5772878966005450E-002
   8.2199999999999995E-002     6.3466395102766082E-002
   8.2500000000000004E-002    0.16245675534590731     
   8.2799999999999999E-002    0.25620605106234784     
   8.3100000000000007E-002    0.33889864609501430     
   8.3400000000000002E-002    0.40670073138567808     
   8.3700000000000011E-002    0.45537394982699553     
   8.4000000000000005E-002    0.48322736089357576     
   8.4300000000000000E-002    0.48851298806759935     
   8.4599999999999995E-002    0.47226266622696045     
   8.4900000000000003E-002    0.43491096478204483     
   8.5199999999999998E-002    0.37922284100014547     
   8.5500000000000007E-002    0.30875845349477782     
   8.5800000000000001E-002    0.22729689110378826     
   8.6100000000000010E-002    0.13979495591640045     
   8.6399999999999991E-002     5.1179577275337174E-002
   8.6699999999999999E-002    -3.3669107425201156E-002
   8.7000000000000008E-002   -0.10977720625266096     
   8.7300000000000003E-002   -0.17346988890846671     
   8.7599999999999997E-002   -0.22102949141568207     
   8.7900000000000006E-002   -0.25103778130144416     
   8.8200000000000014E-002   -0.26229242652302620     
   8.8499999999999995E-002   -0.25577809453770417     
   8.8800000000000004E-002   -0.23273817087022941     
   8.9100000000000013E-002   -0.19736977455590576     
   8.9399999999999993E-002   -0.15203331970970035     
   8.9700000000000002E-002   -0.10229331398563102     
   9.0000000000000011E-002    -5.0866552904295870E-002
   9.0299999999999991E-002    -4.1043215363076868E-003
   9.0600000000000000E-002     3.7078975619613042E-002
   9.0900000000000009E-002     6.7488936214792350E-002
   9.1200000000000017E-002     8.7317060113876632E-002
   9.1499999999999998E-002     9.4610042148796758E-002
   9.1800000000000007E-002     8.9996307617894677E-002
   9.2100000000000001E-002     7.4466571372970525E-002
   9.2399999999999996E-002     4.9847458884305446E-002
   9.2700000000000005E-002     1.7989109319646812E-002
   9.3000000000000013E-002    -1.8017437114147605E-002
   9.3300000000000008E-002    -5.5749522382176675E-002
   9.3600000000000003E-002    -9.2465715604042042E-002
   9.3899999999999997E-002   -0.12525541376380112     
   9.4200000000000006E-002   -0.15263138119917796     
   9.4500000000000001E-002   -0.17151555619175429     
   9.4800000000000009E-002   -0.18146417637594192     
   9.5100000000000004E-002   -0.18037881529147048     
   9.5399999999999999E-002   -0.16914926246001261     
   9.5699999999999993E-002   -0.14715727877490448     
   9.6000000000000002E-002   -0.11606169644618269     
   9.6300000000000011E-002    -7.7590792989339685E-002
   9.6600000000000005E-002    -3.4012572335577085E-002
   9.6900000000000000E-002     1.1645518760238754E-002
   9.7200000000000009E-002     5.6266441376507936E-002
   9.7499999999999989E-002     9.7438752577124088E-002
   9.7799999999999998E-002    0.13113385221745943     
   9.8100000000000007E-002    0.15700629701313940     
   9.8400000000000015E-002    0.17163046340423582     
   9.8699999999999996E-002    0.17627747162799157     
   9.9000000000000005E-002    0.16957657518486302     
   9.9300000000000013E-002    0.15359958270940144     
   9.9599999999999994E-002    0.12963009952853866     
   9.9900000000000003E-002     9.9457909976208736E-002
  0.10020000000000001          6.6249914218485584E-002
  0.10049999999999999          3.1610904962884823E-002
  0.10080000000000000         -1.3810844976013537E-003
  0.10110000000000001         -3.1468217601699711E-002
  0.10140000000000000         -5.6215872325466654E-002
  0.10170000000000000         -7.5279223538114115E-002
  0.10200000000000001         -8.6758863869639713E-002
  0.10230000000000002         -9.1413555097627608E-002
  0.10260000000000000         -8.7564638687243734E-002
  0.10290000000000001         -7.7948730095080965E-002
  0.10320000000000000         -6.0582731297328607E-002
  0.10350000000000001         -3.9493343716897999E-002
  0.10380000000000000         -1.3413682555257989E-002
  0.10410000000000001          1.3285981307004757E-002
  0.10440000000000001          4.0626392515957344E-002
  0.10470000000000000          6.5255005200282934E-002
  0.10500000000000000          8.6068079338164960E-002
  0.10530000000000000         0.10032544042999669     
  0.10560000000000000         0.10847286015716939     
  0.10590000000000001         0.10737981390616935     
  0.10620000000000000         0.10014445073814582     
  0.10650000000000001          8.3888658652358561E-002
  0.10679999999999999          6.3517845039931534E-002
  0.10710000000000000          3.6577768229019203E-002
  0.10740000000000001          8.8047205917168858E-003
  0.10770000000000000         -2.0627645613791268E-002
  0.10800000000000000         -4.8529142498459521E-002
  0.10830000000000001         -7.3280600849635391E-002
  0.10859999999999999         -9.4134606014976141E-002
  0.10890000000000000        -0.10919368555110109     
  0.10920000000000001        -0.11825315344763143     
  0.10950000000000001        -0.12074546777358863     
  0.10979999999999999        -0.11712417455266100     
  0.11009999999999999        -0.10706132573785698     
  0.11040000000000001         -9.1773308522834052E-002
  0.11070000000000001         -7.1405936296475736E-002
  0.11100000000000000         -4.8436062920987587E-002
  0.11130000000000000         -2.2288115134416586E-002
  0.11160000000000002          3.1182131533036006E-003
  0.11190000000000001          2.8505823666851393E-002
  0.11220000000000001          4.9805673840637721E-002
  0.11250000000000000          6.7519219993773971E-002
  0.11280000000000000          7.9559503699436096E-002
  0.11309999999999999          8.4907757939374107E-002
  0.11340000000000001          8.4286095389987103E-002
  0.11369999999999998          7.7299529091449881E-002
  0.11400000000000000          6.4643724851473516E-002
  0.11430000000000000          4.9018094706919424E-002
  0.11460000000000002          2.9721759485497712E-002
  0.11489999999999999          1.0993560183456819E-002
  0.11520000000000001         -8.8088034325649878E-003
  0.11550000000000001         -2.4522646905887749E-002
  0.11580000000000000         -3.8752235447051073E-002
  0.11609999999999999         -4.8015489334752415E-002
  0.11640000000000002         -5.4109428486713990E-002
  0.11670000000000001         -5.5152915127888960E-002
  0.11700000000000001         -5.2761529831651541E-002
  0.11730000000000000         -4.6438146512898085E-002
  0.11760000000000000         -3.7444089599819402E-002
  0.11789999999999999         -2.5287148260447811E-002
  0.11820000000000001         -1.2507036706229546E-002
  0.11850000000000001          2.2502290432221961E-003
  0.11880000000000000          1.6242586930961367E-002
  0.11910000000000000          2.9768516588134120E-002
  0.11940000000000002          4.1484917652276826E-002
  0.11970000000000001          5.0339171328999288E-002
  0.12000000000000001          5.6218863145337625E-002
  0.12030000000000000          5.7431467947985856E-002
  0.12060000000000000          5.5261449786814382E-002
  0.12089999999999999          4.8994638522904088E-002
  0.12119999999999999          3.9175598117815569E-002
  0.12150000000000001          2.7444646737847744E-002
  0.12180000000000001          1.3327230125996681E-002
  0.12210000000000000         -9.1122523139142153E-005
  0.12239999999999999         -1.3504174313256678E-002
  0.12270000000000002         -2.4562213481181525E-002
  0.12300000000000001         -3.3268481519305629E-002
  0.12330000000000001         -3.9321567755013755E-002
  0.12360000000000000         -4.1997226674095542E-002
  0.12390000000000000         -4.2252839375658602E-002
  0.12419999999999999         -3.9720462197340378E-002
  0.12450000000000001         -3.5125088118554026E-002
  0.12480000000000001         -2.9022742022801501E-002
  0.12509999999999999         -2.1345765051903415E-002
  0.12540000000000001         -1.3411241094209436E-002
  0.12570000000000003         -4.4144923392976099E-003
  0.12600000000000000          4.4951951085626246E-003
  0.12630000000000002          1.3028583282797615E-002
  0.12659999999999999          2.1279692005293116E-002
  0.12690000000000001          2.7939151371081883E-002
  0.12719999999999998          3.3592982993388587E-002
  0.12750000000000000          3.6896097814541562E-002
  0.12780000000000002          3.7695338483472673E-002
  0.12809999999999999          3.6455753994900031E-002
  0.12840000000000001          3.2003111377183813E-002
  0.12869999999999998          2.5885130220418773E-002
  0.12900000000000000          1.7227010739639365E-002
  0.12930000000000003          7.5739852832981281E-003
  0.12959999999999999         -2.5073666710416220E-003
  0.12990000000000002         -1.2483167167672532E-002
  0.13019999999999998         -2.1146703591182536E-002
  0.13050000000000000         -2.8558912288812188E-002
  0.13080000000000003         -3.3742612790456927E-002
  0.13109999999999999         -3.6911563489881727E-002
  0.13140000000000002         -3.7833598445647765E-002
  0.13169999999999998         -3.6330793886214963E-002
  0.13200000000000001         -3.3665982918187010E-002
  0.13229999999999997         -2.8745259727844835E-002
  0.13260000000000000         -2.2964604751701187E-002
  0.13290000000000002         -1.6236295665505357E-002
  0.13319999999999999         -8.4660184066988053E-003
  0.13350000000000001         -9.0138535208084125E-004
  0.13380000000000003          7.2978533154215985E-003
  0.13410000000000000          1.4568114781244812E-002
  0.13440000000000002          2.1618620280203837E-002
  0.13469999999999999          2.7290652747987476E-002
  0.13500000000000001          3.1260473362241192E-002
  0.13529999999999998          3.3625229413958735E-002
  0.13560000000000000          3.3665181335020333E-002
  0.13590000000000002          3.1963700739448792E-002
  0.13619999999999999          2.7876839764233372E-002
  0.13650000000000001          2.2165550365006004E-002
  0.13680000000000003          1.5093356728229257E-002
  0.13710000000000000          7.5779171283659741E-003
  0.13740000000000002         -5.5744038284397113E-004
  0.13769999999999999         -7.6824310548092578E-003
  0.13800000000000001         -1.4680104303592234E-002
  0.13829999999999998         -1.9382292688707281E-002
  0.13860000000000000         -2.3601955239969885E-002
  0.13890000000000002         -2.5347314483649408E-002
  0.13919999999999999         -2.6218629606602706E-002
  0.13950000000000001         -2.5280892225158239E-002
  0.13979999999999998         -2.2891622553491184E-002
  0.14010000000000000         -1.9753535252849036E-002
  0.14040000000000002         -1.5308336985994708E-002
  0.14069999999999999         -1.0592257563320329E-002
  0.14100000000000001         -4.4883488190119308E-003
  0.14130000000000004          1.4615402089525886E-003
  0.14160000000000000          7.6312954894340868E-003
  0.14189999999999997          1.3349290440893391E-002
  0.14219999999999999          1.8789399909315385E-002
  0.14250000000000002          2.3029339522929293E-002
  0.14279999999999998          2.6062463180186124E-002
  0.14310000000000000          2.6912838838992870E-002
  0.14339999999999997          2.6546762223360137E-002
  0.14369999999999999          2.3828797333584777E-002
  0.14400000000000002          1.9955638999981706E-002
  0.14429999999999998          1.4037673717179899E-002
  0.14460000000000001          7.5293831655266763E-003
  0.14490000000000003         -6.3485220931303044E-005
  0.14520000000000000         -6.6164551010370332E-003
  0.14550000000000002         -1.3777302433500616E-002
  0.14579999999999999         -1.8856956064712160E-002
  0.14610000000000001         -2.3623481633677779E-002
  0.14640000000000003         -2.5237837819874820E-002
  0.14670000000000000         -2.6722773022241686E-002
  0.14699999999999996         -2.5155085623090129E-002
  0.14729999999999999         -2.3374383009195476E-002
  0.14760000000000001         -1.8899354028711901E-002
  0.14789999999999998         -1.4362067798034783E-002
  0.14820000000000000         -8.4937778919816354E-003