  -1.4999999999999999E-002     0.0000000000000000     
  -1.4700000000000000E-002    -3.8196176319615915E-005
  -1.4400000000000000E-002    -1.1482359695946798E-004
  -1.4100000000000000E-002    -1.4055684732738882E-004
  -1.3800000000000000E-002    -8.8396947830915451E-005
  -1.3500000000000000E-002     8.4747087385039777E-005
  -1.3200000000000000E-002     2.6155594969168305E-004
  -1.2899999999999998E-002     2.6260715094394982E-004
  -1.2600000000000000E-002     2.2268442990025505E-005
  -1.2299999999999998E-002    -2.8048478998243809E-004
  -1.2000000000000000E-002    -6.4616731833666563E-004
  -1.1699999999999999E-002    -1.2001619907096028E-003
  -1.1399999999999999E-002    -2.0272089168429375E-003
  -1.1099999999999999E-002    -3.2962015829980373E-003
  -1.0799999999999999E-002    -4.8862905241549015E-003
  -1.0499999999999999E-002    -7.1923770010471344E-003
  -1.0199999999999999E-002    -1.1126171797513962E-002
  -9.8999999999999991E-003    -1.7485527321696281E-002
  -9.5999999999999992E-003    -2.7130944654345512E-002
  -9.2999999999999992E-003    -4.1783969849348068E-002
  -8.9999999999999993E-003    -6.3993476331233978E-002
  -8.6999999999999994E-003    -9.7505368292331696E-002
  -8.3999999999999995E-003   -0.14663316309452057     
  -8.0999999999999996E-003   -0.21729792654514313     
  -7.7999999999999988E-003   -0.31783607602119446     
  -7.4999999999999997E-003   -0.45871171355247498     
  -7.1999999999999998E-003   -0.65252089500427246     
  -6.8999999999999981E-003   -0.91377770900726318     
  -6.5999999999999982E-003    -1.2593276500701904     
  -6.3000000000000000E-003    -1.7077536582946777     
  -6.0000000000000001E-003    -2.2776632308959961     
  -5.6999999999999985E-003    -2.9859192371368408     
  -5.3999999999999986E-003    -3.8461730480194092     
  -5.1000000000000004E-003    -4.8656120300292969     
  -4.7999999999999987E-003    -6.0412220954895020     
  -4.5000000000000005E-003    -7.3567719459533691     
  -4.1999999999999989E-003    -8.7790699005126953     
  -3.8999999999999990E-003    -10.254751205444336     
  -3.5999999999999990E-003    -11.708203315734863     
  -3.2999999999999991E-003    -13.040575027465820     
  -2.9999999999999992E-003    -14.132239341735840     
  -2.6999999999999993E-003    -14.847695350646973     
  -2.3999999999999994E-003    -15.041814804077148     
  -2.0999999999999977E-003    -14.569262504577637     
  -1.7999999999999995E-003    -13.296794891357422     
  -1.4999999999999979E-003    -11.120882987976074     
  -1.1999999999999997E-003    -7.9795370101928711     
  -8.9999999999999976E-004    -3.8653149604797363     
  -5.9999999999999810E-004     1.1630614995956421     
  -2.9999999999999992E-004     6.9727969169616699     
   0.0000000000000000          13.355081558227539     
   3.0000000000000165E-004     20.034530639648438     
   5.9999999999999984E-004     26.681758880615234     
   9.0000000000000149E-004     32.931301116943359     
   1.2000000000000031E-003     38.406070709228516     
   1.5000000000000013E-003     42.748504638671875     
   1.8000000000000030E-003     45.650421142578125     
   2.1000000000000012E-003     46.880393981933594     
   2.3999999999999994E-003     46.301933288574219     
   2.7000000000000010E-003     43.890373229980469     
   2.9999999999999992E-003     39.739700317382812     
   3.3000000000000008E-003     34.056308746337891     
   3.6000000000000025E-003     27.142835617065430     
   3.9000000000000007E-003     19.371334075927734     
   4.2000000000000023E-003     11.157241821289062     
   4.5000000000000005E-003     2.9258825778961182     
   4.7999999999999987E-003    -4.9224214553833008     
   5.1000000000000004E-003    -12.042078018188477     
   5.4000000000000020E-003    -18.163972854614258     
   5.7000000000000037E-003    -23.113035202026367     
   5.9999999999999984E-003    -26.809667587280273     
   6.3000000000000000E-003    -29.266870498657227     
   6.6000000000000017E-003    -30.579572677612305     
   6.9000000000000034E-003    -30.906230926513672     
   7.2000000000000015E-003    -30.444639205932617     
   7.5000000000000032E-003    -29.407144546508789     
   7.8000000000000014E-003    -28.002193450927734     
   8.0999999999999996E-003    -26.410657882690430     
   8.4000000000000012E-003    -24.776868820190430     
   8.7000000000000029E-003    -23.196367263793945     
   9.0000000000000011E-003    -21.716411590576172     
   9.2999999999999992E-003    -20.338348388671875     
   9.6000000000000009E-003    -19.026691436767578     
   9.8999999999999991E-003    -17.721826553344727     
   1.0200000000000001E-002    -16.350587844848633     
   1.0500000000000002E-002    -14.838289260864258     
   1.0800000000000004E-002    -13.121892929077148     
   1.1099999999999999E-002    -11.162145614624023     
   1.1400000000000000E-002    -8.9449396133422852     
   1.1700000000000002E-002    -6.4855308532714844     
   1.2000000000000004E-002    -3.8258724212646484     
   1.2300000000000002E-002    -1.0357257127761841     
   1.2600000000000000E-002     1.7930736541748047     
   1.2900000000000002E-002     4.5599374771118164     
   1.3200000000000000E-002     7.1609005928039551     
   1.3500000000000002E-002     9.4946203231811523     
   1.3800000000000003E-002     11.469609260559082     
   1.4100000000000001E-002     13.014101982116699     
   1.4400000000000000E-002     14.080295562744141     
   1.4700000000000001E-002     14.645534515380859     
   1.4999999999999999E-002     14.711039543151855     
   1.5300000000000001E-002     14.306211471557617     
   1.5600000000000003E-002     13.483658790588379     
   1.5899999999999997E-002     12.313790321350098     
   1.6199999999999999E-002     10.881207466125488     
   1.6500000000000001E-002     9.2788867950439453     
   1.6800000000000002E-002     7.6032209396362305     
   1.7100000000000004E-002     5.9468035697937012     
   1.7400000000000006E-002     4.3930029869079590     
   1.7700000000000000E-002     3.0136833190917969     
   1.8000000000000002E-002     1.8646452426910400     
   1.8300000000000004E-002    0.98160648345947266     
   1.8600000000000005E-002    0.38065704703330994     
   1.8900000000000000E-002     5.9528093785047531E-002
   1.9200000000000002E-002    -1.3996132183820009E-003
   1.9500000000000003E-002    0.16033324599266052     
   1.9799999999999998E-002    0.49426457285881042     
   2.0100000000000000E-002    0.94275051355361938     
   2.0400000000000001E-002     1.4460558891296387     
   2.0700000000000003E-002     1.9418680667877197     
   2.0999999999999998E-002     2.3694612979888916     
   2.1299999999999999E-002     2.6800837516784668     
   2.1600000000000001E-002     2.8379192352294922     
   2.1900000000000003E-002     2.8185307979583740     
   2.2200000000000004E-002     2.6097087860107422     
   2.2500000000000006E-002     2.2152137756347656     
   2.2800000000000001E-002     1.6572006940841675     
   2.3100000000000002E-002    0.96857452392578125     
   2.3400000000000004E-002    0.18759283423423767     
   2.3699999999999999E-002   -0.64053428173065186     
   2.4000000000000000E-002    -1.4644428491592407     
   2.4300000000000002E-002    -2.2320981025695801     
   2.4599999999999997E-002    -2.9009647369384766     
   2.4900000000000005E-002    -3.4366745948791504     
   2.5200000000000000E-002    -3.8105044364929199     
   2.5499999999999995E-002    -4.0021648406982422     
   2.5800000000000003E-002    -4.0068798065185547     
   2.6099999999999998E-002    -3.8346142768859863     
   2.6400000000000007E-002    -3.5019974708557129     
   2.6700000000000002E-002    -3.0323057174682617     
   2.6999999999999996E-002    -2.4575641155242920     
   2.7300000000000005E-002    -1.8188185691833496     
   2.7600000000000000E-002    -1.1579996347427368     
   2.7900000000000008E-002   -0.51239567995071411     
   2.8200000000000003E-002     8.2260280847549438E-002
   2.8499999999999998E-002    0.59116107225418091     
   2.8800000000000006E-002    0.98568290472030640     
   2.9100000000000001E-002     1.2489148378372192     
   2.9400000000000003E-002     1.3739069700241089     
   2.9700000000000004E-002     1.3593888282775879     
   3.0000000000000006E-002     1.2118172645568848     
   3.0300000000000001E-002    0.94854068756103516     
   3.0600000000000002E-002    0.59573149681091309     
   3.0900000000000004E-002    0.18256539106369019     
   3.1199999999999999E-002   -0.26011598110198975     
   3.1500000000000007E-002   -0.69956934452056885     
   3.1800000000000002E-002    -1.1030761003494263     
   3.2099999999999997E-002    -1.4420089721679688     
   3.2400000000000005E-002    -1.6950025558471680     
   3.2700000000000000E-002    -1.8469241857528687     
   3.3000000000000002E-002    -1.8893830776214600     
   3.3300000000000003E-002    -1.8217967748641968     
   3.3599999999999998E-002    -1.6522499322891235     
   3.3900000000000000E-002    -1.3944035768508911     
   3.4200000000000001E-002    -1.0662282705307007     
   3.4500000000000003E-002   -0.68929040431976318     
   3.4799999999999998E-002   -0.28657066822052002     
   3.5099999999999999E-002    0.11847309768199921     
   3.5400000000000001E-002    0.50565665960311890     
   3.5699999999999996E-002    0.85674983263015747     
   3.6000000000000004E-002     1.1558694839477539     
   3.6299999999999999E-002     1.3913240432739258     
   3.6600000000000008E-002     1.5551186800003052     
   3.6900000000000002E-002     1.6425851583480835     
   3.7199999999999997E-002     1.6508517265319824     
   3.7500000000000006E-002     1.5802590847015381     
   3.7800000000000000E-002     1.4338514804840088     
   3.8100000000000009E-002     1.2177653312683105     
   3.8400000000000004E-002    0.94085311889648438     
   3.8699999999999998E-002    0.61549121141433716     
   3.9000000000000007E-002    0.25789517164230347     
   3.9300000000000002E-002   -0.11261449009180069     
   3.9600000000000003E-002   -0.47246894240379333     
   3.9900000000000005E-002   -0.79684847593307495     
   4.0200000000000000E-002    -1.0606164932250977     
   4.0500000000000001E-002    -1.2404198646545410     
   4.0800000000000003E-002    -1.3169152736663818     
   4.1100000000000005E-002    -1.2766072750091553     
   4.1399999999999999E-002    -1.1149878501892090     
   4.1700000000000008E-002   -0.83828026056289673     
   4.2000000000000003E-002   -0.46232566237449646     
   4.2299999999999997E-002    -1.2063568457961082E-002
   4.2600000000000006E-002    0.48010879755020142     
   4.2900000000000001E-002    0.97493499517440796     
   4.3200000000000002E-002     1.4317560195922852     
   4.3500000000000004E-002     1.8134913444519043     
   4.3799999999999999E-002     2.0893714427947998     
   4.4100000000000000E-002     2.2356064319610596     
   4.4400000000000002E-002     2.2391414642333984     
   4.4700000000000004E-002     2.1000609397888184     
   4.4999999999999998E-002     1.8306831121444702     
   4.5300000000000000E-002     1.4530407190322876     
   4.5600000000000002E-002    0.99501872062683105     
   4.5899999999999996E-002    0.49037286639213562     
   4.6200000000000005E-002    -2.4711709469556808E-002
   4.6500000000000000E-002   -0.51660066843032837     
   4.6799999999999994E-002   -0.95735597610473633     
   4.7100000000000003E-002    -1.3253862857818604     
   4.7399999999999998E-002    -1.6052271127700806     
   4.7700000000000006E-002    -1.7896748781204224     
   4.8000000000000001E-002    -1.8799164295196533     
   4.8300000000000010E-002    -1.8826583623886108     
   4.8600000000000004E-002    -1.8082511425018311     
   4.8899999999999999E-002    -1.6704335212707520     
   4.9200000000000008E-002    -1.4852656126022339     
   4.9500000000000002E-002    -1.2689139842987061     
   4.9800000000000011E-002    -1.0351932048797607     
   5.0100000000000006E-002   -0.79690998792648315     
   5.0400000000000000E-002   -0.56613993644714355     
   5.0700000000000009E-002   -0.35234284400939941     
   5.1000000000000004E-002   -0.16142691671848297     
   5.1299999999999998E-002     2.6727495715022087E-003
   5.1600000000000007E-002    0.13742925226688385     
   5.1900000000000002E-002    0.24179625511169434     
   5.2200000000000010E-002    0.31843107938766479     
   5.2500000000000005E-002    0.37135383486747742     
   5.2800000000000000E-002    0.40516147017478943     
   5.3099999999999994E-002    0.42449301481246948     
   5.3400000000000003E-002    0.43505054712295532     
   5.3699999999999998E-002    0.44319963455200195     
   5.4000000000000006E-002    0.45279005169868469     
   5.4300000000000001E-002    0.46619001030921936     
   5.4599999999999996E-002    0.48517480492591858     
   5.4900000000000004E-002    0.51043456792831421     
   5.5199999999999999E-002    0.54021769762039185     
   5.5499999999999994E-002    0.57118260860443115     
   5.5800000000000002E-002    0.60050576925277710     
   5.6099999999999997E-002    0.62547242641448975     
   5.6400000000000006E-002    0.64266598224639893     
   5.6700000000000000E-002    0.64855438470840454     
   5.6999999999999995E-002    0.64163887500762939     
   5.7300000000000004E-002    0.62165749073028564     
   5.7599999999999998E-002    0.58789724111557007     
   5.7900000000000007E-002    0.53981423377990723     
   5.8200000000000002E-002    0.47811970114707947     
   5.8499999999999996E-002    0.40495827794075012     
   5.8800000000000005E-002    0.32202458381652832     
   5.9100000000000000E-002    0.22944559156894684     
   5.9400000000000008E-002    0.12987489998340607     
   5.9700000000000003E-002     2.6858914643526077E-002
   6.0000000000000012E-002    -7.5814671814441681E-002
   6.0300000000000006E-002   -0.17609423398971558     
   6.0600000000000001E-002   -0.27086865901947021     
   6.0900000000000010E-002   -0.35508951544761658     
   6.1200000000000004E-002   -0.42468115687370300     
   6.1500000000000013E-002   -0.47813174128532410     
   6.1800000000000008E-002   -0.51447844505310059     
   6.2100000000000002E-002   -0.53227543830871582     
   6.2399999999999997E-002   -0.53053826093673706     
   6.2700000000000006E-002   -0.51187318563461304     
   6.3000000000000000E-002   -0.47992512583732605     
   6.3300000000000009E-002   -0.43740728497505188     
   6.3600000000000004E-002   -0.38673180341720581     
   6.3899999999999998E-002   -0.33142367005348206     
   6.4199999999999993E-002   -0.27612030506134033     
   6.4500000000000002E-002   -0.22352021932601929     
   6.4800000000000010E-002   -0.17471466958522797     
   6.5100000000000005E-002   -0.13086047768592834     
   6.5400000000000000E-002    -9.3757733702659607E-002
   6.5700000000000008E-002    -6.4114965498447418E-002
   6.5999999999999989E-002    -4.1067678481340408E-002
   6.6299999999999998E-002    -2.3203892633318901E-002
   6.6600000000000006E-002    -1.0478490963578224E-002
   6.6900000000000001E-002    -2.4327503051608801E-003
   6.7199999999999996E-002     2.5045878719538450E-003
   6.7500000000000004E-002     6.4130951650440693E-003
   6.7800000000000013E-002     1.0694192722439766E-002
   6.8099999999999994E-002     1.5882631763815880E-002
   6.8400000000000002E-002     2.2842155769467354E-002
   6.8700000000000011E-002     3.2943598926067352E-002
   6.8999999999999992E-002     4.7583330422639847E-002
   6.9300000000000000E-002     6.5922908484935760E-002
   6.9600000000000009E-002     8.6884684860706329E-002
   6.9900000000000004E-002    0.10966432094573975     
   7.0199999999999999E-002    0.13359707593917847     
   7.0500000000000007E-002    0.15765930712223053     
   7.0800000000000016E-002    0.17952701449394226     
   7.1099999999999997E-002    0.19679078459739685     
   7.1400000000000005E-002    0.20825311541557312     
   7.1700000000000000E-002    0.21432229876518250     
   7.1999999999999995E-002    0.21407735347747803     
   7.2300000000000003E-002    0.20579600334167480     
   7.2600000000000012E-002    0.18943092226982117     
   7.2900000000000006E-002    0.16702315211296082     
   7.3200000000000001E-002    0.14025555551052094     
   7.3499999999999996E-002    0.10903491079807281     
   7.3800000000000004E-002     7.3539644479751587E-002
   7.4099999999999999E-002     3.6415342241525650E-002
   7.4400000000000008E-002     4.2715412564575672E-004
   7.4700000000000003E-002    -3.3475089818239212E-002
   7.5000000000000011E-002    -6.5455317497253418E-002
   7.5299999999999992E-002    -9.3900553882122040E-002
   7.5600000000000001E-002   -0.11604632437229156     
   7.5900000000000009E-002   -0.13121412694454193     
   7.6200000000000004E-002   -0.14053212106227875     
   7.6499999999999999E-002   -0.14399793744087219     
   7.6800000000000007E-002   -0.14066010713577271     
   7.7099999999999988E-002   -0.13076592981815338     
   7.7399999999999997E-002   -0.11690697073936462     
   7.7700000000000005E-002   -0.10072548687458038     
   7.8000000000000014E-002    -8.2496501505374908E-002
   7.8299999999999995E-002    -6.3161283731460571E-002
   7.8600000000000003E-002    -4.4925436377525330E-002
   7.8900000000000012E-002    -2.9524987563490868E-002
   7.9199999999999993E-002    -1.6929525882005692E-002
   7.9500000000000001E-002    -7.0240413770079613E-003
   7.9800000000000010E-002    -4.9487315118312836E-004
   8.0100000000000018E-002     1.8883672310039401E-003
   8.0399999999999999E-002     1.4000998344272375E-003
   8.0700000000000008E-002    -5.9223512653261423E-004
   8.1000000000000003E-002    -4.2353053577244282E-003
   8.1299999999999997E-002    -9.5103830099105835E-003
   8.1600000000000006E-002    -1.4996290206909180E-002
   8.1900000000000014E-002    -1.9221192225813866E-002
   8.2199999999999995E-002    -2.2435165941715240E-002
   8.2500000000000004E-002    -2.5170151144266129E-002
   8.2799999999999999E-002    -2.6180274784564972E-002
   8.3100000000000007E-002    -2.3834543302655220E-002
   8.3400000000000002E-002    -1.8919270485639572E-002
   8.3700000000000011E-002    -1.2090852484107018E-002
   8.4000000000000005E-002    -2.9003734234720469E-003
   8.4300000000000000E-002     9.9292872473597527E-003
   8.4599999999999995E-002     2.5361314415931702E-002
   8.4900000000000003E-002     4.1434183716773987E-002
   8.5199999999999998E-002     5.7253930717706680E-002
   8.5500000000000007E-002     7.3297277092933655E-002
   8.5800000000000001E-002     8.7984263896942139E-002
   8.6100000000000010E-002     9.8653711378574371E-002
   8.6399999999999991E-002    0.10456530004739761     
   8.6699999999999999E-002    0.10652674734592438     
   8.7000000000000008E-002    0.10412685573101044     
   8.7300000000000003E-002     9.6055224537849426E-002
   8.7599999999999997E-002     8.2585148513317108E-002
   8.7900000000000006E-002     6.6556476056575775E-002
   8.8200000000000014E-002     4.9465894699096680E-002
   8.8499999999999995E-002     3.0531674623489380E-002
   8.8800000000000004E-002     1.0525960475206375E-002
   8.9100000000000013E-002    -7.7931373380124569E-003
   8.9399999999999993E-002    -2.2428613156080246E-002
   8.9700000000000002E-002    -3.4788340330123901E-002
   9.0000000000000011E-002    -4.6186331659555435E-002
   9.0299999999999991E-002    -5.4789468646049500E-002
   9.0600000000000000E-002    -5.8890588581562042E-002
   9.0900000000000009E-002    -5.9628780931234360E-002
   9.1200000000000017E-002    -5.9402424842119217E-002
   9.1499999999999998E-002    -5.7836387306451797E-002
   9.1800000000000007E-002    -5.2658759057521820E-002
   9.2100000000000001E-002    -4.4041190296411514E-002
   9.2399999999999996E-002    -3.4696433693170547E-002
   9.2700000000000005E-002    -2.5760134682059288E-002
   9.3000000000000013E-002    -1.5827639028429985E-002
   9.3300000000000008E-002    -5.1945052109658718E-003
   9.3600000000000003E-002     4.0734130889177322E-003
   9.3899999999999997E-002     1.0116245597600937E-002
   9.4200000000000006E-002     1.2947387993335724E-002
   9.4500000000000001E-002     1.3390557840466499E-002
   9.4800000000000009E-002     1.0880160145461559E-002
   9.5100000000000004E-002     5.1350570283830166E-003
   9.5399999999999999E-002    -2.9026260599493980E-003
   9.5699999999999993E-002    -1.2014446780085564E-002
   9.6000000000000002E-002    -2.1125094965100288E-002
   9.6300000000000011E-002    -2.9210669919848442E-002
   9.6600000000000005E-002    -3.5320747643709183E-002
   9.6900000000000000E-002    -3.8599595427513123E-002
   9.7200000000000009E-002    -3.9381336420774460E-002
   9.7499999999999989E-002    -3.7396814674139023E-002
   9.7799999999999998E-002    -3.1875260174274445E-002
   9.8100000000000007E-002    -2.3290425539016724E-002
   9.8400000000000015E-002    -1.3584447093307972E-002
   9.8699999999999996E-002    -3.2930406741797924E-003
   9.9000000000000005E-002     8.2835284993052483E-003
   9.9300000000000013E-002     2.1112181246280670E-002
   9.9599999999999994E-002     3.3321529626846313E-002
   9.9900000000000003E-002     4.3262101709842682E-002
  0.10020000000000001          5.1704015582799911E-002
  0.10049999999999999          5.9477556496858597E-002
  0.10080000000000000          6.5043829381465912E-002
  0.10110000000000001          6.6439025104045868E-002
  0.10140000000000000          6.3557289540767670E-002
  0.10170000000000000          5.8038569986820221E-002
  0.10200000000000001          5.0235673785209656E-002
  0.10230000000000002          3.8951836526393890E-002
  0.10260000000000000          2.4232460185885429E-002
  0.10290000000000001          8.3552999421954155E-003
  0.10320000000000000         -6.9603938609361649E-003
  0.10350000000000001         -2.1338967606425285E-002
  0.10380000000000000         -3.4903306514024734E-002
  0.10410000000000001         -4.6481736004352570E-002
  0.10440000000000001         -5.5100169032812119E-002
  0.10470000000000000         -6.0052651911973953E-002
  0.10500000000000000         -6.1608452349901199E-002
  0.10530000000000000         -6.0523841530084610E-002
  0.10560000000000000         -5.6914009153842926E-002
  0.10590000000000001         -5.0927776843309402E-002
  0.10620000000000000         -4.2470775544643402E-002
  0.10650000000000001         -3.2313406467437744E-002
  0.10679999999999999         -2.1382562816143036E-002
  0.10710000000000000         -1.0553729720413685E-002
  0.10740000000000001         -1.3544765533879399E-004
  0.10770000000000000          1.0267877019941807E-002
  0.10800000000000000          1.9676698371767998E-002
  0.10830000000000001          2.6360660791397095E-002
  0.10859999999999999          2.9747979715466499E-002
  0.10890000000000000          3.0820086598396301E-002
  0.10920000000000001          3.0119795352220535E-002
  0.10950000000000001          2.6615224778652191E-002
  0.10979999999999999          1.9974477589130402E-002
  0.11009999999999999          1.1838066391646862E-002
  0.11040000000000001          3.8551802281290293E-003
  0.11070000000000001         -3.1407608184963465E-003
  0.11100000000000000         -9.4635309651494026E-003
  0.11130000000000000         -1.4685603789985180E-002
  0.11160000000000002         -1.7605246976017952E-002
  0.11190000000000001         -1.7547503113746643E-002
  0.11220000000000001         -1.5278853476047516E-002
  0.11250000000000000         -1.1624925769865513E-002
  0.11280000000000000         -6.7446059547364712E-003
  0.11309999999999999         -8.4454345051199198E-004
  0.11340000000000001          5.8447290211915970E-003
  0.11369999999999998          1.2891780585050583E-002
  0.11400000000000000          1.9554439932107925E-002
  0.11430000000000000          2.5330489501357079E-002
  0.11460000000000002          3.0295493081212044E-002
  0.11489999999999999          3.4990739077329636E-002
  0.11520000000000001          3.8920402526855469E-002
  0.11550000000000001          4.1091956198215485E-002
  0.11580000000000000          4.1067730635404587E-002
  0.11609999999999999          3.9460659027099609E-002
  0.11640000000000002          3.6624997854232788E-002
  0.11670000000000001          3.1810399144887924E-002
  0.11700000000000001          2.4330182000994682E-002
  0.11730000000000000          1.4883544296026230E-002
  0.11760000000000000          5.1366025581955910E-003
  0.11789999999999999         -4.2531676590442657E-003
  0.11820000000000001         -1.3790309429168701E-002
  0.11850000000000001         -2.3186786100268364E-002
  0.11880000000000000         -3.0718121677637100E-002
  0.11910000000000000         -3.5192504525184631E-002
  0.11940000000000002         -3.7509877234697342E-002
  0.11970000000000001         -3.8362734019756317E-002
  0.12000000000000001         -3.7647735327482224E-002
  0.12030000000000000         -3.4795194864273071E-002
  0.12060000000000000         -3.0080083757638931E-002
  0.12089999999999999         -2.4815134704113007E-002
  0.12119999999999999         -1.9638797268271446E-002
  0.12150000000000001         -1.4380834996700287E-002
  0.12180000000000001         -8.6587313562631607E-003
  0.12210000000000000         -2.9298660811036825E-003
  0.12239999999999999          2.6227710768580437E-003
  0.12270000000000002          7.2661982849240303E-003
  0.12300000000000001          1.1356888338923454E-002
  0.12330000000000001          1.4902335591614246E-002
  0.12360000000000000          1.7997208982706070E-002
  0.12390000000000000          1.9946852698922157E-002
  0.12419999999999999          1.9889030605554581E-002
  0.12450000000000001          1.7934439703822136E-002
  0.12480000000000001          1.5114232897758484E-002
  0.12509999999999999          1.1675912886857986E-002
  0.12540000000000001          6.6955201327800751E-003
  0.12570000000000003          1.6018825408536941E-004
  0.12600000000000000         -6.4712804742157459E-003
  0.12630000000000002         -1.1850398965179920E-002
  0.12659999999999999         -1.5924215316772461E-002
  0.12690000000000001         -1.9587188959121704E-002
  0.12719999999999998         -2.2595914080739021E-002
  0.12750000000000000         -2.3532979190349579E-002
  0.12780000000000002         -2.1843517199158669E-002
  0.12809999999999999         -1.8700748682022095E-002
  0.12840000000000001         -1.5327274799346924E-002
  0.12869999999999998         -1.1192236095666885E-002
  0.12900000000000000         -5.3203529678285122E-003
  0.12930000000000003          1.8207776593044400E-003
  0.12959999999999999          8.7582804262638092E-003
  0.12990000000000002          1.4727798290550709E-002
  0.13019999999999998          2.0425224676728249E-002
  0.13050000000000000          2.5849204510450363E-002
  0.13080000000000003          3.0369900166988373E-002
  0.13109999999999999          3.2691698521375656E-002
  0.13140000000000002          3.2423354685306549E-002
  0.13169999999999998          3.0192337930202484E-002
  0.13200000000000001          2.6595160365104675E-002
  0.13229999999999997          2.1198052912950516E-002
  0.13260000000000000          1.3527328148484230E-002
  0.13290000000000002          4.1721472516655922E-003
  0.13319999999999999         -5.4844352416694164E-003
  0.13350000000000001         -1.4273356646299362E-002
  0.13380000000000003         -2.2236555814743042E-002
  0.13410000000000000         -2.9679875820875168E-002
  0.13440000000000002         -3.5755276679992676E-002
  0.13469999999999999         -3.9010990411043167E-002
  0.13500000000000001         -3.9224497973918915E-002
  0.13529999999999998         -3.7497848272323608E-002
  0.13560000000000000         -3.4416731446981430E-002
  0.13590000000000002         -2.9509585350751877E-002
  0.13619999999999999         -2.2048346698284149E-002
  0.13650000000000001         -1.3092169538140297E-002
  0.13680000000000003         -4.0797973051667213E-003
  0.13710000000000000          4.4148056767880917E-003
  0.13740000000000002          1.2974078767001629E-002
  0.13769999999999999          2.1459154784679413E-002
  0.13800000000000001          2.8492147102952003E-002
  0.13829999999999998          3.3066771924495697E-002
  0.13860000000000000          3.5181637853384018E-002
  0.13890000000000002          3.5392876714468002E-002
  0.13919999999999999          3.3586584031581879E-002
  0.13950000000000001          2.9200112447142601E-002
  0.13979999999999998          2.2470513358712196E-002
  0.14010000000000000          1.4100649394094944E-002
  0.14040000000000002          4.9912221729755402E-003
  0.14069999999999999         -3.8883062079548836E-003
  0.14100000000000001         -1.2336554937064648E-002
  0.14130000000000004         -2.0058564841747284E-002
  0.14160000000000000         -2.6492660865187645E-002
  0.14189999999999997         -3.0428621917963028E-002
  0.14219999999999999         -3.1341549009084702E-002
  0.14250000000000002         -2.9971741139888763E-002
  0.14279999999999998         -2.7107005938887596E-002
  0.14310000000000000         -2.2538017481565475E-002
  0.14339999999999997         -1.5457729808986187E-002
  0.14369999999999999         -6.8371035158634186E-003
  0.14400000000000002          1.5412867069244385E-003
  0.14429999999999998          9.0634208172559738E-003
  0.14460000000000001          1.6372626647353172E-002
  0.14490000000000003          2.3786066100001335E-002
  0.14520000000000000          2.9787685722112656E-002
  0.14550000000000002          3.2786622643470764E-002
  0.14579999999999999          3.3575490117073059E-002
  0.14610000000000001          3.3336233347654343E-002
  0.14640000000000003          3.1605362892150879E-002
  0.14670000000000000          2.6882447302341461E-002
  0.14699999999999996          1.9563732668757439E-002
  0.14729999999999999          1.1430241167545319E-002
  0.14760000000000001          3.3173556439578533E-003
  0.14789999999999998         -5.5141672492027283E-003
  0.14820000000000000         -1.5108684077858925E-002