  -1.4999999999999999E-002     0.0000000000000000     
  -1.4700000000000000E-002     0.0000000000000000     
  -1.4400000000000000E-002     0.0000000000000000     
  -1.4100000000000000E-002     0.0000000000000000     
  -1.3800000000000000E-002     0.0000000000000000     
  -1.3500000000000000E-002     0.0000000000000000     
  -1.3200000000000000E-002     0.0000000000000000     
  -1.2899999999999998E-002     0.0000000000000000     
  -1.2600000000000000E-002     0.0000000000000000     
  -1.2299999999999998E-002     0.0000000000000000     
  -1.2000000000000000E-002     0.0000000000000000     
  -1.1699999999999999E-002     0.0000000000000000     
  -1.1399999999999999E-002     0.0000000000000000     
  -1.1099999999999999E-002     0.0000000000000000     
  -1.0799999999999999E-002     0.0000000000000000     
  -1.0499999999999999E-002     0.0000000000000000     
  -1.0199999999999999E-002     0.0000000000000000     
  -9.8999999999999991E-003     0.0000000000000000     
  -9.5999999999999992E-003     0.0000000000000000     
  -9.2999999999999992E-003     0.0000000000000000     
  -8.9999999999999993E-003     0.0000000000000000     
  -8.6999999999999994E-003     0.0000000000000000     
  -8.3999999999999995E-003     0.0000000000000000     
  -8.0999999999999996E-003     0.0000000000000000     
  -7.7999999999999988E-003     0.0000000000000000     
  -7.4999999999999997E-003     0.0000000000000000     
  -7.1999999999999998E-003     0.0000000000000000     
  -6.8999999999999981E-003     0.0000000000000000     
  -6.5999999999999982E-003     0.0000000000000000     
  -6.3000000000000000E-003     0.0000000000000000     
  -6.0000000000000001E-003     0.0000000000000000     
  -5.6999999999999985E-003     0.0000000000000000     
  -5.3999999999999986E-003     0.0000000000000000     
  -5.1000000000000004E-003     0.0000000000000000     
  -4.7999999999999987E-003     0.0000000000000000     
  -4.5000000000000005E-003     0.0000000000000000     
  -4.1999999999999989E-003     0.0000000000000000     
  -3.8999999999999990E-003     0.0000000000000000     
  -3.5999999999999990E-003     0.0000000000000000     
  -3.2999999999999991E-003     0.0000000000000000     
  -2.9999999999999992E-003     0.0000000000000000     
  -2.6999999999999993E-003     0.0000000000000000     
  -2.3999999999999994E-003     0.0000000000000000     
  -2.0999999999999977E-003     0.0000000000000000     
  -1.7999999999999995E-003     0.0000000000000000     
  -1.4999999999999979E-003     0.0000000000000000     
  -1.1999999999999997E-003     0.0000000000000000     
  -8.9999999999999976E-004     0.0000000000000000     
  -5.9999999999999810E-004     0.0000000000000000     
  -2.9999999999999992E-004     0.0000000000000000     
   0.0000000000000000          0.0000000000000000     
   3.0000000000000165E-004     0.0000000000000000     
   5.9999999999999984E-004     1.4947533009881820E-037
   9.0000000000000149E-004     9.9161586768217312E-036
   1.2000000000000031E-003    -2.4615351061729059E-035
   1.5000000000000013E-003     4.2674405340620850E-036
   1.8000000000000030E-003     2.8446683191636076E-034
   2.1000000000000012E-003    -4.7836595669919137E-034
   2.3999999999999994E-003     8.8343947328262849E-034
   2.7000000000000010E-003    -2.2549386908969013E-033
   2.9999999999999992E-003     3.2224517242022476E-033
   3.3000000000000008E-003     2.8253115087899147E-033
   3.6000000000000025E-003    -1.0747053345992737E-032
   3.9000000000000007E-003     1.1904331391468118E-033
   4.2000000000000023E-003     7.0954470014045040E-033
   4.5000000000000005E-003     2.7400479444079816E-032
   4.7999999999999987E-003    -5.2892902335376650E-032
   5.1000000000000004E-003    -7.8395217011635652E-032
   5.4000000000000020E-003     5.7097371738084230E-031
   5.7000000000000037E-003    -1.1159001726593279E-030
   5.9999999999999984E-003    -8.3672910405655280E-031
   6.3000000000000000E-003     6.9479442422866276E-030
   6.6000000000000017E-003    -6.3499918951193851E-030
   6.9000000000000034E-003    -1.8085797226836297E-029
   7.2000000000000015E-003     4.4632219745693411E-029
   7.5000000000000032E-003     8.0412269632406541E-030
   7.8000000000000014E-003    -1.7550900879291230E-028
   8.0999999999999996E-003     2.1378872014518009E-028
   8.4000000000000012E-003     3.9303237191562660E-028
   8.7000000000000029E-003    -1.3517159536946231E-027
   9.0000000000000011E-003     1.7423577650667790E-028
   9.2999999999999992E-003     4.9448467026296052E-027
   9.6000000000000009E-003    -6.6997810309744759E-027
   9.8999999999999991E-003    -1.1098974802504245E-026
   1.0200000000000001E-002     4.3972980401669098E-026
   1.0500000000000002E-002    -2.3258053861365133E-026
   1.0800000000000004E-002    -1.4459705761350856E-025
   1.1099999999999999E-002     3.4819247998662426E-025
   1.1400000000000000E-002    -5.1815613654246804E-026
   1.1700000000000002E-002    -1.2202091607273427E-024
   1.2000000000000004E-002     2.3880430849438941E-024
   1.2300000000000002E-002    -5.0700484809007039E-026
   1.2600000000000000E-002    -7.9735417615707383E-024
   1.2900000000000002E-002     1.4416636569027538E-023
   1.3200000000000000E-002    -2.1284689957265991E-025
   1.3500000000000002E-002    -4.3854765650717203E-023
   1.3800000000000003E-002     7.6106188868313027E-023
   1.4100000000000001E-002    -3.0904730367300447E-024
   1.4400000000000000E-002    -2.0727969043890539E-022
   1.4700000000000001E-002     3.5119688652365766E-022
   1.4999999999999999E-002    -2.6600553807120804E-023
   1.5300000000000001E-002    -8.5495043492652879E-022
   1.5600000000000003E-002     1.4185691101919100E-021
   1.5899999999999997E-002    -1.6056217380669010E-022
   1.6199999999999999E-002    -3.0541990161192224E-021
   1.6500000000000001E-002     5.0252280422169131E-021
   1.6800000000000002E-002    -9.2995709684337029E-022
   1.7100000000000004E-002    -9.2564224731068736E-021
   1.7400000000000006E-002     1.5842434510254080E-020
   1.7700000000000000E-002    -5.4441045495955236E-021
   1.8000000000000002E-002    -2.2673143374700664E-020
   1.8300000000000004E-002     4.6198773918819651E-020
   1.8600000000000005E-002    -3.0866415809652420E-020
   1.8900000000000000E-002    -4.0580967095142960E-020
   1.9200000000000002E-002     1.3632514228832976E-019
   1.9500000000000003E-002    -1.5537294044631804E-019
   1.9799999999999998E-002    -3.5892229502205369E-020
   2.0100000000000000E-002     4.3600328196152097E-019
   2.0400000000000001E-002    -6.8385647538203654E-019
   2.0700000000000003E-002     1.7205431704345988E-019
   2.0999999999999998E-002     1.2560443952500269E-018
   2.1299999999999999E-002    -2.7674710852536036E-018
   2.1600000000000001E-002     3.0051467518148433E-018
   2.1900000000000003E-002    -1.2160361505626746E-019
   2.2200000000000004E-002    -9.6323519698768841E-018
   2.2500000000000006E-002     2.8146696387746037E-017
   2.2800000000000001E-002    -4.4253752490003154E-017
   2.3100000000000002E-002     3.6754076452899276E-017
   2.3400000000000004E-002     5.1772860654057128E-017
   2.3699999999999999E-002    -5.4796176014436392E-016
   2.4000000000000000E-002     1.9706219400288929E-015
   2.4300000000000002E-002    -2.2441430664991730E-015
   2.4599999999999997E-002    -7.9061868949467998E-015
   2.4900000000000005E-002     3.3153547181891119E-014
   2.5200000000000000E-002    -2.6620314297082920E-014
   2.5499999999999995E-002    -1.1229843552458540E-013
   2.5800000000000003E-002     3.1034815559452533E-013
   2.6099999999999998E-002    -6.5740849450410949E-014
   2.6400000000000007E-002    -8.7015626908798493E-013
   2.6700000000000002E-002     1.2333243150711160E-012
   2.6999999999999996E-002    -4.7239816225452813E-013
   2.7300000000000005E-002     2.3911606202020597E-012
   2.7600000000000000E-002     1.2194793785891278E-012
   2.7900000000000008E-002    -5.1951890706058990E-011
   2.8200000000000003E-002     1.0470308647869686E-010
   2.8499999999999998E-002     2.0671658829130024E-010
   2.8800000000000006E-002    -9.7901897699870233E-010
   2.9100000000000001E-002     1.1886634732061196E-010
   2.9400000000000003E-002     4.9480175512428559E-009
   2.9700000000000004E-002    -5.6563931316588878E-009
   3.0000000000000006E-002    -1.7395560547583955E-008
   3.0300000000000001E-002     3.6152293603208818E-008
   3.0600000000000002E-002     4.6380773000009867E-008
   3.0900000000000004E-002    -1.6251318868398812E-007
   3.1199999999999999E-002    -1.3871932935671794E-007
   3.1500000000000007E-002     7.4023029128511553E-007
   3.1800000000000002E-002     2.1610701423924183E-006
   3.2099999999999997E-002     4.6704917622264475E-006
   3.2400000000000005E-002     1.0923289664788172E-005
   3.2700000000000000E-002     2.1025485693826340E-005
   3.3000000000000002E-002     3.1127590773394331E-005
   3.3300000000000003E-002     4.1250994399888441E-005
   3.3599999999999998E-002     5.7504541473463178E-005
   3.3900000000000000E-002     8.4623534348793328E-005
   3.4200000000000001E-002     1.2504438927862793E-004
   3.4500000000000003E-002     1.8532559624873102E-004
   3.4799999999999998E-002     2.7698962367139757E-004
   3.5099999999999999E-002     4.0947934030555189E-004
   3.5400000000000001E-002     5.8496923884376884E-004
   3.5699999999999996E-002     8.0826284829527140E-004
   3.6000000000000004E-002     1.0994855547323823E-003
   3.6299999999999999E-002     1.4809393323957920E-003
   3.6600000000000008E-002     1.9564880058169365E-003
   3.6900000000000002E-002     2.5188713334500790E-003
   3.7199999999999997E-002     3.1638341024518013E-003
   3.7500000000000006E-002     3.8816309534013271E-003
   3.7800000000000000E-002     4.6370993368327618E-003
   3.8100000000000009E-002     5.3536980412900448E-003
   3.8400000000000004E-002     5.9106191620230675E-003
   3.8699999999999998E-002     6.1514992266893387E-003
   3.9000000000000007E-002     5.8835409581661224E-003
   3.9300000000000002E-002     4.8586777411401272E-003
   3.9600000000000003E-002     2.7559015434235334E-003
   3.9900000000000005E-002    -8.1020902143791318E-004
   4.0200000000000000E-002    -6.2577221542596817E-003
   4.0500000000000001E-002    -1.4007279649376869E-002
   4.0800000000000003E-002    -2.4469759315252304E-002
   4.1100000000000005E-002    -3.8020882755517960E-002
   4.1399999999999999E-002    -5.4960947483778000E-002
   4.1700000000000008E-002    -7.5476221740245819E-002
   4.2000000000000003E-002    -9.9595040082931519E-002
   4.2299999999999997E-002   -0.12713398039340973     
   4.2600000000000006E-002   -0.15770170092582703     
   4.2900000000000001E-002   -0.19071198999881744     
   4.3200000000000002E-002   -0.22538416087627411     
   4.3500000000000004E-002   -0.26079970598220825     
   4.3799999999999999E-002   -0.29595336318016052     
   4.4100000000000000E-002   -0.32979676127433777     
   4.4400000000000002E-002   -0.36131909489631653     
   4.4700000000000004E-002   -0.38963198661804199     
   4.4999999999999998E-002   -0.41396465897560120     
   4.5300000000000000E-002   -0.43369269371032715     
   4.5600000000000002E-002   -0.44829568266868591     
   4.5899999999999996E-002   -0.45725893974304199     
   4.6200000000000005E-002   -0.45994830131530762     
   4.6500000000000000E-002   -0.45554864406585693     
   4.6799999999999994E-002   -0.44291818141937256     
   4.7100000000000003E-002   -0.42048913240432739     
   4.7399999999999998E-002   -0.38628825545310974     
   4.7700000000000006E-002   -0.33792662620544434     
   4.8000000000000001E-002   -0.27290505170822144     
   4.8300000000000010E-002   -0.18873968720436096     
   4.8600000000000004E-002    -8.3438947796821594E-002
   4.8899999999999999E-002     4.4096536934375763E-002
   4.9200000000000008E-002    0.19371265172958374     
   4.9500000000000002E-002    0.36341926455497742     
   4.9800000000000011E-002    0.54941022396087646     
   5.0100000000000006E-002    0.74561667442321777     
   5.0400000000000000E-002    0.94398730993270874     
   5.0700000000000009E-002     1.1346710920333862     
   5.1000000000000004E-002     1.3066769838333130     
   5.1299999999999998E-002     1.4485671520233154     
   5.1600000000000007E-002     1.5493135452270508     
   5.1900000000000002E-002     1.5994963645935059     
   5.2200000000000010E-002     1.5920164585113525     
   5.2500000000000005E-002     1.5231441259384155     
   5.2800000000000000E-002     1.3930504322052002     
   5.3099999999999994E-002     1.2061483860015869     
   5.3400000000000003E-002    0.97122657299041748     
   5.3699999999999998E-002    0.70084398984909058     
   5.4000000000000006E-002    0.41068533062934875     
   5.4300000000000001E-002    0.11849869787693024     
   5.4599999999999996E-002   -0.15747606754302979     
   5.4900000000000004E-002   -0.39940774440765381     
   5.5199999999999999E-002   -0.59199470281600952     
   5.5499999999999994E-002   -0.72304207086563110     
   5.5800000000000002E-002   -0.78493922948837280     
   5.6099999999999997E-002   -0.77503097057342529     
   5.6400000000000006E-002   -0.69581568241119385     
   5.6700000000000000E-002   -0.55496114492416382     
   5.6999999999999995E-002   -0.36422455310821533     
   5.7300000000000004E-002   -0.13894164562225342     
   5.7599999999999998E-002    0.10370557010173798     
   5.7900000000000007E-002    0.34563076496124268     
   5.8200000000000002E-002    0.56934243440628052     
   5.8499999999999996E-002    0.75913363695144653     
   5.8800000000000005E-002    0.90195018053054810     
   5.9100000000000000E-002    0.98820227384567261     
   5.9400000000000008E-002     1.0118411779403687     
   5.9700000000000003E-002    0.97086638212203979     
   6.0000000000000012E-002    0.86648827791213989     
   6.0300000000000006E-002    0.70329660177230835     
   6.0600000000000001E-002    0.48847115039825439     
   6.0900000000000010E-002    0.23117500543594360     
   6.1200000000000004E-002    -5.7687394320964813E-002
   6.1500000000000013E-002   -0.36656370759010315     
   6.1800000000000008E-002   -0.68313992023468018     
   6.2100000000000002E-002   -0.99514240026473999     
   6.2399999999999997E-002    -1.2905621528625488     
   6.2700000000000006E-002    -1.5581729412078857     
   6.3000000000000000E-002    -1.7877703905105591     
   6.3300000000000009E-002    -1.9706734418869019     
   6.3600000000000004E-002    -2.1000995635986328     
   6.3899999999999998E-002    -2.1714792251586914     
   6.4199999999999993E-002    -2.1829073429107666     
   6.4500000000000002E-002    -2.1349935531616211     
   6.4800000000000010E-002    -2.0311455726623535     
   6.5100000000000005E-002    -1.8775703907012939     
   6.5400000000000000E-002    -1.6825258731842041     
   6.5700000000000008E-002    -1.4562757015228271     
   6.5999999999999989E-002    -1.2100366353988647     
   6.6299999999999998E-002   -0.95566469430923462     
   6.6600000000000006E-002   -0.70461136102676392     
   6.6900000000000001E-002   -0.46739375591278076     
   6.7199999999999996E-002   -0.25315308570861816     
   6.7500000000000004E-002    -6.8560317158699036E-002
   6.7800000000000013E-002     8.1309497356414795E-002
   6.8099999999999994E-002    0.19449089467525482     
   6.8400000000000002E-002    0.27032941579818726     
   6.8700000000000011E-002    0.31089830398559570     
   6.8999999999999992E-002    0.31926688551902771     
   6.9300000000000000E-002    0.29971483349800110     
   6.9600000000000009E-002    0.25775018334388733     
   6.9900000000000004E-002    0.19833290576934814     
   7.0199999999999999E-002    0.12741047143936157     
   7.0500000000000007E-002     4.9993466585874557E-002
   7.0800000000000016E-002    -2.8441291302442551E-002
   7.1099999999999997E-002   -0.10310477763414383     
   7.1400000000000005E-002   -0.16918611526489258     
   7.1700000000000000E-002   -0.22183519601821899     
   7.1999999999999995E-002   -0.25652396678924561     
   7.2300000000000003E-002   -0.26798072457313538     
   7.2600000000000012E-002   -0.25170484185218811     
   7.2900000000000006E-002   -0.20241512358188629     
   7.3200000000000001E-002   -0.11555819958448410     
   7.3499999999999996E-002     1.2970664538443089E-002
   7.3800000000000004E-002    0.18652637302875519     
   7.4099999999999999E-002    0.40656825900077820     
   7.4400000000000008E-002    0.67285734415054321     
   7.4700000000000003E-002    0.98202669620513916     
   7.5000000000000011E-002     1.3279856443405151     
   7.5299999999999992E-002     1.7006101608276367     
   7.5600000000000001E-002     2.0865182876586914     
   7.5900000000000009E-002     2.4681129455566406     
   7.6200000000000004E-002     2.8251519203186035     
   7.6499999999999999E-002     3.1350674629211426     
   7.6800000000000007E-002     3.3744077682495117     
   7.7099999999999988E-002     3.5208747386932373     
   7.7399999999999997E-002     3.5544214248657227     
   7.7700000000000005E-002     3.4605064392089844     
   7.8000000000000014E-002     3.2306823730468750     
   7.8299999999999995E-002     2.8655722141265869     
   7.8600000000000003E-002     2.3744354248046875     
   7.8900000000000012E-002     1.7766004800796509     
   7.9199999999999993E-002     1.1001592874526978     
   7.9500000000000001E-002    0.38070929050445557     
   7.9800000000000010E-002   -0.34086549282073975     
   8.0100000000000018E-002    -1.0220419168472290     
   8.0399999999999999E-002    -1.6212211847305298     
   8.0700000000000008E-002    -2.1026945114135742     
   8.1000000000000003E-002    -2.4380216598510742     
   8.1299999999999997E-002    -2.6111931800842285     
   8.1600000000000006E-002    -2.6178219318389893     
   8.1900000000000014E-002    -2.4681997299194336     
   8.2199999999999995E-002    -2.1844682693481445     
   8.2500000000000004E-002    -1.8005726337432861     
   8.2799999999999999E-002    -1.3580549955368042     
   8.3100000000000007E-002   -0.90281605720520020     
   8.3400000000000002E-002   -0.48109576106071472     
   8.3700000000000011E-002   -0.13449479639530182     
   8.4000000000000005E-002    0.10275268554687500     
   8.4300000000000000E-002    0.20846384763717651     
   8.4599999999999995E-002    0.17309442162513733     
   8.4900000000000003E-002     2.1831532940268517E-003
   8.5199999999999998E-002   -0.28561139106750488     
   8.5500000000000007E-002   -0.65854775905609131     
   8.5800000000000001E-002    -1.0757502317428589     
   8.6100000000000010E-002    -1.4900861978530884     
   8.6399999999999991E-002    -1.8523938655853271     
   8.6699999999999999E-002    -2.1159799098968506     
   8.7000000000000008E-002    -2.2403082847595215     
   8.7300000000000003E-002    -2.1949195861816406     
   8.7599999999999997E-002    -1.9621710777282715     
   8.7900000000000006E-002    -1.5390180349349976     
   8.8200000000000014E-002   -0.93809944391250610     
   8.8499999999999995E-002   -0.18658706545829773     
   8.8800000000000004E-002    0.67467421293258667     
   8.9100000000000013E-002     1.5946513414382935     
   8.9399999999999993E-002     2.5145192146301270     
   8.9700000000000002E-002     3.3732666969299316     
   9.0000000000000011E-002     4.1107678413391113     
   9.0299999999999991E-002     4.6731977462768555     
   9.0600000000000000E-002     5.0169782638549805     
   9.0900000000000009E-002     5.1112241744995117     
   9.1200000000000017E-002     4.9420781135559082     
   9.1499999999999998E-002     4.5113592147827148     
   9.1800000000000007E-002     3.8391814231872559     
   9.2100000000000001E-002     2.9598181247711182     
   9.2399999999999996E-002     1.9210380315780640     
   9.2700000000000005E-002    0.77928602695465088     
   9.3000000000000013E-002   -0.40435475111007690     
   9.3300000000000008E-002    -1.5685703754425049     
   9.3600000000000003E-002    -2.6568272113800049     
   9.3899999999999997E-002    -3.6202220916748047     
   9.4200000000000006E-002    -4.4216542243957520     
   9.4500000000000001E-002    -5.0364294052124023     
   9.4800000000000009E-002    -5.4533033370971680     
   9.5100000000000004E-002    -5.6738152503967285     
   9.5399999999999999E-002    -5.7101907730102539     
   9.5699999999999993E-002    -5.5832223892211914     
   9.6000000000000002E-002    -5.3187127113342285     
   9.6300000000000011E-002    -4.9455208778381348     
   9.6600000000000005E-002    -4.4921150207519531     
   9.6900000000000000E-002    -3.9847085475921631     
   9.7200000000000009E-002    -3.4462163448333740     
   9.7499999999999989E-002    -2.8946597576141357     
   9.7799999999999998E-002    -2.3446819782257080     
   9.8100000000000007E-002    -1.8065848350524902     
   9.8400000000000015E-002    -1.2877017259597778     
   9.8699999999999996E-002   -0.79372179508209229     
   9.9000000000000005E-002   -0.32883325219154358     
   9.9300000000000013E-002    0.10308489203453064     
   9.9599999999999994E-002    0.49874672293663025     
   9.9900000000000003E-002    0.85465103387832642     
  0.10020000000000001          1.1682564020156860     
  0.10049999999999999          1.4374717473983765     
  0.10080000000000000          1.6617932319641113     
  0.10110000000000001          1.8422110080718994     
  0.10140000000000000          1.9811743497848511     
  0.10170000000000000          2.0836346149444580     
  0.10200000000000001          2.1549015045166016     
  0.10230000000000002          2.2023615837097168     
  0.10260000000000000          2.2323608398437500     
  0.10290000000000001          2.2518389225006104     
  0.10320000000000000          2.2661776542663574     
  0.10350000000000001          2.2789282798767090     
  0.10380000000000000          2.2921583652496338     
  0.10410000000000001          2.3047716617584229     
  0.10440000000000001          2.3142855167388916     
  0.10470000000000000          2.3152997493743896     
  0.10500000000000000          2.3015246391296387     
  0.10530000000000000          2.2650406360626221     
  0.10560000000000000          2.1983172893524170     
  0.10590000000000001          2.0935876369476318     
  0.10620000000000000          1.9447233676910400     
  0.10650000000000001          1.7471094131469727     
  0.10679999999999999          1.4993643760681152     
  0.10710000000000000          1.2015761137008667     
  0.10740000000000001         0.85867571830749512     
  0.10770000000000000         0.47698420286178589     
  0.10800000000000000          6.7278400063514709E-002
  0.10830000000000001        -0.35826325416564941     
  0.10859999999999999        -0.78487342596054077     
  0.10890000000000000         -1.1966332197189331     
  0.10920000000000001         -1.5778633356094360     
  0.10950000000000001         -1.9121254682540894     
  0.10979999999999999         -2.1866033077239990     
  0.11009999999999999         -2.3877749443054199     
  0.11040000000000001         -2.5084888935089111     
  0.11070000000000001         -2.5421397686004639     
  0.11100000000000000         -2.4879472255706787     
  0.11130000000000000         -2.3482944965362549     
  0.11160000000000002         -2.1295819282531738     
  0.11190000000000001         -1.8428151607513428     
  0.11220000000000001         -1.5006185770034790     
  0.11250000000000000         -1.1197929382324219     
  0.11280000000000000        -0.71688205003738403     
  0.11309999999999999        -0.31108918786048889     
  0.11340000000000001          8.0652944743633270E-002
  0.11369999999999998         0.44180497527122498     
  0.11400000000000000         0.75892782211303711     
  0.11430000000000000          1.0217835903167725     
  0.11460000000000002          1.2238396406173706     
  0.11489999999999999          1.3627774715423584     
  0.11520000000000001          1.4401656389236450     
  0.11550000000000001          1.4606324434280396     
  0.11580000000000000          1.4310210943222046     
  0.11609999999999999          1.3595027923583984     
  0.11640000000000002          1.2542788982391357     
  0.11670000000000001          1.1221638917922974     
  0.11700000000000001         0.96871739625930786     
  0.11730000000000000         0.79827368259429932     
  0.11760000000000000         0.61354821920394897     
  0.11789999999999999         0.41899105906486511     
  0.11820000000000001         0.22028417885303497     
  0.11850000000000001          2.8660729527473450E-002
  0.11880000000000000        -0.13925744593143463     
  0.11910000000000000        -0.25919738411903381     
  0.11940000000000002        -0.29988768696784973     
  0.11970000000000001        -0.22496634721755981     
  0.12000000000000001          3.8410341367125511E-003
  0.12030000000000000         0.42114549875259399     
  0.12060000000000000          1.0522434711456299     
  0.12089999999999999          1.9056508541107178     
  0.12119999999999999          2.9668240547180176     
  0.12150000000000001          4.1944966316223145     
  0.12180000000000001          5.5164861679077148     
  0.12210000000000000          6.8326683044433594     
  0.12239999999999999          8.0186271667480469     
  0.12270000000000002          8.9352617263793945     
  0.12300000000000001          9.4413852691650391     
  0.12330000000000001          9.4068393707275391     
  0.12360000000000000          8.7299013137817383     
  0.12390000000000000          7.3494477272033691     
  0.12419999999999999          5.2592248916625977     
  0.12450000000000001          2.5135011672973633     
  0.12480000000000001        -0.77024912834167480     
  0.12509999999999999         -4.4153881072998047     
  0.12540000000000001         -8.1982297897338867     
  0.12570000000000003         -11.861632347106934     
  0.12600000000000000         -15.138618469238281     
  0.12630000000000002         -17.772247314453125     
  0.12659999999999999         -19.540004730224609     
  0.12690000000000001         -20.273548126220703     
  0.12719999999999998         -19.874553680419922     
  0.12750000000000000         -18.326162338256836     
  0.12780000000000002         -15.693821907043457     
  0.12809999999999999         -12.123941421508789     
  0.12840000000000001         -7.8298959732055664     
  0.12869999999999998         -3.0773007869720459     
  0.12900000000000000          1.8374149799346924     
  0.12930000000000003          6.6107096672058105     
  0.12959999999999999          10.952176094055176     
  0.12990000000000002          14.607990264892578     
  0.13019999999999998          17.374647140502930     
  0.13050000000000000          19.112764358520508     
  0.13080000000000003          19.751478195190430     
  0.13109999999999999          19.289773941040039     
  0.13140000000000002          17.791015625000000     
  0.13169999999999998          15.374633789062500     
  0.13200000000000001          12.203954696655273     
  0.13229999999999997          8.4725723266601562     
  0.13260000000000000          4.3905868530273438     
  0.13290000000000002         0.17010848224163055     
  0.13319999999999999         -3.9844310283660889     
  0.13350000000000001         -7.8889698982238770     
  0.13380000000000003         -11.384655952453613     
  0.13410000000000000         -14.343976020812988     
  0.13440000000000002         -16.673576354980469     
  0.13469999999999999         -18.312759399414062     
  0.13500000000000001         -19.234571456909180     
  0.13529999999999998         -19.440380096435547     
  0.13560000000000000         -18.958715438842773     
  0.13590000000000002         -17.837854385375977     
  0.13619999999999999         -16.144247055053711     
  0.13650000000000001         -13.956349372863770     
  0.13680000000000003         -11.360147476196289     
  0.13710000000000000         -8.4486246109008789     
  0.13740000000000002         -5.3127646446228027     
  0.13769999999999999         -2.0481245517730713     
  0.13800000000000001          1.2572435140609741     
  0.13829999999999998          4.5138959884643555     
  0.13860000000000000          7.6414837837219238     
  0.13890000000000002          10.562379837036133     
  0.13919999999999999          13.206437110900879     
  0.13950000000000001          15.513033866882324     
  0.13979999999999998          17.426647186279297     
  0.14010000000000000          18.907611846923828     
  0.14040000000000002          19.921829223632812     
  0.14069999999999999          20.453342437744141     
  0.14100000000000001          20.495777130126953     
  0.14130000000000004          20.058956146240234     
  0.14160000000000000          19.165576934814453     
  0.14189999999999997          17.849767684936523     
  0.14219999999999999          16.159845352172852     
  0.14250000000000002          14.148783683776855     
  0.14279999999999998          11.881991386413574     
  0.14310000000000000          9.4226484298706055     
  0.14339999999999997          6.8410511016845703     
  0.14369999999999999          4.2002224922180176     
  0.14400000000000002          1.5644932985305786     
  0.14429999999999998         -1.0110991001129150     
  0.14460000000000001         -3.4770476818084717     
  0.14490000000000003         -5.7913646697998047     
  0.14520000000000000         -7.9221596717834473     
  0.14550000000000002         -9.8416976928710938     
  0.14579999999999999         -11.532855033874512     
  0.14610000000000001         -12.979839324951172     
  0.14640000000000003         -14.175288200378418     
  0.14670000000000000         -15.110720634460449     
  0.14699999999999996         -15.783189773559570     
  0.14729999999999999         -16.188617706298828     
  0.14760000000000001         -16.325685501098633     
  0.14789999999999998         -16.194019317626953     
  0.14820000000000000         -15.795204162597656     