  -1.4999999999999999E-002     0.0000000000000000     
  -1.4700000000000000E-002     0.0000000000000000     
  -1.4400000000000000E-002     0.0000000000000000     
  -1.4100000000000000E-002     0.0000000000000000     
  -1.3800000000000000E-002     0.0000000000000000     
  -1.3500000000000000E-002     0.0000000000000000     
  -1.3200000000000000E-002     0.0000000000000000     
  -1.2899999999999998E-002     0.0000000000000000     
  -1.2600000000000000E-002     0.0000000000000000     
  -1.2299999999999998E-002     0.0000000000000000     
  -1.2000000000000000E-002     0.0000000000000000     
  -1.1699999999999999E-002     0.0000000000000000     
  -1.1399999999999999E-002     0.0000000000000000     
  -1.1099999999999999E-002     0.0000000000000000     
  -1.0799999999999999E-002     0.0000000000000000     
  -1.0499999999999999E-002     0.0000000000000000     
  -1.0199999999999999E-002     0.0000000000000000     
  -9.8999999999999991E-003     0.0000000000000000     
  -9.5999999999999992E-003     0.0000000000000000     
  -9.2999999999999992E-003     2.6060683222742394E-037
  -8.9999999999999993E-003     1.4253346005717492E-036
  -8.6999999999999994E-003    -3.0259830063636757E-035
  -8.3999999999999995E-003     4.2264508534464186E-035
  -8.0999999999999996E-003    -9.5392999293910851E-035
  -7.7999999999999988E-003    -5.9984568987255901E-034
  -7.4999999999999997E-003     6.5015376442188154E-034
  -7.1999999999999998E-003     2.9503113493208830E-033
  -6.8999999999999981E-003     7.5607786508347375E-033
  -6.5999999999999982E-003    -3.9758626164528051E-032
  -6.3000000000000000E-003    -4.8415960467481544E-032
  -6.0000000000000001E-003     2.4298123644048008E-031
  -5.6999999999999985E-003     1.3549534453815338E-031
  -5.3999999999999986E-003    -2.1047132856059695E-031
  -5.1000000000000004E-003    -1.8142976450818648E-030
  -4.7999999999999987E-003    -5.3839543761198096E-030
  -4.5000000000000005E-003     2.6272776373380815E-029
  -4.1999999999999989E-003     1.1038548475996008E-029
  -3.8999999999999990E-003    -1.4137799421939468E-028
  -3.5999999999999990E-003     2.4220988983921818E-028
  -3.2999999999999991E-003    -5.3506040507646378E-028
  -2.9999999999999992E-003     5.4661642862750548E-028
  -2.6999999999999993E-003     4.1724173187260834E-027
  -2.3999999999999994E-003    -1.6309809744138518E-026
  -2.0999999999999977E-003     2.6090970944374292E-026
  -1.7999999999999995E-003    -2.1515878336781361E-026
  -1.4999999999999979E-003    -3.7086638582500809E-026
  -1.1999999999999997E-003     2.7937932168821642E-025
  -8.9999999999999976E-004    -7.2044815910182907E-025
  -5.9999999999999810E-004     9.8465551654741892E-025
  -2.9999999999999992E-004    -5.2407254706816613E-025
   0.0000000000000000         -2.3154539428705524E-024
   3.0000000000000165E-004     1.2057600736546847E-023
   5.9999999999999984E-004    -3.0515504822567438E-023
   9.0000000000000149E-004     4.2136206263823130E-023
   1.2000000000000031E-003     6.3194935188687602E-024
   1.5000000000000013E-003    -2.2597915553522977E-022
   1.8000000000000030E-003     6.7086057044453077E-022
   2.1000000000000012E-003    -8.8269533852234915E-022
   2.3999999999999994E-003    -5.1540376932189304E-022
   2.7000000000000010E-003     4.8926729780906122E-021
   2.9999999999999992E-003    -1.0117748421997100E-020
   3.3000000000000008E-003     5.7784498134163019E-021
   3.6000000000000025E-003     2.3592085701859306E-020
   3.9000000000000007E-003    -7.2351715455089703E-020
   4.2000000000000023E-003     7.5500871700614165E-020
   4.5000000000000005E-003     7.4790564510103496E-020
   4.7999999999999987E-003    -3.8412788267460262E-019
   5.1000000000000004E-003     5.4034859005266810E-019
   5.4000000000000020E-003     5.6175684858830868E-020
   5.7000000000000037E-003    -1.6162338887051472E-018
   5.9999999999999984E-003     2.9062408184162105E-018
   6.3000000000000000E-003    -1.2617002453768239E-018
   6.6000000000000017E-003    -4.9523910394152761E-018
   6.9000000000000034E-003     1.2438116886134246E-017
   7.2000000000000015E-003    -1.1672203750640652E-017
   7.5000000000000032E-003    -7.1520606849384112E-018
   7.8000000000000014E-003     4.1309693014229661E-017
   8.0999999999999996E-003    -6.4807946397426701E-017
   8.4000000000000012E-003     3.2425579282029906E-017
   8.7000000000000029E-003     9.0117905084030406E-017
   9.0000000000000011E-003    -2.6463993256243194E-016
   9.2999999999999992E-003     3.2053070335161043E-016
   9.6000000000000009E-003     1.0985168280563952E-018
   9.8999999999999991E-003    -7.9094239120370131E-016
   1.0200000000000001E-002     1.5679559960770660E-015
   1.0500000000000002E-002    -1.1573602886263016E-015
   1.0800000000000004E-002    -1.4868805856562432E-015
   1.1099999999999999E-002     5.4774997384734575E-015
   1.1400000000000000E-002    -6.7880954687123700E-015
   1.1700000000000002E-002     2.7254003029027585E-016
   1.2000000000000004E-002     1.4215918818418733E-014
   1.2300000000000002E-002    -2.5832120247905610E-014
   1.2600000000000000E-002     1.5860273834562548E-014
   1.2900000000000002E-002     2.4790935000111024E-014
   1.3200000000000000E-002    -7.3945584438298682E-014
   1.3500000000000002E-002     7.7626861144732370E-014
   1.3800000000000003E-002     9.7631175546967355E-015
   1.4100000000000001E-002    -1.6079990504618688E-013
   1.4400000000000000E-002     2.4844499788131394E-013
   1.4700000000000001E-002    -1.2146477243158249E-013
   1.4999999999999999E-002    -2.3592273101254568E-013
   1.5300000000000001E-002     5.9167085818773231E-013
   1.5600000000000003E-002    -5.6170833863200019E-013
   1.5899999999999997E-002    -6.6118007192554522E-014
   1.6199999999999999E-002     1.0150268432778830E-012
   1.6500000000000001E-002    -1.5507974138899122E-012
   1.6800000000000002E-002     9.5326151443613980E-013
   1.7100000000000004E-002     8.7239024589086704E-013
   1.7400000000000006E-002    -3.0642451295063289E-012
   1.7700000000000000E-002     3.9511794777844578E-012
   1.8000000000000002E-002    -1.7167671008087368E-012
   1.8300000000000004E-002    -4.1706280191818669E-012
   1.8600000000000005E-002     1.0776622698508573E-011
   1.8900000000000000E-002    -1.0779274446001228E-011
   1.9200000000000002E-002    -3.1471931856374872E-012
   1.9500000000000003E-002     2.7050191491939962E-011
   1.9799999999999998E-002    -3.5498125094405145E-011
   2.0100000000000000E-002    -6.5095937946929159E-012
   2.0400000000000001E-002     9.2223928057759914E-011
   2.0700000000000003E-002    -1.1736241596020201E-010
   2.0999999999999998E-002    -8.0525175256250568E-011
   2.1299999999999999E-002     5.2550922459924127E-010
   2.1600000000000001E-002    -7.2529755633710141E-010
   2.1900000000000003E-002    -8.2409285635461433E-010
   2.2200000000000004E-002     5.2077755485998940E-009
   2.2500000000000006E-002    -5.0298035658254595E-009
   2.2800000000000001E-002    -1.9072544027244936E-008
   2.3100000000000002E-002     4.5036325877202403E-008
   2.3400000000000004E-002     4.5102706776586232E-008
   2.3699999999999999E-002    -2.3740764069030159E-007
   2.4000000000000000E-002    -7.5558354378776810E-008
   2.4300000000000002E-002     1.9525853886523582E-006
   2.4599999999999997E-002     6.1906352786730320E-006
   2.4900000000000005E-002     1.1593126499551267E-005
   2.5200000000000000E-002     1.6694261653801341E-005
   2.5499999999999995E-002     2.1656080345408058E-005
   2.5800000000000003E-002     3.0717024426643309E-005
   2.6099999999999998E-002     4.7936790532311104E-005
   2.6400000000000007E-002     7.2689314523674163E-005
   2.6700000000000002E-002     1.0733307297777685E-004
   2.6999999999999996E-002     1.5939563603651176E-004
   2.7300000000000005E-002     2.3173693504198846E-004
   2.7600000000000000E-002     3.2764361514109677E-004
   2.7900000000000008E-002     4.6131104655679905E-004
   2.8200000000000003E-002     6.4433082158429564E-004
   2.8499999999999998E-002     8.7540166067830508E-004
   2.8800000000000006E-002     1.1581533880958665E-003
   2.9100000000000001E-002     1.5041303082421326E-003
   2.9400000000000003E-002     1.9110856277036667E-003
   2.9700000000000004E-002     2.3569885786719688E-003
   3.0000000000000006E-002     2.8068097031318656E-003
   3.0300000000000001E-002     3.2144179297026176E-003
   3.0600000000000002E-002     3.5079048230876458E-003
   3.0900000000000004E-002     3.5700249263056344E-003
   3.1199999999999999E-002     3.2277267246885732E-003
   3.1500000000000007E-002     2.2538989271227786E-003
   3.1800000000000002E-002     3.7675811956681612E-004
   3.2099999999999997E-002    -2.7528859062642130E-003
   3.2400000000000005E-002    -7.5544135469729351E-003
   3.2700000000000000E-002    -1.4465572708686897E-002
   3.3000000000000002E-002    -2.3967798260174950E-002
   3.3300000000000003E-002    -3.6581424420019992E-002
   3.3599999999999998E-002    -5.2803364794367647E-002
   3.3900000000000000E-002    -7.3064653456295758E-002
   3.4200000000000001E-002    -9.7726727195125207E-002
   3.4500000000000003E-002   -0.12703812432792638     
   3.4799999999999998E-002   -0.16104634079243096     
   3.5099999999999999E-002   -0.19957390458249957     
   3.5400000000000001E-002   -0.24222127667307358     
   3.5699999999999996E-002   -0.28834916980067948     
   3.6000000000000004E-002   -0.33706895875200260     
   3.6299999999999999E-002   -0.38726828278288217     
   3.6600000000000008E-002   -0.43763413450176536     
   3.6900000000000002E-002   -0.48668977473761466     
   3.7199999999999997E-002   -0.53282656372293680     
   3.7500000000000006E-002   -0.57437219986126031     
   3.7800000000000000E-002   -0.60955866930736136     
   3.8100000000000009E-002   -0.63659952628568561     
   3.8400000000000004E-002   -0.65364474884861679     
   3.8699999999999998E-002   -0.65886511185959051     
   3.9000000000000007E-002   -0.65029535490088364     
   3.9300000000000002E-002   -0.62601965059236164     
   3.9600000000000003E-002   -0.58408749917278868     
   3.9900000000000005E-002   -0.52259813811531686     
   4.0200000000000000E-002   -0.43989450972605582     
   4.0500000000000001E-002   -0.33459238609547803     
   4.0800000000000003E-002   -0.20593318593397480     
   4.1100000000000005E-002    -5.3932806682936985E-002
   4.1399999999999999E-002    0.12033406857953377     
   4.1700000000000008E-002    0.31448709432892041     
   4.2000000000000003E-002    0.52462966231102737     
   4.2299999999999997E-002    0.74545593554898382     
   4.2600000000000006E-002    0.96984185292412306     
   4.2900000000000001E-002     1.1895966360166028     
   4.3200000000000002E-002     1.3952533582000228     
   4.3500000000000004E-002     1.5770365857050095     
   4.3799999999999999E-002     1.7250950450827105     
   4.4100000000000000E-002     1.8304088993083738     
   4.4400000000000002E-002     1.8855247015781558     
   4.4700000000000004E-002     1.8852521153034445     
   4.4999999999999998E-002     1.8273745579648093     
   4.5300000000000000E-002     1.7129769235900412     
   4.5600000000000002E-002     1.5468277569657758     
   4.5899999999999996E-002     1.3370801960018355     
   4.6200000000000005E-002     1.0952843826677281     
   4.6500000000000000E-002    0.83531212345644690     
   4.6799999999999994E-002    0.57311510078061545     
   4.7100000000000003E-002    0.32466685277802121     
   4.7399999999999998E-002    0.10587807963126039     
   4.7700000000000006E-002    -6.9680312884452089E-002
   4.8000000000000001E-002   -0.19105841840173976     
   4.8300000000000010E-002   -0.25141476437623389     
   4.8600000000000004E-002   -0.24836801864307656     
   4.8899999999999999E-002   -0.18462369917516863     
   4.9200000000000008E-002    -6.7427606878040836E-002
   4.9500000000000002E-002     9.1490263673018823E-002
   4.9800000000000011E-002    0.27678293128356479     
   5.0100000000000006E-002    0.47062906169103536     
   5.0400000000000000E-002    0.65392006596611729     
   5.0700000000000009E-002    0.80760939039853241     
   5.1000000000000004E-002    0.91373225134397273     
   5.1299999999999998E-002    0.95688849352459115     
   5.1600000000000007E-002    0.92471925916517250     
   5.1900000000000002E-002    0.80897910208590673     
   5.2200000000000010E-002    0.60578589954097950     
   5.2500000000000005E-002    0.31546773841705722     
   5.2800000000000000E-002    -5.6760938434493369E-002
   5.3099999999999994E-002   -0.50204974089157339     
   5.3400000000000003E-002    -1.0071171305123698     
   5.3699999999999998E-002    -1.5560866184535573     
   5.4000000000000006E-002    -2.1294228308660195     
   5.4300000000000001E-002    -2.7058465376295615     
   5.4599999999999996E-002    -3.2619072869395751     
   5.4900000000000004E-002    -3.7729211492292904     
   5.5199999999999999E-002    -4.2139889913342188     
   5.5499999999999994E-002    -4.5602398123518242     
   5.5800000000000002E-002    -4.7884626931409286     
   5.6099999999999997E-002    -4.8777967489454852     
   5.6400000000000006E-002    -4.8116487490924840     
   5.6700000000000000E-002    -4.5785360586928903     
   5.6999999999999995E-002    -4.1742269297706400     
   5.7300000000000004E-002    -3.6021611556357129     
   5.7599999999999998E-002    -2.8752240692971895     
   5.7900000000000007E-002    -2.0153659607543730     
   5.8200000000000002E-002    -1.0539709337609615     
   5.8499999999999996E-002    -3.0518392254888838E-002
   5.8800000000000005E-002     1.0093439806636653     
   5.9100000000000000E-002     2.0152684953345279     
   5.9400000000000008E-002     2.9372529411433472     
   5.9700000000000003E-002     3.7262374059167875     
   6.0000000000000012E-002     4.3409814037199226     
   6.0300000000000006E-002     4.7475003352931111     
   6.0600000000000001E-002     4.9257684695748480     
   6.0900000000000010E-002     4.8674809277792974     
   6.1200000000000004E-002     4.5807092384837347     
   6.1500000000000013E-002     4.0866286116427943     
   6.1800000000000008E-002     3.4195123383040027     
   6.2100000000000002E-002     2.6241069807903727     
   6.2399999999999997E-002     1.7520161739707021     
   6.2700000000000006E-002    0.85837922728553018     
   6.3000000000000000E-002    -2.3688375031625242E-003
   6.3300000000000009E-002   -0.78002409725446142     
   6.3600000000000004E-002    -1.4319479455711175     
   6.3899999999999998E-002    -1.9255741786822966     
   6.4199999999999993E-002    -2.2401737066639500     
   6.4500000000000002E-002    -2.3669583512938175     
   6.4800000000000010E-002    -2.3095835819365362     
   6.5100000000000005E-002    -2.0820600906083939     
   6.5400000000000000E-002    -1.7078011344499089     
   6.5700000000000008E-002    -1.2167605727363053     
   6.5999999999999989E-002   -0.64322997834511497     
   6.6299999999999998E-002    -2.3438804968989757E-002
   6.6600000000000006E-002    0.60755568090236522     
   6.6900000000000001E-002     1.2164332832783913     
   6.7199999999999996E-002     1.7747758873533952     
   6.7500000000000004E-002     2.2589031641531090     
   6.7800000000000013E-002     2.6512077548796107     
   6.8099999999999994E-002     2.9404137640357959     
   6.8400000000000002E-002     3.1211554089528022     
   6.8700000000000011E-002     3.1941672509881727     
   6.8999999999999992E-002     3.1650020881375980     
   6.9300000000000000E-002     3.0440220915386078     
   6.9600000000000009E-002     2.8452651806521061     
   6.9900000000000004E-002     2.5850545178394384     
   7.0199999999999999E-002     2.2822059336881608     
   7.0500000000000007E-002     1.9555219189658786     
   7.0800000000000016E-002     1.6240580458591651     
   7.1099999999999997E-002     1.3049008668524564     
   7.1400000000000005E-002     1.0130418126708278     
   7.1700000000000000E-002    0.75964632000190235     
   7.1999999999999995E-002    0.55221641477154115     
   7.2300000000000003E-002    0.39302427916793192     
   7.2600000000000012E-002    0.28016953201115946     
   7.2900000000000006E-002    0.20600863368975331     
   7.3200000000000001E-002    0.15974807110099998     
   7.3499999999999996E-002    0.12634398925692047     
   7.3800000000000004E-002     8.9284716219526272E-002
   7.4099999999999999E-002     3.0888677294861999E-002
   7.4400000000000008E-002    -6.5277637036499137E-002
   7.4700000000000003E-002   -0.21320519340708977     
   7.5000000000000011E-002   -0.42334705818636564     
   7.5299999999999992E-002   -0.70082382383207431     
   7.5600000000000001E-002    -1.0451333166708210     
   7.5900000000000009E-002    -1.4502760252911067     
   7.6200000000000004E-002    -1.9029151556152191     
   7.6499999999999999E-002    -2.3872877686521914     
   7.6800000000000007E-002    -2.8810909245445657     
   7.7099999999999988E-002    -3.3625427866483975     
   7.7399999999999997E-002    -3.8071305830087425     
   7.7700000000000005E-002    -4.1937188065050464     
   7.8000000000000014E-002    -4.5025173789923798     
   7.8299999999999995E-002    -4.7198089350976602     
   7.8600000000000003E-002    -4.8365037626404046     
   7.8900000000000012E-002    -4.8499528418110458     
   7.9199999999999993E-002    -4.7631796773833912     
   7.9500000000000001E-002    -4.5853539631617650     
   7.9800000000000010E-002    -4.3292198348682405     
   8.0100000000000018E-002    -4.0110714336725550     
   8.0399999999999999E-002    -3.6488217622769810     
   8.0700000000000008E-002    -3.2599376012991428     
   8.1000000000000003E-002    -2.8609355500331048     
   8.1299999999999997E-002    -2.4650639960188272     
   8.1600000000000006E-002    -2.0825995525767098     
   8.1900000000000014E-002    -1.7197025224064291     
   8.2199999999999995E-002    -1.3788871399401117     
   8.2500000000000004E-002    -1.0593832466437831     
   8.2799999999999999E-002   -0.75763588803432569     
   8.3100000000000007E-002   -0.46896925819165958     
   8.3400000000000002E-002   -0.18807985213777612     
   8.3700000000000011E-002     8.8704193781619978E-002
   8.4000000000000005E-002    0.36368478253733372     
   8.4300000000000000E-002    0.63615371952869637     
   8.4599999999999995E-002    0.90138273667842483     
   8.4900000000000003E-002     1.1518467105493659     
   8.5199999999999998E-002     1.3759774634820836     
   8.5500000000000007E-002     1.5599640353746347     
   8.5800000000000001E-002     1.6885958112144586     
   8.6100000000000010E-002     1.7468934205450246     
   8.6399999999999991E-002     1.7229863527922262     
   8.6699999999999999E-002     1.6099463854741245     
   8.7000000000000008E-002     1.4085056422081408     
   8.7300000000000003E-002     1.1293579267562137     
   8.7599999999999997E-002    0.79505683809333405     
   8.7900000000000006E-002    0.44005039428989035     
   8.8200000000000014E-002    0.11186838600328208     
   8.8499999999999995E-002   -0.13366376220244369     
   8.8800000000000004E-002   -0.23297400851538264     
   8.9100000000000013E-002   -0.12313520698479685     
   8.9399999999999993E-002    0.25359458313293359     
   8.9700000000000002E-002    0.93947516359735062     
   9.0000000000000011E-002     1.9557672767835399     
   9.0299999999999991E-002     3.2935690889051905     
   9.0600000000000000E-002     4.9093419543136765     
   9.0900000000000009E-002     6.7222652892102417     
   9.1200000000000017E-002     8.6144863380264383     
   9.1499999999999998E-002     10.437620875908143     
   9.1800000000000007E-002     12.020946289935427     
   9.2100000000000001E-002     13.186735612173052     
   9.2399999999999996E-002     13.764430989693182     
   9.2700000000000005E-002     13.610746129687257     
   9.3000000000000013E-002     12.624493150366305     
   9.3300000000000008E-002     10.764167390276157     
   9.3600000000000003E-002     8.0565875745656115     
   9.3899999999999997E-002     4.6027932701859271     
   9.4200000000000006E-002    0.57533318984819459     
   9.4500000000000001E-002    -3.7908592207764684     
   9.4800000000000009E-002    -8.2147353418073976     
   9.5100000000000004E-002    -12.390917442660793     
   9.5399999999999999E-002    -16.013831252482078     
   9.5699999999999993E-002    -18.805343133974532     
   9.6000000000000002E-002    -20.537377162641690     
   9.6300000000000011E-002    -21.053850280472101     
   9.6600000000000005E-002    -20.283579582033937     
   9.6900000000000000E-002    -18.248384677882854     
   9.7200000000000009E-002    -15.059412066282277     
   9.7499999999999989E-002    -10.910058519002718     
   9.7799999999999998E-002    -6.0581947319013167     
   9.8100000000000007E-002   -0.80481793965302018     
   9.8400000000000015E-002     4.5283756480583861     
   9.8699999999999996E-002     9.6257142798517066     
   9.9000000000000005E-002     14.197328489306528     
   9.9300000000000013E-002     18.000812487652922     
   9.9599999999999994E-002     20.851500159259558     
   9.9900000000000003E-002     22.633164062776274     
  0.10020000000000001          23.296969669828457     
  0.10049999999999999          22.859763272779617     
  0.10080000000000000          21.394059323603614     
  0.10110000000000001          19.019805497048822     
  0.10140000000000000          15.889055125316247     
  0.10170000000000000          12.175428700786085     
  0.10200000000000001          8.0603995650520091     
  0.10230000000000002          3.7250819128147228     
  0.10260000000000000        -0.66066978419036104     
  0.10290000000000001         -4.9399198057143394     
  0.10320000000000000         -8.9779724585943654     
  0.10350000000000001         -12.659055901690408     
  0.10380000000000000         -15.891098674638954     
  0.10410000000000001         -18.604352551530042     
  0.10440000000000001         -20.747612644215025     
  0.10470000000000000         -22.293389480542061     
  0.10500000000000000         -23.227381086313784     
  0.10530000000000000         -23.556608297845571     
  0.10560000000000000         -23.298411490969841     
  0.10590000000000001         -22.485351832669835     
  0.10620000000000000         -21.159773759994664     
  0.10650000000000001         -19.372472867836905     
  0.10679999999999999         -17.181975569191991     
  0.10710000000000000         -14.652123639039530     
  0.10740000000000001         -11.851416099056280     
  0.10770000000000000         -8.8506366693392522     
  0.10800000000000000         -5.7228615995297503     
  0.10830000000000001         -2.5421993984180169     
  0.10859999999999999         0.61718976806729131     
  0.10890000000000000          3.6843498497142946     
  0.10920000000000001          6.5876626801094176     
  0.10950000000000001          9.2666849950302890     
  0.10979999999999999          11.658901963942924     
  0.11009999999999999          13.719738101762701     
  0.11040000000000001          15.407103665692052     
  0.11070000000000001          16.695042779846148     
  0.11100000000000000          17.568885135271756     
  0.11130000000000000          18.027041833462818     
  0.11160000000000002          18.081545033875102     
  0.11190000000000001          17.755812927367401     
  0.11220000000000001          17.084523931488036     
  0.11250000000000000          16.111858713335209     
  0.11280000000000000          14.887060376109844     
  0.11309999999999999          13.465846146043418     
  0.11340000000000001          11.903461838968155     
  0.11369999999999998          10.256043099671047     
  0.11400000000000000          8.5745341524611263     
  0.11430000000000000          6.9062458899283001     
  0.11460000000000002          5.2883983136282779     
  0.11489999999999999          3.7522911734137949     
  0.11520000000000001          2.3156137320882131     
  0.11550000000000001         0.99130092013516702     
  0.11580000000000000        -0.22387954407524546     
  0.11609999999999999         -1.3342637792580803     
  0.11640000000000002         -2.3566298337707252     
  0.11670000000000001         -3.3067244553647015     
  0.11700000000000001         -4.2034769596820922     
  0.11730000000000000         -5.0632683898518138     
  0.11760000000000000         -5.8958713643010370     
  0.11789999999999999         -6.7077829737595334     
  0.11820000000000001         -7.4908676722354244     
  0.11850000000000001         -8.2348920857046579     
  0.11880000000000000         -8.9152632507370413     
  0.11910000000000000         -9.5065779074465411     
  0.11940000000000002         -9.9736079510371098     
  0.11970000000000001         -10.286700344541174     
  0.12000000000000001         -10.413055895836749     
  0.12030000000000000         -10.333090518535300     
  0.12060000000000000         -10.027626736246305     
  0.12089999999999999         -9.4982068168111482     
  0.12119999999999999         -8.7502149346275360     
  0.12150000000000001         -7.8083778053437811     
  0.12180000000000001         -6.7038060022771901     
  0.12210000000000000         -5.4797749099354860     
  0.12239999999999999         -4.1855163893682317     
  0.12270000000000002         -2.8722338966200169     
  0.12300000000000001         -1.5937522761562022     
  0.12330000000000001        -0.39679729202475400     
  0.12360000000000000         0.67528478449153795     
  0.12390000000000000          1.5919888369913764     
  0.12419999999999999          2.3295792709101022     
  0.12450000000000001          2.8819639835992064     
  0.12480000000000001          3.2500101080077712     
  0.12509999999999999          3.4520988375861865     
  0.12540000000000001          3.5100090684737104     
  0.12570000000000003          3.4617424882713479     
  0.12600000000000000          3.3416646920942696     
  0.12630000000000002          3.1941179688397838     
  0.12659999999999999          3.0547391990299957     
  0.12690000000000001          2.9596856848130670     
  0.12719999999999998          2.9328166803052653     
  0.12750000000000000          2.9900086606619425     
  0.12780000000000002          3.1337333186084777     
  0.12809999999999999          3.3544279687390457     
  0.12840000000000001          3.6306232777656646     
  0.12869999999999998          3.9317000347170250     
  0.12900000000000000          4.2192849381275153     
  0.12930000000000003          4.4526071080464078     
  0.12959999999999999          4.5926936055681438     
  0.12990000000000002          4.6047169604605642     
  0.13019999999999998          4.4656304929514192     
  0.13050000000000000          4.1613248452043905     
  0.13080000000000003          3.6952766722847770     
  0.13109999999999999          3.0825197010341441     
  0.13140000000000002          2.3528170115804130     
  0.13169999999999998          1.5455669700829660     
  0.13200000000000001         0.70735423990573665     
  0.13229999999999997        -0.11210118838022254     
  0.13260000000000000        -0.86589837136818915     
  0.13290000000000002         -1.5130241240158711     
  0.13319999999999999         -2.0221369846472754     
  0.13350000000000001         -2.3750935234576325     
  0.13380000000000003         -2.5649860071702673     
  0.13410000000000000         -2.6016594528215649     
  0.13440000000000002         -2.5021267574575958     
  0.13469999999999999         -2.2977946916076348     
  0.13500000000000001         -2.0210619688648279     
  0.13529999999999998         -1.7116301591844092     
  0.13560000000000000         -1.4031148615811873     
  0.13590000000000002         -1.1305376919319414     
  0.13619999999999999        -0.91632823847444911     
  0.13650000000000001        -0.78210726600600822     
  0.13680000000000003        -0.73220540477757012     
  0.13710000000000000        -0.77159149351278700     
  0.13740000000000002        -0.88775748974042479     
  0.13769999999999999         -1.0698602751797841     
  0.13800000000000001         -1.2958753708771993     
  0.13829999999999998         -1.5436829063388728     
  0.13860000000000000         -1.7885533254631980     
  0.13890000000000002         -2.0049478199955999     
  0.13919999999999999         -2.1712991516508779     
  0.13950000000000001         -2.2651798174582467     
  0.13979999999999998         -2.2729392938666564     
  0.14010000000000000         -2.1812886283902984     
  0.14040000000000002         -1.9875090296745626     
  0.14069999999999999         -1.6903102646159738     
  0.14100000000000001         -1.3015536375409695     
  0.14130000000000004        -0.83171276409647987     
  0.14160000000000000        -0.30673055005795136     
  0.14189999999999997         0.25266269809174347     
  0.14219999999999999         0.81211862037167748     
  0.14250000000000002          1.3438743481631192     
  0.14279999999999998          1.8147296606072132     
  0.14310000000000000          2.1971813532636215     
  0.14339999999999997          2.4678706135864772     
  0.14369999999999999          2.6090886574642127     
  0.14400000000000002          2.6134315772154366     
  0.14429999999999998          2.4800737729632516     
  0.14460000000000001          2.2200578209965514     
  0.14490000000000003          1.8510033062717994     
  0.14520000000000000          1.3992154174641556     
  0.14550000000000002         0.89603112213372782     
  0.14579999999999999         0.37667503731765750     
  0.14610000000000001        -0.12443296467386311     
  0.14640000000000003        -0.57216833787835952     
  0.14670000000000000        -0.93948388497795321     
  0.14699999999999996         -1.2016451091236355     
  0.14729999999999999         -1.3456187483863216     
  0.14760000000000001         -1.3641469241990283     
  0.14789999999999998         -1.2612705956123911     
  0.14820000000000000         -1.0486116730248369     