  -1.4999999999999999E-002     0.0000000000000000     
  -1.4700000000000000E-002     0.0000000000000000     
  -1.4400000000000000E-002     0.0000000000000000     
  -1.4100000000000000E-002     0.0000000000000000     
  -1.3800000000000000E-002     0.0000000000000000     
  -1.3500000000000000E-002     0.0000000000000000     
  -1.3200000000000000E-002     0.0000000000000000     
  -1.2899999999999998E-002     0.0000000000000000     
  -1.2600000000000000E-002     0.0000000000000000     
  -1.2299999999999998E-002     0.0000000000000000     
  -1.2000000000000000E-002     0.0000000000000000     
  -1.1699999999999999E-002     0.0000000000000000     
  -1.1399999999999999E-002     0.0000000000000000     
  -1.1099999999999999E-002     0.0000000000000000     
  -1.0799999999999999E-002     0.0000000000000000     
  -1.0499999999999999E-002     0.0000000000000000     
  -1.0199999999999999E-002     0.0000000000000000     
  -9.8999999999999991E-003     0.0000000000000000     
  -9.5999999999999992E-003     0.0000000000000000     
  -9.2999999999999992E-003     0.0000000000000000     
  -8.9999999999999993E-003     0.0000000000000000     
  -8.6999999999999994E-003     0.0000000000000000     
  -8.3999999999999995E-003     0.0000000000000000     
  -8.0999999999999996E-003     0.0000000000000000     
  -7.7999999999999988E-003     0.0000000000000000     
  -7.4999999999999997E-003     0.0000000000000000     
  -7.1999999999999998E-003     0.0000000000000000     
  -6.8999999999999981E-003     0.0000000000000000     
  -6.5999999999999982E-003     0.0000000000000000     
  -6.3000000000000000E-003     0.0000000000000000     
  -6.0000000000000001E-003     0.0000000000000000     
  -5.6999999999999985E-003     0.0000000000000000     
  -5.3999999999999986E-003     0.0000000000000000     
  -5.1000000000000004E-003     0.0000000000000000     
  -4.7999999999999987E-003     0.0000000000000000     
  -4.5000000000000005E-003     0.0000000000000000     
  -4.1999999999999989E-003     0.0000000000000000     
  -3.8999999999999990E-003     0.0000000000000000     
  -3.5999999999999990E-003     0.0000000000000000     
  -3.2999999999999991E-003     0.0000000000000000     
  -2.9999999999999992E-003     0.0000000000000000     
  -2.6999999999999993E-003     0.0000000000000000     
  -2.3999999999999994E-003     0.0000000000000000     
  -2.0999999999999977E-003     0.0000000000000000     
  -1.7999999999999995E-003     0.0000000000000000     
  -1.4999999999999979E-003     0.0000000000000000     
  -1.1999999999999997E-003     0.0000000000000000     
  -8.9999999999999976E-004     0.0000000000000000     
  -5.9999999999999810E-004     0.0000000000000000     
  -2.9999999999999992E-004     0.0000000000000000     
   0.0000000000000000          0.0000000000000000     
   3.0000000000000165E-004     0.0000000000000000     
   5.9999999999999984E-004     0.0000000000000000     
   9.0000000000000149E-004     0.0000000000000000     
   1.2000000000000031E-003     0.0000000000000000     
   1.5000000000000013E-003     0.0000000000000000     
   1.8000000000000030E-003     0.0000000000000000     
   2.1000000000000012E-003     0.0000000000000000     
   2.3999999999999994E-003     0.0000000000000000     
   2.7000000000000010E-003     0.0000000000000000     
   2.9999999999999992E-003     0.0000000000000000     
   3.3000000000000008E-003     0.0000000000000000     
   3.6000000000000025E-003     0.0000000000000000     
   3.9000000000000007E-003     0.0000000000000000     
   4.2000000000000023E-003     0.0000000000000000     
   4.5000000000000005E-003     0.0000000000000000     
   4.7999999999999987E-003     0.0000000000000000     
   5.1000000000000004E-003     0.0000000000000000     
   5.4000000000000020E-003     0.0000000000000000     
   5.7000000000000037E-003     0.0000000000000000     
   5.9999999999999984E-003     0.0000000000000000     
   6.3000000000000000E-003     0.0000000000000000     
   6.6000000000000017E-003     0.0000000000000000     
   6.9000000000000034E-003     0.0000000000000000     
   7.2000000000000015E-003     0.0000000000000000     
   7.5000000000000032E-003     0.0000000000000000     
   7.8000000000000014E-003     0.0000000000000000     
   8.0999999999999996E-003     0.0000000000000000     
   8.4000000000000012E-003     0.0000000000000000     
   8.7000000000000029E-003     0.0000000000000000     
   9.0000000000000011E-003     0.0000000000000000     
   9.2999999999999992E-003     0.0000000000000000     
   9.6000000000000009E-003     0.0000000000000000     
   9.8999999999999991E-003     0.0000000000000000     
   1.0200000000000001E-002     0.0000000000000000     
   1.0500000000000002E-002     0.0000000000000000     
   1.0800000000000004E-002     0.0000000000000000     
   1.1099999999999999E-002     0.0000000000000000     
   1.1400000000000000E-002     0.0000000000000000     
   1.1700000000000002E-002     0.0000000000000000     
   1.2000000000000004E-002     0.0000000000000000     
   1.2300000000000002E-002     0.0000000000000000     
   1.2600000000000000E-002     0.0000000000000000     
   1.2900000000000002E-002     0.0000000000000000     
   1.3200000000000000E-002     0.0000000000000000     
   1.3500000000000002E-002     0.0000000000000000     
   1.3800000000000003E-002     0.0000000000000000     
   1.4100000000000001E-002     0.0000000000000000     
   1.4400000000000000E-002     0.0000000000000000     
   1.4700000000000001E-002     0.0000000000000000     
   1.4999999999999999E-002     0.0000000000000000     
   1.5300000000000001E-002     0.0000000000000000     
   1.5600000000000003E-002     0.0000000000000000     
   1.5899999999999997E-002     0.0000000000000000     
   1.6199999999999999E-002     0.0000000000000000     
   1.6500000000000001E-002     0.0000000000000000     
   1.6800000000000002E-002     0.0000000000000000     
   1.7100000000000004E-002     0.0000000000000000     
   1.7400000000000006E-002     0.0000000000000000     
   1.7700000000000000E-002     0.0000000000000000     
   1.8000000000000002E-002     0.0000000000000000     
   1.8300000000000004E-002     0.0000000000000000     
   1.8600000000000005E-002     0.0000000000000000     
   1.8900000000000000E-002     0.0000000000000000     
   1.9200000000000002E-002     0.0000000000000000     
   1.9500000000000003E-002     0.0000000000000000     
   1.9799999999999998E-002     0.0000000000000000     
   2.0100000000000000E-002     0.0000000000000000     
   2.0400000000000001E-002     0.0000000000000000     
   2.0700000000000003E-002     0.0000000000000000     
   2.0999999999999998E-002     0.0000000000000000     
   2.1299999999999999E-002     0.0000000000000000     
   2.1600000000000001E-002     0.0000000000000000     
   2.1900000000000003E-002     0.0000000000000000     
   2.2200000000000004E-002     0.0000000000000000     
   2.2500000000000006E-002     0.0000000000000000     
   2.2800000000000001E-002     0.0000000000000000     
   2.3100000000000002E-002     0.0000000000000000     
   2.3400000000000004E-002     0.0000000000000000     
   2.3699999999999999E-002     0.0000000000000000     
   2.4000000000000000E-002     0.0000000000000000     
   2.4300000000000002E-002     0.0000000000000000     
   2.4599999999999997E-002     0.0000000000000000     
   2.4900000000000005E-002     0.0000000000000000     
   2.5200000000000000E-002     0.0000000000000000     
   2.5499999999999995E-002     0.0000000000000000     
   2.5800000000000003E-002     0.0000000000000000     
   2.6099999999999998E-002     0.0000000000000000     
   2.6400000000000007E-002     0.0000000000000000     
   2.6700000000000002E-002     0.0000000000000000     
   2.6999999999999996E-002     0.0000000000000000     
   2.7300000000000005E-002     0.0000000000000000     
   2.7600000000000000E-002     0.0000000000000000     
   2.7900000000000008E-002     0.0000000000000000     
   2.8200000000000003E-002     0.0000000000000000     
   2.8499999999999998E-002     0.0000000000000000     
   2.8800000000000006E-002     0.0000000000000000     
   2.9100000000000001E-002     0.0000000000000000     
   2.9400000000000003E-002     0.0000000000000000     
   2.9700000000000004E-002     0.0000000000000000     
   3.0000000000000006E-002     0.0000000000000000     
   3.0300000000000001E-002     0.0000000000000000     
   3.0600000000000002E-002     0.0000000000000000     
   3.0900000000000004E-002     0.0000000000000000     
   3.1199999999999999E-002     0.0000000000000000     
   3.1500000000000007E-002     0.0000000000000000     
   3.1800000000000002E-002     0.0000000000000000     
   3.2099999999999997E-002     0.0000000000000000     
   3.2400000000000005E-002     0.0000000000000000     
   3.2700000000000000E-002     0.0000000000000000     
   3.3000000000000002E-002     0.0000000000000000     
   3.3300000000000003E-002     0.0000000000000000     
   3.3599999999999998E-002     0.0000000000000000     
   3.3900000000000000E-002     0.0000000000000000     
   3.4200000000000001E-002     0.0000000000000000     
   3.4500000000000003E-002     0.0000000000000000     
   3.4799999999999998E-002     0.0000000000000000     
   3.5099999999999999E-002     0.0000000000000000     
   3.5400000000000001E-002     0.0000000000000000     
   3.5699999999999996E-002     3.8004955465830963E-038
   3.6000000000000004E-002     7.8144550921321849E-038
   3.6299999999999999E-002    -3.5769711809404559E-036
   3.6600000000000008E-002     3.9351774324511633E-035
   3.6900000000000002E-002    -2.8485587531120388E-034
   3.7199999999999997E-002     7.8249506030885007E-034
   3.7500000000000006E-002    -6.2924042868849863E-034
   3.7800000000000000E-002     2.5225051786779926E-033
   3.8100000000000009E-002    -1.5394779158934806E-032
   3.8400000000000004E-002     7.3377961045367102E-032
   3.8699999999999998E-002    -3.1335158520785918E-031
   3.9000000000000007E-002     1.2344792151764021E-030
   3.9300000000000002E-002    -4.4706792429270082E-030
   3.9600000000000003E-002     1.4791945999379740E-029
   3.9900000000000005E-002    -4.4234773822602016E-029
   4.0200000000000000E-002     1.1732680091112208E-028
   4.0500000000000001E-002    -2.6653889928863822E-028
   4.0800000000000003E-002     4.7953170521561247E-028
   4.1100000000000005E-002    -5.1782989642669444E-028
   4.1399999999999999E-002    -4.6004140724766553E-028
   4.1700000000000008E-002     4.3796836565212458E-027
   4.2000000000000003E-002    -1.5607300508503684E-026
   4.2299999999999997E-002     5.5722059476309778E-026
   4.2600000000000006E-002    -2.7470878013987395E-025
   4.2900000000000001E-002     1.5423785361082281E-024
   4.3200000000000002E-002    -7.9203712152259853E-024
   4.3500000000000004E-002     3.5217047325228491E-023
   4.3799999999999999E-002    -1.3605700016980812E-022
   4.4100000000000000E-002     4.6218791262614460E-022
   4.4400000000000002E-002    -1.3920950177386134E-021
   4.4700000000000004E-002     3.7196820949228191E-021
   4.4999999999999998E-002    -8.6831145674235890E-021
   4.5300000000000000E-002     1.6654147899078944E-020
   4.5600000000000002E-002    -1.9459994353527823E-020
   4.5899999999999996E-002    -3.3287695574147933E-020
   4.6200000000000005E-002     3.6515332087837608E-019
   4.6500000000000000E-002    -1.8403707675328094E-018
   4.6799999999999994E-002     7.5029138897719446E-018
   4.7100000000000003E-002    -2.7236458486807279E-017
   4.7399999999999998E-002     9.0638633114892699E-017
   4.7700000000000006E-002    -2.7882033697781944E-016
   4.8000000000000001E-002     7.9053267416685418E-016
   4.8300000000000010E-002    -2.0328658331348885E-015
   4.8600000000000004E-002     4.5349824524401216E-015
   4.8899999999999999E-002    -7.6219093861762667E-015
   4.9200000000000008E-002     2.8071331431266515E-015
   4.9500000000000002E-002     5.0016342548477279E-014
   4.9800000000000011E-002    -2.8840583219215245E-013
   5.0100000000000006E-002     1.0712695731685150E-012
   5.0400000000000000E-002    -3.0161680332062070E-012
   5.0700000000000009E-002     6.1368235374245938E-012
   5.1000000000000004E-002    -5.6922516333988545E-012
   5.1299999999999998E-002    -1.8669578067686743E-011
   5.1600000000000007E-002     1.1504714466646747E-010
   5.1900000000000002E-002    -3.2517512294802257E-010
   5.2200000000000010E-002     4.7501763859007903E-010
   5.2500000000000005E-002     2.8300222174554995E-010
   5.2800000000000000E-002    -3.4253687682242250E-009
   5.3099999999999994E-002     7.7590856064884289E-009
   5.3400000000000003E-002    -1.1881919151672999E-009
   5.3699999999999998E-002    -3.4765809004407354E-008
   5.4000000000000006E-002     5.3436918234349424E-008
   5.4300000000000001E-002     1.3344558408741003E-007
   5.4599999999999996E-002    -5.0984699531269924E-007
   5.4900000000000004E-002    -6.2082780224943416E-007
   5.5199999999999999E-002     6.6447270931678862E-006
   5.5499999999999994E-002     2.2133839728957403E-005
   5.5800000000000002E-002     3.1832822323734798E-005
   5.6099999999999997E-002     3.4487895356909203E-005
   5.6400000000000006E-002     4.5503796433623601E-005
   5.6700000000000000E-002     6.9677828256792772E-005
   5.6999999999999995E-002     1.0887070300872985E-004
   5.7300000000000004E-002     1.6614055426326501E-004
   5.7599999999999998E-002     2.5047457867579098E-004
   5.7900000000000007E-002     3.7855817386214102E-004
   5.8200000000000002E-002     5.5522599137520015E-004
   5.8499999999999996E-002     7.8621557095300346E-004
   5.8800000000000005E-002     1.0962623041921235E-003
   5.9100000000000000E-002     1.5204280860517949E-003
   5.9400000000000008E-002     2.0653674913078540E-003
   5.9700000000000003E-002     2.7394270648703478E-003
   6.0000000000000012E-002     3.5798231200581260E-003
   6.0300000000000006E-002     4.5912409824797329E-003
   6.0600000000000001E-002     5.7635086356843945E-003
   6.0900000000000010E-002     7.0691436276149600E-003
   6.1200000000000004E-002     8.4534276484055093E-003
   6.1500000000000013E-002     9.8243022121977663E-003
   6.1800000000000008E-002     1.1029886523163057E-002
   6.2100000000000002E-002     1.1891890751863254E-002
   6.2399999999999997E-002     1.2163138408403606E-002
   6.2700000000000006E-002     1.1539923514650718E-002
   6.3000000000000000E-002     9.6830241373504489E-003
   6.3300000000000009E-002     6.2298864305331183E-003
   6.3600000000000004E-002     8.0008378843104966E-004
   6.3899999999999998E-002    -6.9593124951973506E-003
   6.4199999999999993E-002    -1.7280544664830866E-002
   6.4500000000000002E-002    -3.0310678089343845E-002
   6.4800000000000010E-002    -4.6046773533193752E-002
   6.5100000000000005E-002    -6.4247212407163357E-002
   6.5400000000000000E-002    -8.4418459533776247E-002
   6.5700000000000008E-002   -0.10583141397991636     
   6.5999999999999989E-002   -0.12754676436743306     
   6.6299999999999998E-002   -0.14841330626201898     
   6.6600000000000006E-002   -0.16716433855400137     
   6.6900000000000001E-002   -0.18248779796545467     
   6.7199999999999996E-002   -0.19312862771112815     
   6.7500000000000004E-002   -0.19804694783963939     
   6.7800000000000013E-002   -0.19647348669223685     
   6.8099999999999994E-002   -0.18805899802308002     
   6.8400000000000002E-002   -0.17283128626736755     
   6.8700000000000011E-002   -0.15127943604523209     
   6.8999999999999992E-002   -0.12429888229229347     
   6.9300000000000000E-002    -9.3054171056915713E-002
   6.9600000000000009E-002    -5.8935469765273307E-002
   6.9900000000000004E-002    -2.3390543376681117E-002
   7.0199999999999999E-002     1.2210464717578667E-002
   7.0500000000000007E-002     4.6692412412243423E-002
   7.0800000000000016E-002     7.9168630389566008E-002
   7.1099999999999997E-002    0.10903350437503390     
   7.1400000000000005E-002    0.13592051516922155     
   7.1700000000000000E-002    0.15970979107346572     
   7.1999999999999995E-002    0.18029924495003780     
   7.2300000000000003E-002    0.19766709437206043     
   7.2600000000000012E-002    0.21153305479979778     
   7.2900000000000006E-002    0.22150746392662857     
   7.3200000000000001E-002    0.22688203166794185     
   7.3499999999999996E-002    0.22687576967031564     
   7.3800000000000004E-002    0.22056338549367460     
   7.4099999999999999E-002    0.20705794239694342     
   7.4400000000000008E-002    0.18578815088685641     
   7.4700000000000003E-002    0.15657462855505777     
   7.5000000000000011E-002    0.11982473828182671     
   7.5299999999999992E-002     7.6613093033492119E-002
   7.5600000000000001E-002     2.8766311684154555E-002
   7.5900000000000009E-002    -2.1181848550542948E-002
   7.6200000000000004E-002    -7.0167980181799816E-002
   7.6499999999999999E-002   -0.11469439220487043     
   7.6800000000000007E-002   -0.15118561101796057     
   7.7099999999999988E-002   -0.17604829136120603     
   7.7399999999999997E-002   -0.18611972826249712     
   7.7700000000000005E-002   -0.17876021891150717     
   7.8000000000000014E-002   -0.15218916846233155     
   7.8299999999999995E-002   -0.10555099516182853     
   7.8600000000000003E-002    -3.9069378318792314E-002
   7.8900000000000012E-002     4.5943478704873697E-002
   7.9199999999999993E-002    0.14698932662168396     
   7.9500000000000001E-002    0.26047598172001862     
   7.9800000000000010E-002    0.38193104723341698     
   8.0100000000000018E-002    0.50594497328694565     
   8.0399999999999999E-002    0.62653869705639664     
   8.0700000000000008E-002    0.73730535078467696     
   8.1000000000000003E-002    0.83183364227567580     
   8.1299999999999997E-002    0.90383389507827161     
   8.1600000000000006E-002    0.94779161477853791     
   8.1900000000000014E-002    0.95909112881568248     
   8.2199999999999995E-002    0.93455924004716451     
   8.2500000000000004E-002    0.87259813675258613     
   8.2799999999999999E-002    0.77361440912458690     
   8.3100000000000007E-002    0.63996682563266205     
   8.3400000000000002E-002    0.47616703623004053     
   8.3700000000000011E-002    0.28843178933633273     
   8.4000000000000005E-002     8.4715805041196024E-002
   8.4300000000000000E-002   -0.12603214820255948     
   8.4599999999999995E-002   -0.33431715806434958     
   8.4900000000000003E-002   -0.53065035463358612     
   8.5199999999999998E-002   -0.70635574519351252     
   8.5500000000000007E-002   -0.85413774160572586     
   8.5800000000000001E-002   -0.96871697417077840     
   8.6100000000000010E-002    -1.0469954911320016     
   8.6399999999999991E-002    -1.0884959915805865     
   8.6699999999999999E-002    -1.0951502159367266     
   8.7000000000000008E-002    -1.0712758723875666     
   8.7300000000000003E-002    -1.0228681290201003     
   8.7599999999999997E-002   -0.95719261352021690     
   8.7900000000000006E-002   -0.88196410090114696     
   8.8200000000000014E-002   -0.80471891960171149     
   8.8499999999999995E-002   -0.73194045944005737     
   8.8800000000000004E-002   -0.66858552211857614     
   8.9100000000000013E-002   -0.61768484568789361     
   8.9399999999999993E-002   -0.58005269790486125     
   8.9700000000000002E-002   -0.55445441792601358     
   9.0000000000000011E-002   -0.53773922868960256     
   9.0299999999999991E-002   -0.52533100939707467     
   9.0600000000000000E-002   -0.51185324479023997     
   9.0900000000000009E-002   -0.49164636344330859     
   9.1200000000000017E-002   -0.45961011006511754     
   9.1499999999999998E-002   -0.41153679730464177     
   9.1800000000000007E-002   -0.34472039515066744     
   9.2100000000000001E-002   -0.25814858305005783     
   9.2399999999999996E-002   -0.15260784470983291     
   9.2700000000000005E-002    -3.0592933362962205E-002
   9.3000000000000013E-002    0.10406238087675712     
   9.3300000000000008E-002    0.24634100992265839     
   9.3600000000000003E-002    0.39059723435501503     
   9.3899999999999997E-002    0.53106392625712573     
   9.4200000000000006E-002    0.66224033513144676     
   9.4500000000000001E-002    0.77915896653012950     
   9.4800000000000009E-002    0.87769071103545571     
   9.5100000000000004E-002    0.95483333983477081     
   9.5399999999999999E-002     1.0085355771478142     
   9.5699999999999993E-002     1.0379180949369484     
   9.6000000000000002E-002     1.0428396377933709     
   9.6300000000000011E-002     1.0241906046213671     
   9.6600000000000005E-002    0.98312043918556569     
   9.6900000000000000E-002    0.92147779889715054     
   9.7200000000000009E-002    0.84101413624809140     
   9.7499999999999989E-002    0.74387956297828595     
   9.7799999999999998E-002    0.63193899730004865     
   9.8100000000000007E-002    0.50716165664165302     
   9.8400000000000015E-002    0.37137183333337287     
   9.8699999999999996E-002    0.22643713273394339     
   9.9000000000000005E-002     7.4350693184079386E-002
   9.9300000000000013E-002    -8.2770306189613230E-002
   9.9599999999999994E-002   -0.24237831821350930     
   9.9900000000000003E-002   -0.40158988912336646     
  0.10020000000000001        -0.55682781231229939     
  0.10049999999999999        -0.70414959771201779     
  0.10080000000000000        -0.83897800456849225     
  0.10110000000000001        -0.95649399536973334     
  0.10140000000000000         -1.0516515669775686     
  0.10170000000000000         -1.1196756593650292     
  0.10200000000000001         -1.1561551702308535     
  0.10230000000000002         -1.1576835046326295     
  0.10260000000000000         -1.1221762092430652     
  0.10290000000000001         -1.0490127565925960     
  0.10320000000000000        -0.93961563753821409     
  0.10350000000000001        -0.79708554962942557     
  0.10380000000000000        -0.62671758619277895     
  0.10410000000000001        -0.43530110094825769     
  0.10440000000000001        -0.23118572997003373     
  0.10470000000000000         -2.3485246362373147E-002
  0.10500000000000000         0.17827385992499778     
  0.10530000000000000         0.36492355815388322     
  0.10560000000000000         0.52817723566705510     
  0.10590000000000001         0.66134421928234843     
  0.10620000000000000         0.75970975430114862     
  0.10650000000000001         0.82076080793735784     
  0.10679999999999999         0.84473618965211372     
  0.10710000000000000         0.83400266708796167     
  0.10740000000000001         0.79333683942317634     
  0.10770000000000000         0.72904672339464582     
  0.10800000000000000         0.64886195208188369     
  0.10830000000000001         0.56084325940075530     
  0.10859999999999999         0.47306307552283933     
  0.10890000000000000         0.39284489401429923     
  0.10920000000000001         0.32612491684339773     
  0.10950000000000001         0.27723827422518799     
  0.10979999999999999         0.24856164008503701     
  0.11009999999999999         0.24074779739749186     
  0.11040000000000001         0.25240575540002563     
  0.11070000000000001         0.28104693050150509     
  0.11100000000000000         0.32290460983093006     
  0.11130000000000000         0.37377686958216216     
  0.11160000000000002         0.42919236468472199     
  0.11190000000000001         0.48518812684386958     
  0.11220000000000001         0.53808812845398535     
  0.11250000000000000         0.58510070284498994     
  0.11280000000000000         0.62407396525844305     
  0.11309999999999999         0.65347112717109823     
  0.11340000000000001         0.67224437472724929     
  0.11369999999999998         0.67953714514733576     
  0.11400000000000000         0.67465927205839193     
  0.11430000000000000         0.65648670836340273     
  0.11460000000000002         0.62401038706911649     
  0.11489999999999999         0.57573798433386614     
  0.11520000000000001         0.51024661416049533     
  0.11550000000000001         0.42594243519880592     
  0.11580000000000000         0.32181634052507224     
  0.11609999999999999         0.19733844968445480     
  0.11640000000000002          5.2940124702138824E-002
  0.11670000000000001        -0.10974297135809241     
  0.11700000000000001        -0.28776181594635553     
  0.11730000000000000        -0.47673878349122134     
  0.11760000000000000        -0.67077878088587184     
  0.11789999999999999        -0.86298032755630061     
  0.11820000000000001         -1.0452640283545662     
  0.11850000000000001         -1.2093238998868543     
  0.11880000000000000         -1.3465505145216952     
  0.11910000000000000         -1.4489672913152489     
  0.11940000000000002         -1.5097417643788873     
  0.11970000000000001         -1.5236287900333778     
  0.12000000000000001         -1.4875172569383324     
  0.12030000000000000         -1.4008170751580096     
  0.12060000000000000         -1.2656247455131009     
  0.12089999999999999         -1.0870076543543696     
  0.12119999999999999        -0.87237990486604922     
  0.12150000000000001        -0.63183332737333942     
  0.12180000000000001        -0.37695597752412713     
  0.12210000000000000        -0.12072819085916109     
  0.12239999999999999         0.12375524962057671     
  0.12270000000000002         0.34362266032212929     
  0.12300000000000001         0.52744388934886999     
  0.12330000000000001         0.66583528004602854     
  0.12360000000000000         0.75191104633672623     
  0.12390000000000000         0.78189096321428764     
  0.12419999999999999         0.75551767682940962     
  0.12450000000000001         0.67559727607386932     
  0.12480000000000001         0.54808705222546639     
  0.12509999999999999         0.38188733145624054     
  0.12540000000000001         0.18783564424021471     
  0.12570000000000003         -2.1325215834462119E-002
  0.12600000000000000        -0.23260455642889255     
  0.12630000000000002        -0.43235073258603407     
  0.12659999999999999        -0.60816749060472119     
  0.12690000000000001        -0.74862687305960307     
  0.12719999999999998        -0.84460908105412713     
  0.12750000000000000        -0.88966885253332251     
  0.12780000000000002        -0.87997678770612708     
  0.12809999999999999        -0.81536722126478622     
  0.12840000000000001        -0.69861083826768144     
  0.12869999999999998        -0.53616086854426914     
  0.12900000000000000        -0.33716164804495730     
  0.12930000000000003        -0.11326388187904612     
  0.12959999999999999         0.12209115708677087     
  0.12990000000000002         0.35422924631595265     
  0.13019999999999998         0.56867561179873150     
  0.13050000000000000         0.75173242459234757     
  0.13080000000000003         0.89182356587391709     
  0.13109999999999999         0.97990894445051069     
  0.13140000000000002          1.0108430280060183     
  0.13169999999999998         0.98331096335190082     
  0.13200000000000001         0.90050146928016517     
  0.13229999999999997         0.76960106174924547     
  0.13260000000000000         0.60150855943800519     
  0.13290000000000002         0.41006660435956366     
  0.13319999999999999         0.21107508700518052     
  0.13350000000000001          2.0741130469287494E-002
  0.13380000000000003        -0.14507052309583024     
  0.13410000000000000        -0.27294981816925379     
  0.13440000000000002        -0.35189457910299637     
  0.13469999999999999        -0.37576319004484660     
  0.13500000000000001        -0.34222605599763067     
  0.13529999999999998        -0.25477528868528987     
  0.13560000000000000        -0.12050069128638263     
  0.13590000000000002          4.8416618774264175E-002
  0.13619999999999999         0.23758608481571564     
  0.13650000000000001         0.42975795772717795     
  0.13680000000000003         0.60810839768696923     
  0.13710000000000000         0.75589425988474446     
  0.13740000000000002         0.85939709738265790     
  0.13769999999999999         0.90788294445019346     
  0.13800000000000001         0.89519091790173988     
  0.13829999999999998         0.82000784331756549     
  0.13860000000000000         0.68582327772762142     
  0.13890000000000002         0.50090230475766795     
  0.13919999999999999         0.27702937575443087     
  0.13950000000000001          2.9227959239714885E-002
  0.13979999999999998        -0.22654164105998298     
  0.14010000000000000        -0.47343790335106206     
  0.14040000000000002        -0.69675059491541802     
  0.14069999999999999        -0.88292250709364239     
  0.14100000000000001         -1.0226100986011986     
  0.14130000000000004         -1.1093606684924993     
  0.14160000000000000         -1.1416881875382217     
  0.14189999999999997         -1.1209410259018142     
  0.14219999999999999         -1.0528318554821858     
  0.14250000000000002        -0.94512749439169497     
  0.14279999999999998        -0.80806229853367562     
  0.14310000000000000        -0.65232935985110707     
  0.14339999999999997        -0.48919054897494352     
  0.14369999999999999        -0.32884390392307505     
  0.14400000000000002        -0.18035582386478932     
  0.14429999999999998         -5.0883004733440096E-002
  0.14460000000000001          5.4457866432829349E-002
  0.14490000000000003         0.13302523403421285     
  0.14520000000000000         0.18387566399560473     
  0.14550000000000002         0.20837003468755455     
  0.14579999999999999         0.20936572349526195     
  0.14610000000000001         0.19142615002770347     
  0.14640000000000003         0.15983459479353329     
  0.14670000000000000         0.12106115365071757     
  0.14699999999999996          8.1693423525394659E-002
  0.14729999999999999          4.8874837619164113E-002
  0.14760000000000001          2.9088554421990098E-002
  0.14789999999999998          2.8602468606920395E-002
  0.14820000000000000          5.2331067826645983E-002