  -1.4999999999999999E-002     0.0000000000000000     
  -1.4700000000000000E-002     0.0000000000000000     
  -1.4400000000000000E-002     0.0000000000000000     
  -1.4100000000000000E-002     0.0000000000000000     
  -1.3800000000000000E-002     0.0000000000000000     
  -1.3500000000000000E-002     0.0000000000000000     
  -1.3200000000000000E-002     0.0000000000000000     
  -1.2899999999999998E-002     0.0000000000000000     
  -1.2600000000000000E-002     0.0000000000000000     
  -1.2299999999999998E-002     0.0000000000000000     
  -1.2000000000000000E-002     0.0000000000000000     
  -1.1699999999999999E-002     0.0000000000000000     
  -1.1399999999999999E-002     0.0000000000000000     
  -1.1099999999999999E-002     0.0000000000000000     
  -1.0799999999999999E-002     0.0000000000000000     
  -1.0499999999999999E-002     0.0000000000000000     
  -1.0199999999999999E-002     0.0000000000000000     
  -9.8999999999999991E-003     0.0000000000000000     
  -9.5999999999999992E-003     0.0000000000000000     
  -9.2999999999999992E-003     0.0000000000000000     
  -8.9999999999999993E-003     0.0000000000000000     
  -8.6999999999999994E-003     0.0000000000000000     
  -8.3999999999999995E-003     0.0000000000000000     
  -8.0999999999999996E-003     0.0000000000000000     
  -7.7999999999999988E-003     0.0000000000000000     
  -7.4999999999999997E-003     0.0000000000000000     
  -7.1999999999999998E-003     0.0000000000000000     
  -6.8999999999999981E-003     0.0000000000000000     
  -6.5999999999999982E-003     0.0000000000000000     
  -6.3000000000000000E-003     0.0000000000000000     
  -6.0000000000000001E-003     0.0000000000000000     
  -5.6999999999999985E-003     0.0000000000000000     
  -5.3999999999999986E-003     0.0000000000000000     
  -5.1000000000000004E-003     0.0000000000000000     
  -4.7999999999999987E-003     0.0000000000000000     
  -4.5000000000000005E-003     0.0000000000000000     
  -4.1999999999999989E-003     0.0000000000000000     
  -3.8999999999999990E-003     0.0000000000000000     
  -3.5999999999999990E-003     0.0000000000000000     
  -3.2999999999999991E-003     0.0000000000000000     
  -2.9999999999999992E-003     0.0000000000000000     
  -2.6999999999999993E-003     0.0000000000000000     
  -2.3999999999999994E-003     0.0000000000000000     
  -2.0999999999999977E-003     0.0000000000000000     
  -1.7999999999999995E-003     0.0000000000000000     
  -1.4999999999999979E-003     0.0000000000000000     
  -1.1999999999999997E-003     0.0000000000000000     
  -8.9999999999999976E-004     0.0000000000000000     
  -5.9999999999999810E-004     0.0000000000000000     
  -2.9999999999999992E-004     0.0000000000000000     
   0.0000000000000000          0.0000000000000000     
   3.0000000000000165E-004     0.0000000000000000     
   5.9999999999999984E-004     0.0000000000000000     
   9.0000000000000149E-004     0.0000000000000000     
   1.2000000000000031E-003     0.0000000000000000     
   1.5000000000000013E-003     0.0000000000000000     
   1.8000000000000030E-003     0.0000000000000000     
   2.1000000000000012E-003     0.0000000000000000     
   2.3999999999999994E-003     0.0000000000000000     
   2.7000000000000010E-003     0.0000000000000000     
   2.9999999999999992E-003     0.0000000000000000     
   3.3000000000000008E-003     0.0000000000000000     
   3.6000000000000025E-003     0.0000000000000000     
   3.9000000000000007E-003     0.0000000000000000     
   4.2000000000000023E-003     0.0000000000000000     
   4.5000000000000005E-003     0.0000000000000000     
   4.7999999999999987E-003     0.0000000000000000     
   5.1000000000000004E-003     0.0000000000000000     
   5.4000000000000020E-003     0.0000000000000000     
   5.7000000000000037E-003     0.0000000000000000     
   5.9999999999999984E-003     0.0000000000000000     
   6.3000000000000000E-003     0.0000000000000000     
   6.6000000000000017E-003     0.0000000000000000     
   6.9000000000000034E-003     0.0000000000000000     
   7.2000000000000015E-003     0.0000000000000000     
   7.5000000000000032E-003     0.0000000000000000     
   7.8000000000000014E-003     0.0000000000000000     
   8.0999999999999996E-003     0.0000000000000000     
   8.4000000000000012E-003     0.0000000000000000     
   8.7000000000000029E-003     0.0000000000000000     
   9.0000000000000011E-003     0.0000000000000000     
   9.2999999999999992E-003     0.0000000000000000     
   9.6000000000000009E-003     0.0000000000000000     
   9.8999999999999991E-003     0.0000000000000000     
   1.0200000000000001E-002     0.0000000000000000     
   1.0500000000000002E-002     0.0000000000000000     
   1.0800000000000004E-002     0.0000000000000000     
   1.1099999999999999E-002     0.0000000000000000     
   1.1400000000000000E-002     0.0000000000000000     
   1.1700000000000002E-002     0.0000000000000000     
   1.2000000000000004E-002     0.0000000000000000     
   1.2300000000000002E-002     0.0000000000000000     
   1.2600000000000000E-002     0.0000000000000000     
   1.2900000000000002E-002     0.0000000000000000     
   1.3200000000000000E-002     0.0000000000000000     
   1.3500000000000002E-002     0.0000000000000000     
   1.3800000000000003E-002     0.0000000000000000     
   1.4100000000000001E-002     0.0000000000000000     
   1.4400000000000000E-002     0.0000000000000000     
   1.4700000000000001E-002     0.0000000000000000     
   1.4999999999999999E-002     0.0000000000000000     
   1.5300000000000001E-002     0.0000000000000000     
   1.5600000000000003E-002     0.0000000000000000     
   1.5899999999999997E-002     0.0000000000000000     
   1.6199999999999999E-002     0.0000000000000000     
   1.6500000000000001E-002     0.0000000000000000     
   1.6800000000000002E-002     0.0000000000000000     
   1.7100000000000004E-002     0.0000000000000000     
   1.7400000000000006E-002     0.0000000000000000     
   1.7700000000000000E-002     0.0000000000000000     
   1.8000000000000002E-002     0.0000000000000000     
   1.8300000000000004E-002     0.0000000000000000     
   1.8600000000000005E-002     0.0000000000000000     
   1.8900000000000000E-002     0.0000000000000000     
   1.9200000000000002E-002     0.0000000000000000     
   1.9500000000000003E-002     0.0000000000000000     
   1.9799999999999998E-002     0.0000000000000000     
   2.0100000000000000E-002     0.0000000000000000     
   2.0400000000000001E-002     0.0000000000000000     
   2.0700000000000003E-002     0.0000000000000000     
   2.0999999999999998E-002     0.0000000000000000     
   2.1299999999999999E-002     0.0000000000000000     
   2.1600000000000001E-002     0.0000000000000000     
   2.1900000000000003E-002     0.0000000000000000     
   2.2200000000000004E-002     0.0000000000000000     
   2.2500000000000006E-002     0.0000000000000000     
   2.2800000000000001E-002     0.0000000000000000     
   2.3100000000000002E-002     0.0000000000000000     
   2.3400000000000004E-002     0.0000000000000000     
   2.3699999999999999E-002     0.0000000000000000     
   2.4000000000000000E-002     0.0000000000000000     
   2.4300000000000002E-002     0.0000000000000000     
   2.4599999999999997E-002     0.0000000000000000     
   2.4900000000000005E-002     0.0000000000000000     
   2.5200000000000000E-002     0.0000000000000000     
   2.5499999999999995E-002     0.0000000000000000     
   2.5800000000000003E-002     0.0000000000000000     
   2.6099999999999998E-002     0.0000000000000000     
   2.6400000000000007E-002     0.0000000000000000     
   2.6700000000000002E-002     0.0000000000000000     
   2.6999999999999996E-002     0.0000000000000000     
   2.7300000000000005E-002     0.0000000000000000     
   2.7600000000000000E-002    -5.4543224864079634E-036
   2.7900000000000008E-002     9.5121843737301202E-036
   2.8200000000000003E-002    -6.7940194218255529E-036
   2.8499999999999998E-002    -8.0591192446717827E-035
   2.8800000000000006E-002     3.1524705965714620E-034
   2.9100000000000001E-002    -5.2108346732582138E-034
   2.9400000000000003E-002    -4.2969814876999664E-034
   2.9700000000000004E-002     1.9677138094421756E-033
   3.0000000000000006E-002    -3.2939882696314610E-033
   3.0300000000000001E-002     9.3773144311688207E-033
   3.0600000000000002E-002    -9.8487390937264065E-033
   3.0900000000000004E-002    -5.2513498309337309E-033
   3.1199999999999999E-002     4.3009037266395765E-032
   3.1500000000000007E-002    -2.0165821879316894E-031
   3.1800000000000002E-002     1.2586364079791114E-030
   3.2099999999999997E-002    -7.1612357174128223E-030
   3.2400000000000005E-002     3.4032587444328753E-029
   3.2700000000000000E-002    -1.3995533090630313E-028
   3.3000000000000002E-002     5.0864666870092151E-028
   3.3300000000000003E-002    -1.5713459230646324E-027
   3.3599999999999998E-002     3.4093940470490260E-027
   3.3900000000000000E-002     6.5725671951718770E-028
   3.4200000000000001E-002    -5.7826080476593778E-026
   3.4500000000000003E-002     3.7597145255498026E-025
   3.4799999999999998E-002    -1.5883693619026311E-024
   3.5099999999999999E-002     4.7681951942528625E-024
   3.5400000000000001E-002    -8.5011682225841912E-024
   3.5699999999999996E-002    -6.2714654957514848E-024
   3.6000000000000004E-002     1.2244825188585381E-022
   3.6299999999999999E-002    -5.6996636760154329E-022
   3.6600000000000008E-002     1.7235184518562468E-021
   3.6900000000000002E-002    -3.4377803972288558E-021
   3.7199999999999997E-002     2.0531713324881524E-021
   3.7500000000000006E-002     1.8488699996497722E-020
   3.7800000000000000E-002    -1.0653179622183456E-019
   3.8100000000000009E-002     3.7157599350735560E-019
   3.8400000000000004E-002    -9.6672836003498453E-019
   3.8699999999999998E-002     1.7554745424136186E-018
   3.9000000000000007E-002    -8.3628699221783567E-019
   3.9300000000000002E-002    -9.5715393056032106E-018
   3.9600000000000003E-002     4.9627941621037725E-017
   3.9900000000000005E-002    -1.4809075387029938E-016
   4.0200000000000000E-002     2.8024595926654839E-016
   4.0500000000000001E-002    -1.5527499616133474E-016
   4.0800000000000003E-002    -1.1617415801804128E-015
   4.1100000000000005E-002     5.2661025124183403E-015
   4.1399999999999999E-002    -1.2247755063019439E-014
   4.1700000000000008E-002     1.3612746963453850E-014
   4.2000000000000003E-002     1.8072476227668464E-014
   4.2299999999999997E-002    -1.2414110809200879E-013
   4.2600000000000006E-002     2.9714409101669337E-013
   4.2900000000000001E-002    -3.4098291139435244E-013
   4.3200000000000002E-002    -2.0465207761950766E-013
   4.3500000000000004E-002     1.7058857581728204E-012
   4.3799999999999999E-002    -3.6375477283079327E-012
   4.4100000000000000E-002     5.2798195503134249E-012
   4.4400000000000002E-002    -1.1094073576467522E-011
   4.4700000000000004E-002     3.1730292004983340E-011
   4.4999999999999998E-002    -2.9559656805622225E-011
   4.5300000000000000E-002    -2.5637911238440836E-010
   4.5600000000000002E-002     1.3546822552612525E-009
   4.5899999999999996E-002    -2.6793498530963689E-009
   4.6200000000000005E-002    -1.9105033111088687E-009
   4.6500000000000000E-002     2.5353877219913556E-008
   4.6799999999999994E-002    -5.4350326905705515E-008
   4.7100000000000003E-002    -4.4594447246026903E-008
   4.7399999999999998E-002     4.4371103058438166E-007
   4.7700000000000006E-002    -5.7714350987225771E-007
   4.8000000000000001E-002    -2.2715173599863192E-006
   4.8300000000000010E-002     9.6418098110007122E-006
   4.8600000000000004E-002     4.1748153307707980E-005
   4.8899999999999999E-002     6.4442931034136564E-005
   4.9200000000000008E-002     6.3465406128671020E-005
   4.9500000000000002E-002     8.4881488874088973E-005
   4.9800000000000011E-002     1.4521590492222458E-004
   5.0100000000000006E-002     2.1363595442380756E-004
   5.0400000000000000E-002     3.1966064125299454E-004
   5.0700000000000009E-002     4.8807979328557849E-004
   5.1000000000000004E-002     6.9348816759884357E-004
   5.1299999999999998E-002     9.8362844437360764E-004
   5.1600000000000007E-002     1.4110875781625509E-003
   5.1900000000000002E-002     1.9667381420731544E-003
   5.2200000000000010E-002     2.6876463089138269E-003
   5.2500000000000005E-002     3.6206757649779320E-003
   5.2800000000000000E-002     4.7520115040242672E-003
   5.3099999999999994E-002     6.0737589374184608E-003
   5.3400000000000003E-002     7.5890775769948959E-003
   5.3699999999999998E-002     9.2127528041601181E-003
   5.4000000000000006E-002     1.0782916098833084E-002
   5.4300000000000001E-002     1.2078887782990932E-002
   5.4599999999999996E-002     1.2785091996192932E-002
   5.4900000000000004E-002     1.2472289614379406E-002
   5.5199999999999999E-002     1.0511204600334167E-002
   5.5499999999999994E-002     6.1693526804447174E-003
   5.5800000000000002E-002    -1.3468104880303144E-003
   5.6099999999999997E-002    -1.3001961633563042E-002
   5.6400000000000006E-002    -2.9766749590635300E-002
   5.6700000000000000E-002    -5.2493762224912643E-002
   5.6999999999999995E-002    -8.1863656640052795E-002
   5.7300000000000004E-002   -0.11819637566804886     
   5.7599999999999998E-002   -0.16123880445957184     
   5.7900000000000007E-002   -0.21004168689250946     
   5.8200000000000002E-002   -0.26277059316635132     
   5.8499999999999996E-002   -0.31650295853614807     
   5.8800000000000005E-002   -0.36727643013000488     
   5.9100000000000000E-002   -0.41010129451751709     
   5.9400000000000008E-002   -0.43905171751976013     
   5.9700000000000003E-002   -0.44763293862342834     
   6.0000000000000012E-002   -0.42922589182853699     
   6.0300000000000006E-002   -0.37763056159019470     
   6.0600000000000001E-002   -0.28773149847984314     
   6.0900000000000010E-002   -0.15626356005668640     
   6.1200000000000004E-002     1.7507128417491913E-002
   6.1500000000000013E-002    0.23121425509452820     
   6.1800000000000008E-002    0.47892376780509949     
   6.2100000000000002E-002    0.75104361772537231     
   6.2399999999999997E-002     1.0344910621643066     
   6.2700000000000006E-002     1.3131787776947021     
   6.3000000000000000E-002     1.5689089298248291     
   6.3300000000000009E-002     1.7825917005538940     
   6.3600000000000004E-002     1.9356359243392944     
   6.3899999999999998E-002     2.0114650726318359     
   6.4199999999999993E-002     1.9970551729202271     
   6.4500000000000002E-002     1.8842427730560303     
   6.4800000000000010E-002     1.6707319021224976     
   6.5100000000000005E-002     1.3607690334320068     
   6.5400000000000000E-002    0.96507334709167480     
   6.5700000000000008E-002    0.50052541494369507     
   6.5999999999999989E-002    -1.0791784152388573E-002
   6.6299999999999998E-002   -0.54303508996963501     
   6.6600000000000006E-002    -1.0683047771453857     
   6.6900000000000001E-002    -1.5585995912551880     
   6.7199999999999996E-002    -1.9878412485122681     
   6.7500000000000004E-002    -2.3333909511566162     
   6.7800000000000013E-002    -2.5776803493499756     
   6.8099999999999994E-002    -2.7095563411712646     
   6.8400000000000002E-002    -2.7248647212982178     
   6.8700000000000011E-002    -2.6263961791992188     
   6.8999999999999992E-002    -2.4236531257629395     
   6.9300000000000000E-002    -2.1320936679840088     
   6.9600000000000009E-002    -1.7721244096755981     
   6.9900000000000004E-002    -1.3672630786895752     
   7.0199999999999999E-002   -0.94263994693756104     
   7.0500000000000007E-002   -0.52333551645278931     
   7.0800000000000016E-002   -0.13281922042369843     
   7.1099999999999997E-002    0.20871041715145111     
   7.1400000000000005E-002    0.48549273610115051     
   7.1700000000000000E-002    0.68697857856750488     
   7.1999999999999995E-002    0.80830228328704834     
   7.2300000000000003E-002    0.85023367404937744     
   7.2600000000000012E-002    0.81904703378677368     
   7.2900000000000006E-002    0.72571372985839844     
   7.3200000000000001E-002    0.58455920219421387     
   7.3499999999999996E-002    0.41224595904350281     
   7.3800000000000004E-002    0.22651663422584534     
   7.4099999999999999E-002     4.4824071228504181E-002
   7.4400000000000008E-002   -0.11697299778461456     
   7.4700000000000003E-002   -0.24572844803333282     
   7.5000000000000011E-002   -0.33137014508247375     
   7.5299999999999992E-002   -0.36747446656227112     
   7.5600000000000001E-002   -0.35137492418289185     
   7.5900000000000009E-002   -0.28397318720817566     
   7.6200000000000004E-002   -0.16945463418960571     
   7.6499999999999999E-002    -1.4424122869968414E-002
   7.6800000000000007E-002    0.17251510918140411     
   7.7099999999999988E-002    0.38151180744171143     
   7.7399999999999997E-002    0.60195791721343994     
   7.7700000000000005E-002    0.82306534051895142     
   7.8000000000000014E-002     1.0344322919845581     
   7.8299999999999995E-002     1.2262835502624512     
   7.8600000000000003E-002     1.3898684978485107     
   7.8900000000000012E-002     1.5174145698547363     
   7.9199999999999993E-002     1.6025822162628174     
   7.9500000000000001E-002     1.6406962871551514     
   7.9800000000000010E-002     1.6287970542907715     
   8.0100000000000018E-002     1.5659495592117310     
   8.0399999999999999E-002     1.4533469676971436     
   8.0700000000000008E-002     1.2944252490997314     
   8.1000000000000003E-002     1.0950424671173096     
   8.1299999999999997E-002    0.86334347724914551     
   8.1600000000000006E-002    0.60936933755874634     
   8.1900000000000014E-002    0.34446901082992554     
   8.2199999999999995E-002     8.1018298864364624E-002
   8.2500000000000004E-002   -0.16831777989864349     
   8.2799999999999999E-002   -0.39173373579978943     
   8.3100000000000007E-002   -0.57928258180618286     
   8.3400000000000002E-002   -0.72340250015258789     
   8.3700000000000011E-002   -0.81962323188781738     
   8.4000000000000005E-002   -0.86697089672088623     
   8.4300000000000000E-002   -0.86850333213806152     
   8.4599999999999995E-002   -0.83097630739212036     
   8.4900000000000003E-002   -0.76392328739166260     
   8.5199999999999998E-002   -0.67911303043365479     
   8.5500000000000007E-002   -0.58960092067718506     
   8.5800000000000001E-002   -0.50842267274856567     
   8.6100000000000010E-002   -0.44710350036621094     
   8.6399999999999991E-002   -0.41481947898864746     
   8.6699999999999999E-002   -0.41715946793556213     
   8.7000000000000008E-002   -0.45601451396942139     
   8.7300000000000003E-002   -0.52920168638229370     
   8.7599999999999997E-002   -0.63032746315002441     
   8.7900000000000006E-002   -0.74991720914840698     
   8.8200000000000014E-002   -0.87614411115646362     
   8.8499999999999995E-002   -0.99607634544372559     
   8.8800000000000004E-002    -1.0967569351196289     
   8.9100000000000013E-002    -1.1666409969329834     
   8.9399999999999993E-002    -1.1963899135589600     
   8.9700000000000002E-002    -1.1797406673431396     
   9.0000000000000011E-002    -1.1139379739761353     
   9.0299999999999991E-002   -0.99958652257919312     
   9.0600000000000000E-002   -0.84039264917373657     
   9.0900000000000009E-002   -0.64262330532073975     
   9.1200000000000017E-002   -0.41442453861236572     
   9.1499999999999998E-002   -0.16462749242782593     
   9.1800000000000007E-002     9.7938954830169678E-002
   9.2100000000000001E-002    0.36490154266357422     
   9.2399999999999996E-002    0.62872952222824097     
   9.2700000000000005E-002    0.88324379920959473     
   9.3000000000000013E-002     1.1231307983398438     
   9.3300000000000008E-002     1.3436799049377441     
   9.3600000000000003E-002     1.5405527353286743     
   9.3899999999999997E-002     1.7088980674743652     
   9.4200000000000006E-002     1.8433048725128174     
   9.4500000000000001E-002     1.9375566244125366     
   9.4800000000000009E-002     1.9847460985183716     
   9.5100000000000004E-002     1.9777728319168091     
   9.5399999999999999E-002     1.9098256826400757     
   9.5699999999999993E-002     1.7754193544387817     
   9.6000000000000002E-002     1.5714765787124634     
   9.6300000000000011E-002     1.2984507083892822     
   9.6600000000000005E-002    0.96067786216735840     
   9.6900000000000000E-002    0.56721562147140503     
   9.7200000000000009E-002    0.13180789351463318     
   9.7499999999999989E-002   -0.32772028446197510     
   9.7799999999999998E-002   -0.78992456197738647     
   9.8100000000000007E-002    -1.2315695285797119     
   9.8400000000000015E-002    -1.6291179656982422     
   9.8699999999999996E-002    -1.9601184129714966     
   9.9000000000000005E-002    -2.2054457664489746     
   9.9300000000000013E-002    -2.3504972457885742     
   9.9599999999999994E-002    -2.3864560127258301     
   9.9900000000000003E-002    -2.3108990192413330     
  0.10020000000000001         -2.1280782222747803     
  0.10049999999999999         -1.8483796119689941     
  0.10080000000000000         -1.4876489639282227     
  0.10110000000000001         -1.0657587051391602     
  0.10140000000000000        -0.60523641109466553     
  0.10170000000000000        -0.12985895574092865     
  0.10200000000000001         0.33700704574584961     
  0.10230000000000002         0.77380710840225220     
  0.10260000000000000          1.1617736816406250     
  0.10290000000000001          1.4856328964233398     
  0.10320000000000000          1.7340751886367798     
  0.10350000000000001          1.9000008106231689     
  0.10380000000000000          1.9804446697235107     
  0.10410000000000001          1.9762688875198364     
  0.10440000000000001          1.8917015790939331     
  0.10470000000000000          1.7340576648712158     
  0.10500000000000000          1.5132188796997070     
  0.10530000000000000          1.2413212060928345     
  0.10560000000000000         0.93208569288253784     
  0.10590000000000001         0.60043150186538696     
  0.10620000000000000         0.26194056868553162     
  0.10650000000000001         -6.7618310451507568E-002
  0.10679999999999999        -0.37314543128013611     
  0.10710000000000000        -0.64101010560989380     
  0.10740000000000001        -0.85956132411956787     
  0.10770000000000000         -1.0201213359832764     
  0.10800000000000000         -1.1174753904342651     
  0.10830000000000001         -1.1502455472946167     
  0.10859999999999999         -1.1214069128036499     
  0.10890000000000000         -1.0377452373504639     
  0.10920000000000001        -0.90952956676483154     
  0.10950000000000001        -0.74968481063842773     
  0.10979999999999999        -0.57272374629974365     
  0.11009999999999999        -0.39364755153656006     
  0.11040000000000001        -0.22672800719738007     
  0.11070000000000001         -8.4180630743503571E-002
  0.11100000000000000          2.4754557758569717E-002
  0.11130000000000000          9.3940958380699158E-002
  0.11160000000000002         0.12076088041067123     
  0.11190000000000001         0.10605720430612564     
  0.11220000000000001          5.3728520870208740E-002
  0.11250000000000000         -3.0334534123539925E-002
  0.11280000000000000        -0.13914318382740021     
  0.11309999999999999        -0.26506283879280090     
  0.11340000000000001        -0.40066662430763245     
  0.11369999999999998        -0.53910243511199951     
  0.11400000000000000        -0.67461758852005005     
  0.11430000000000000        -0.80240148305892944     
  0.11460000000000002        -0.91844230890274048     
  0.11489999999999999         -1.0187896490097046     
  0.11520000000000001         -1.0997279882431030     
  0.11550000000000001         -1.1576974391937256     
  0.11580000000000000         -1.1887814998626709     
  0.11609999999999999         -1.1887429952621460     
  0.11640000000000002         -1.1534396409988403     
  0.11670000000000001         -1.0794739723205566     
  0.11700000000000001        -0.96471875905990601     
  0.11730000000000000        -0.80852228403091431     
  0.11760000000000000        -0.61194044351577759     
  0.11789999999999999        -0.37870579957962036     
  0.11820000000000001        -0.11511182785034180     
  0.11850000000000001         0.17036250233650208     
  0.11880000000000000         0.46739029884338379     
  0.11910000000000000         0.76412993669509888     
  0.11940000000000002          1.0479145050048828     
  0.11970000000000001          1.3060438632965088     
  0.12000000000000001          1.5263388156890869     
  0.12030000000000000          1.6984851360321045     
  0.12060000000000000          1.8138945102691650     
  0.12089999999999999          1.8666280508041382     
  0.12119999999999999          1.8537974357604980     
  0.12150000000000001          1.7755979299545288     
  0.12180000000000001          1.6360958814620972     
  0.12210000000000000          1.4423468112945557     
  0.12239999999999999          1.2043164968490601     
  0.12270000000000002         0.93468475341796875     
  0.12300000000000001         0.64834541082382202     
  0.12330000000000001         0.36121413111686707     
  0.12360000000000000          8.9383117854595184E-002
  0.12390000000000000        -0.15185487270355225     
  0.12419999999999999        -0.34892994165420532     
  0.12450000000000001        -0.49068847298622131     
  0.12480000000000001        -0.56968897581100464     
  0.12509999999999999        -0.58258849382400513     
  0.12540000000000001        -0.53034991025924683     
  0.12570000000000003        -0.41790032386779785     
  0.12600000000000000        -0.25382488965988159     
  0.12630000000000002         -5.0373613834381104E-002
  0.12659999999999999         0.17789958417415619     
  0.12690000000000001         0.41521635651588440     
  0.12719999999999998         0.64576184749603271     
  0.12750000000000000         0.85416913032531738     
  0.12780000000000002          1.0261489152908325     
  0.12809999999999999          1.1499402523040771     
  0.12840000000000001          1.2168785333633423     
  0.12869999999999998          1.2212135791778564     
  0.12900000000000000          1.1605057716369629     
  0.12930000000000003          1.0356674194335938     
  0.12959999999999999         0.85114932060241699     
  0.12990000000000002         0.61460918188095093     
  0.13019999999999998         0.33659151196479797     
  0.13050000000000000          2.9912812635302544E-002
  0.13080000000000003        -0.29067257046699524     
  0.13109999999999999        -0.60883992910385132     
  0.13140000000000002        -0.90796166658401489     
  0.13169999999999998         -1.1721147298812866     
  0.13200000000000001         -1.3868683576583862     
  0.13229999999999997         -1.5399457216262817     
  0.13260000000000000         -1.6223968267440796     
  0.13290000000000002         -1.6294443607330322     
  0.13319999999999999         -1.5607877969741821     
  0.13350000000000001         -1.4204152822494507     
  0.13380000000000003         -1.2166459560394287     
  0.13410000000000000        -0.96133822202682495     
  0.13440000000000002        -0.66931116580963135     
  0.13469999999999999        -0.35709282755851746     
  0.13500000000000001         -4.1866187006235123E-002
  0.13529999999999998         0.25963905453681946     
  0.13560000000000000         0.53187865018844604     
  0.13590000000000002         0.76132136583328247     
  0.13619999999999999         0.93669575452804565     
  0.13650000000000001          1.0494523048400879     
  0.13680000000000003          1.0936019420623779     
  0.13710000000000000          1.0654865503311157     
  0.13740000000000002         0.96383309364318848     
  0.13769999999999999         0.78958249092102051     
  0.13800000000000001         0.54588693380355835     
  0.13829999999999998         0.23832333087921143     
  0.13860000000000000        -0.12478869408369064     
  0.13890000000000002        -0.53219264745712280     
  0.13919999999999999        -0.96940457820892334     
  0.13950000000000001         -1.4187498092651367     
  0.13979999999999998         -1.8593243360519409     
  0.14010000000000000         -2.2678074836730957     
  0.14040000000000002         -2.6193537712097168     
  0.14069999999999999         -2.8890805244445801     
  0.14100000000000001         -3.0536220073699951     
  0.14130000000000004         -3.0931034088134766     
  0.14160000000000000         -2.9927935600280762     
  0.14189999999999997         -2.7450752258300781     
  0.14219999999999999         -2.3509619235992432     
  0.14250000000000002         -1.8202589750289917     
  0.14279999999999998         -1.1719545125961304     
  0.14310000000000000        -0.43381699919700623     
  0.14339999999999997         0.35955503582954407     
  0.14369999999999999          1.1680140495300293     
  0.14400000000000002          1.9490654468536377     
  0.14429999999999998          2.6606423854827881     
  0.14460000000000001          3.2636511325836182     
  0.14490000000000003          3.7247214317321777     
  0.14520000000000000          4.0188732147216797     
  0.14550000000000002          4.1310343742370605     
  0.14579999999999999          4.0571084022521973     
  0.14610000000000001          3.8037793636322021     
  0.14640000000000003          3.3880581855773926     
  0.14670000000000000          2.8362293243408203     
  0.14699999999999996          2.1818027496337891     
  0.14729999999999999          1.4625685214996338     
  0.14760000000000001         0.71827161312103271     
  0.14789999999999998         -1.1831279844045639E-002
  0.14820000000000000        -0.69133394956588745     