  -1.4999999999999999E-002     0.0000000000000000     
  -1.4700000000000000E-002    -5.0332397222518921E-005
  -1.4400000000000000E-002     7.1036782173905522E-005
  -1.4100000000000000E-002     2.5734750670380890E-004
  -1.3800000000000000E-002     3.9261754136532545E-004
  -1.3500000000000000E-002     4.1339840390719473E-004
  -1.3200000000000000E-002     1.3914647570345551E-004
  -1.2899999999999998E-002    -2.4399618268944323E-004
  -1.2600000000000000E-002    -5.4506660671904683E-004
  -1.2299999999999998E-002    -9.3702861340716481E-004
  -1.2000000000000000E-002    -1.6017842572182417E-003
  -1.1699999999999999E-002    -2.6958822272717953E-003
  -1.1399999999999999E-002    -4.7529279254376888E-003
  -1.1099999999999999E-002    -8.0120684579014778E-003
  -1.0799999999999999E-002    -1.3396042399108410E-002
  -1.0499999999999999E-002    -2.1473299711942673E-002
  -1.0199999999999999E-002    -3.4643080085515976E-002
  -9.8999999999999991E-003    -5.4124575108289719E-002
  -9.5999999999999992E-003    -8.3850324153900146E-002
  -9.2999999999999992E-003   -0.12677267193794250     
  -8.9999999999999993E-003   -0.18783868849277496     
  -8.6999999999999994E-003   -0.27360564470291138     
  -8.3999999999999995E-003   -0.39144134521484375     
  -8.0999999999999996E-003   -0.55044984817504883     
  -7.7999999999999988E-003   -0.76041525602340698     
  -7.4999999999999997E-003    -1.0324904918670654     
  -7.1999999999999998E-003    -1.3766629695892334     
  -6.8999999999999981E-003    -1.8032950162887573     
  -6.5999999999999982E-003    -2.3192322254180908     
  -6.3000000000000000E-003    -2.9275228977203369     
  -6.0000000000000001E-003    -3.6245989799499512     
  -5.6999999999999985E-003    -4.3979716300964355     
  -5.3999999999999986E-003    -5.2246189117431641     
  -5.1000000000000004E-003    -6.0682935714721680     
  -4.7999999999999987E-003    -6.8786087036132812     
  -4.5000000000000005E-003    -7.5909385681152344     
  -4.1999999999999989E-003    -8.1270275115966797     
  -3.8999999999999990E-003    -8.3985395431518555     
  -3.5999999999999990E-003    -8.3111963272094727     
  -3.2999999999999991E-003    -7.7723731994628906     
  -2.9999999999999992E-003    -6.6993274688720703     
  -2.6999999999999993E-003    -5.0292091369628906     
  -2.3999999999999994E-003    -2.7289643287658691     
  -2.0999999999999977E-003    0.19534160196781158     
  -1.7999999999999995E-003     3.6893241405487061     
  -1.4999999999999979E-003     7.6472454071044922     
  -1.1999999999999997E-003     11.909807205200195     
  -8.9999999999999976E-004     16.269208908081055     
  -5.9999999999999810E-004     20.479238510131836     
  -2.9999999999999992E-004     24.269542694091797     
   0.0000000000000000          27.365798950195312     
   3.0000000000000165E-004     29.509923934936523     
   5.9999999999999984E-004     30.485153198242188     
   9.0000000000000149E-004     30.136425018310547     
   1.2000000000000031E-003     28.388254165649414     
   1.5000000000000013E-003     25.257305145263672     
   1.8000000000000030E-003     20.855302810668945     
   2.1000000000000012E-003     15.386977195739746     
   2.3999999999999994E-003     9.1335697174072266     
   2.7000000000000010E-003     2.4367928504943848     
   2.9999999999999992E-003    -4.3294591903686523     
   3.3000000000000008E-003    -10.789601325988770     
   3.6000000000000025E-003    -16.591247558593750     
   3.9000000000000007E-003    -21.440006256103516     
   4.2000000000000023E-003    -25.113044738769531     
   4.5000000000000005E-003    -27.479887008666992     
   4.7999999999999987E-003    -28.506898880004883     
   5.1000000000000004E-003    -28.252429962158203     
   5.4000000000000020E-003    -26.861034393310547     
   5.7000000000000037E-003    -24.539937973022461     
   5.9999999999999984E-003    -21.543092727661133     
   6.3000000000000000E-003    -18.141397476196289     
   6.6000000000000017E-003    -14.601575851440430     
   6.9000000000000034E-003    -11.163540840148926     
   7.2000000000000015E-003    -8.0213117599487305     
   7.5000000000000032E-003    -5.3140959739685059     
   7.8000000000000014E-003    -3.1182837486267090     
   8.0999999999999996E-003    -1.4494084119796753     
   8.4000000000000012E-003   -0.27005356550216675     
   8.7000000000000029E-003    0.50378715991973877     
   9.0000000000000011E-003    0.97983896732330322     
   9.2999999999999992E-003     1.2843053340911865     
   9.6000000000000009E-003     1.5357034206390381     
   9.8999999999999991E-003     1.8392595052719116     
   1.0200000000000001E-002     2.2730817794799805     
   1.0500000000000002E-002     2.8788862228393555     
   1.0800000000000004E-002     3.6662106513977051     
   1.1099999999999999E-002     4.6050949096679688     
   1.1400000000000000E-002     5.6408834457397461     
   1.1700000000000002E-002     6.6932058334350586     
   1.2000000000000004E-002     7.6746239662170410     
   1.2300000000000002E-002     8.4947185516357422     
   1.2600000000000000E-002     9.0728473663330078     
   1.2900000000000002E-002     9.3478164672851562     
   1.3200000000000000E-002     9.2797298431396484     
   1.3500000000000002E-002     8.8583412170410156     
   1.3800000000000003E-002     8.1006278991699219     
   1.4100000000000001E-002     7.0490212440490723     
   1.4400000000000000E-002     5.7670116424560547     
   1.4700000000000001E-002     4.3338751792907715     
   1.4999999999999999E-002     2.8355154991149902     
   1.5300000000000001E-002     1.3606885671615601     
   1.5600000000000003E-002    -9.6942707896232605E-003
   1.5899999999999997E-002    -1.2056467533111572     
   1.6199999999999999E-002    -2.1727199554443359     
   1.6500000000000001E-002    -2.8760609626770020     
   1.6800000000000002E-002    -3.3008551597595215     
   1.7100000000000004E-002    -3.4510827064514160     
   1.7400000000000006E-002    -3.3483622074127197     
   1.7700000000000000E-002    -3.0289819240570068     
   1.8000000000000002E-002    -2.5389919281005859     
   1.8300000000000004E-002    -1.9330030679702759     
   1.8600000000000005E-002    -1.2654020786285400     
   1.8900000000000000E-002   -0.59099775552749634     
   1.9200000000000002E-002     4.1240572929382324E-002
   1.9500000000000003E-002    0.58992815017700195     
   1.9799999999999998E-002     1.0218514204025269     
   2.0100000000000000E-002     1.3164958953857422     
   2.0400000000000001E-002     1.4617561101913452     
   2.0700000000000003E-002     1.4570685625076294     
   2.0999999999999998E-002     1.3117161989212036     
   2.1299999999999999E-002     1.0418372154235840     
   2.1600000000000001E-002    0.67282724380493164     
   2.1900000000000003E-002    0.23254452645778656     
   2.2200000000000004E-002   -0.24555803835391998     
   2.2500000000000006E-002   -0.72825634479522705     
   2.2800000000000001E-002    -1.1818399429321289     
   2.3100000000000002E-002    -1.5762656927108765     
   2.3400000000000004E-002    -1.8854659795761108     
   2.3699999999999999E-002    -2.0885491371154785     
   2.4000000000000000E-002    -2.1753859519958496     
   2.4300000000000002E-002    -2.1405415534973145     
   2.4599999999999997E-002    -1.9909640550613403     
   2.4900000000000005E-002    -1.7385859489440918     
   2.5200000000000000E-002    -1.4043613672256470     
   2.5499999999999995E-002    -1.0138092041015625     
   2.5800000000000003E-002   -0.59536319971084595     
   2.6099999999999998E-002   -0.17861346900463104     
   2.6400000000000007E-002    0.21031880378723145     
   2.6700000000000002E-002    0.54699820280075073     
   2.6999999999999996E-002    0.81510758399963379     
   2.7300000000000005E-002     1.0025312900543213     
   2.7600000000000000E-002     1.1052546501159668     
   2.7900000000000008E-002     1.1251970529556274     
   2.8200000000000003E-002     1.0688332319259644     
   2.8499999999999998E-002    0.94820636510848999     
   2.8800000000000006E-002    0.77693217992782593     
   2.9100000000000001E-002    0.57158643007278442     
   2.9400000000000003E-002    0.34763455390930176     
   2.9700000000000004E-002    0.12135559320449829     
   3.0000000000000006E-002    -9.2795178294181824E-002
   3.0300000000000001E-002   -0.28200647234916687     
   3.0600000000000002E-002   -0.43472120165824890     
   3.0900000000000004E-002   -0.54341614246368408     
   3.1199999999999999E-002   -0.60199254751205444     
   3.1500000000000007E-002   -0.60809761285781860     
   3.1800000000000002E-002   -0.56283158063888550     
   3.2099999999999997E-002   -0.46938255429267883     
   3.2400000000000005E-002   -0.33535671234130859     
   3.2700000000000000E-002   -0.16907137632369995     
   3.3000000000000002E-002     1.7163712531328201E-002
   3.3300000000000003E-002    0.21181970834732056     
   3.3599999999999998E-002    0.40202936530113220     
   3.3900000000000000E-002    0.57642453908920288     
   3.4200000000000001E-002    0.72546648979187012     
   3.4500000000000003E-002    0.84001535177230835     
   3.4799999999999998E-002    0.91521900892257690     
   3.5099999999999999E-002    0.94643110036849976     
   3.5400000000000001E-002    0.93283861875534058     
   3.5699999999999996E-002    0.87393528223037720     
   3.6000000000000004E-002    0.77249193191528320     
   3.6299999999999999E-002    0.63055396080017090     
   3.6600000000000008E-002    0.45323348045349121     
   3.6900000000000002E-002    0.24624453485012054     
   3.7199999999999997E-002     1.7035257071256638E-002
   3.7500000000000006E-002   -0.22418004274368286     
   3.7800000000000000E-002   -0.46622687578201294     
   3.8100000000000009E-002   -0.69548672437667847     
   3.8400000000000004E-002   -0.89716160297393799     
   3.8699999999999998E-002    -1.0564417839050293     
   3.9000000000000007E-002    -1.1582458019256592     
   3.9300000000000002E-002    -1.1901569366455078     
   3.9600000000000003E-002    -1.1440029144287109     
   3.9900000000000005E-002    -1.0155746936798096     
   4.0200000000000000E-002   -0.80838096141815186     
   4.0500000000000001E-002   -0.53072720766067505     
   4.0800000000000003E-002   -0.19925716519355774     
   4.1100000000000005E-002    0.16474355757236481     
   4.1399999999999999E-002    0.53580343723297119     
   4.1700000000000008E-002    0.88459670543670654     
   4.2000000000000003E-002     1.1848249435424805     
   4.2299999999999997E-002     1.4093983173370361     
   4.2600000000000006E-002     1.5401806831359863     
   4.2900000000000001E-002     1.5629767179489136     
   4.3200000000000002E-002     1.4743142127990723     
   4.3500000000000004E-002     1.2786949872970581     
   4.3799999999999999E-002    0.98938900232315063     
   4.4100000000000000E-002    0.62864172458648682     
   4.4400000000000002E-002    0.22165054082870483     
   4.4700000000000004E-002   -0.19845813512802124     
   4.4999999999999998E-002   -0.60397183895111084     
   4.5300000000000000E-002   -0.96321249008178711     
   4.5600000000000002E-002    -1.2542719841003418     
   4.5899999999999996E-002    -1.4583120346069336     
   4.6200000000000005E-002    -1.5658476352691650     
   4.6500000000000000E-002    -1.5754653215408325     
   4.6799999999999994E-002    -1.4924650192260742     
   4.7100000000000003E-002    -1.3303910493850708     
   4.7399999999999998E-002    -1.1053097248077393     
   4.7700000000000006E-002   -0.83919280767440796     
   4.8000000000000001E-002   -0.55148714780807495     
   4.8300000000000010E-002   -0.26326715946197510     
   4.8600000000000004E-002     8.5566872730851173E-003
   4.8899999999999999E-002    0.24976581335067749     
   4.9200000000000008E-002    0.45116361975669861     
   4.9500000000000002E-002    0.60632002353668213     
   4.9800000000000011E-002    0.71422511339187622     
   5.0100000000000006E-002    0.77588278055191040     
   5.0400000000000000E-002    0.79531073570251465     
   5.0700000000000009E-002    0.77829360961914062     
   5.1000000000000004E-002    0.73097705841064453     
   5.1299999999999998E-002    0.66074693202972412     
   5.1600000000000007E-002    0.57466185092926025     
   5.1900000000000002E-002    0.48049405217170715     
   5.2200000000000010E-002    0.38316428661346436     
   5.2500000000000005E-002    0.29019594192504883     
   5.2800000000000000E-002    0.20491726696491241     
   5.3099999999999994E-002    0.13203102350234985     
   5.3400000000000003E-002     7.3686152696609497E-002
   5.3699999999999998E-002     3.0201757326722145E-002
   5.4000000000000006E-002     2.3575229570269585E-003
   5.4300000000000001E-002    -1.3061560690402985E-002
   5.4599999999999996E-002    -1.7277689650654793E-002
   5.4900000000000004E-002    -1.5346596948802471E-002
   5.5199999999999999E-002    -9.8625859245657921E-003
   5.5499999999999994E-002    -4.8921667039394379E-003
   5.5800000000000002E-002    -3.6829987075179815E-003
   5.6099999999999997E-002    -7.7157532796263695E-003
   5.6400000000000006E-002    -1.9428888335824013E-002
   5.6700000000000000E-002    -3.8303777575492859E-002
   5.6999999999999995E-002    -6.4397081732749939E-002
   5.7300000000000004E-002    -9.5639772713184357E-002
   5.7599999999999998E-002   -0.13093207776546478     
   5.7900000000000007E-002   -0.16792617738246918     
   5.8200000000000002E-002   -0.20419488847255707     
   5.8499999999999996E-002   -0.23822964727878571     
   5.8800000000000005E-002   -0.26679953932762146     
   5.9100000000000000E-002   -0.28902971744537354     
   5.9400000000000008E-002   -0.30264651775360107     
   5.9700000000000003E-002   -0.30667778849601746     
   6.0000000000000012E-002   -0.30044665932655334     
   6.0300000000000006E-002   -0.28349947929382324     
   6.0600000000000001E-002   -0.25619158148765564     
   6.0900000000000010E-002   -0.21973524987697601     
   6.1200000000000004E-002   -0.17559848725795746     
   6.1500000000000013E-002   -0.12615711987018585     
   6.1800000000000008E-002    -7.4150718748569489E-002
   6.2100000000000002E-002    -2.1943284198641777E-002
   6.2399999999999997E-002     2.7106175199151039E-002
   6.2700000000000006E-002     7.1426570415496826E-002
   6.3000000000000000E-002    0.10827574133872986     
   6.3300000000000009E-002    0.13746267557144165     
   6.3600000000000004E-002    0.15722315013408661     
   6.3899999999999998E-002    0.16872563958168030     
   6.4199999999999993E-002    0.17205733060836792     
   6.4500000000000002E-002    0.16829535365104675     
   6.4800000000000010E-002    0.15902608633041382     
   6.5100000000000005E-002    0.14497981965541840     
   6.5400000000000000E-002    0.12846793234348297     
   6.5700000000000008E-002    0.10942954570055008     
   6.5999999999999989E-002     9.0674512088298798E-002
   6.6299999999999998E-002     7.1596637368202209E-002
   6.6600000000000006E-002     5.4530367255210876E-002
   6.6900000000000001E-002     3.9701357483863831E-002
   6.7199999999999996E-002     2.7407972142100334E-002
   6.7500000000000004E-002     1.9426986575126648E-002
   6.7800000000000013E-002     1.4070282690227032E-002
   6.8099999999999994E-002     1.3683150522410870E-002
   6.8400000000000002E-002     1.5604375861585140E-002
   6.8700000000000011E-002     2.0941764116287231E-002
   6.8999999999999992E-002     2.7522765100002289E-002
   6.9300000000000000E-002     3.5012986510992050E-002
   6.9600000000000009E-002     4.2339894920587540E-002
   6.9900000000000004E-002     4.7806654125452042E-002
   7.0199999999999999E-002     5.1744118332862854E-002
   7.0500000000000007E-002     5.2339747548103333E-002
   7.0800000000000016E-002     5.0693940371274948E-002
   7.1099999999999997E-002     4.5657549053430557E-002
   7.1400000000000005E-002     3.8506593555212021E-002
   7.1700000000000000E-002     2.8619155287742615E-002
   7.1999999999999995E-002     1.7587492242455482E-002
   7.2300000000000003E-002     5.2165053784847260E-003
   7.2600000000000012E-002    -7.5021255761384964E-003
   7.2900000000000006E-002    -2.0545225590467453E-002
   7.3200000000000001E-002    -3.3055525273084641E-002
   7.3499999999999996E-002    -4.5257974416017532E-002
   7.3800000000000004E-002    -5.5384926497936249E-002
   7.4099999999999999E-002    -6.4723491668701172E-002
   7.4400000000000008E-002    -7.1295119822025299E-002
   7.4700000000000003E-002    -7.6166093349456787E-002
   7.5000000000000011E-002    -7.8286424279212952E-002
   7.5299999999999992E-002    -7.7939264476299286E-002
   7.5600000000000001E-002    -7.5217977166175842E-002
   7.5900000000000009E-002    -6.9961205124855042E-002
   7.6200000000000004E-002    -6.3935533165931702E-002
   7.6499999999999999E-002    -5.5531322956085205E-002
   7.6800000000000007E-002    -4.7743849456310272E-002
   7.7099999999999988E-002    -3.8540892302989960E-002
   7.7399999999999997E-002    -3.0421791598200798E-002
   7.7700000000000005E-002    -2.2202271968126297E-002
   7.8000000000000014E-002    -1.4848152175545692E-002
   7.8299999999999995E-002    -8.0182729288935661E-003
   7.8600000000000003E-002    -2.1654076408594847E-003
   7.8900000000000012E-002     2.9318223241716623E-003
   7.9199999999999993E-002     7.6895058155059814E-003
   7.9500000000000001E-002     1.1155901476740837E-002
   7.9800000000000010E-002     1.4145115390419960E-002
   8.0100000000000018E-002     1.5951743349432945E-002
   8.0399999999999999E-002     1.6528984531760216E-002
   8.0700000000000008E-002     1.6767106950283051E-002
   8.1000000000000003E-002     1.6008572652935982E-002
   8.1299999999999997E-002     1.4975691214203835E-002
   8.1600000000000006E-002     1.3516472652554512E-002
   8.1900000000000014E-002     1.2440452352166176E-002
   8.2199999999999995E-002     1.1345293372869492E-002
   8.2500000000000004E-002     1.0969693772494793E-002
   8.2799999999999999E-002     1.1270629242062569E-002
   8.3100000000000007E-002     1.1632124893367290E-002
   8.3400000000000002E-002     1.2952416203916073E-002
   8.3700000000000011E-002     1.3689481653273106E-002
   8.4000000000000005E-002     1.4601652510464191E-002
   8.4300000000000000E-002     1.5347122214734554E-002
   8.4599999999999995E-002     1.5647703781723976E-002
   8.4900000000000003E-002     1.5824792906641960E-002
   8.5199999999999998E-002     1.5601856634020805E-002
   8.5500000000000007E-002     1.5727570280432701E-002
   8.5800000000000001E-002     1.5479716472327709E-002
   8.6100000000000010E-002     1.5749366953969002E-002
   8.6399999999999991E-002     1.5955669805407524E-002
   8.6699999999999999E-002     1.6241917386651039E-002
   8.7000000000000008E-002     1.6546433791518211E-002
   8.7300000000000003E-002     1.5931513160467148E-002
   8.7599999999999997E-002     1.5272020362317562E-002
   8.7900000000000006E-002     1.3331434689462185E-002
   8.8200000000000014E-002     1.1435930617153645E-002
   8.8499999999999995E-002     8.1851184368133545E-003
   8.8800000000000004E-002     4.9660825170576572E-003
   8.9100000000000013E-002     1.3175335479900241E-003
   8.9399999999999993E-002    -2.6122252456843853E-003
   8.9700000000000002E-002    -6.0792658478021622E-003
   9.0000000000000011E-002    -9.4819022342562675E-003
   9.0299999999999991E-002    -1.2400563806295395E-002
   9.0600000000000000E-002    -1.5183490701019764E-002
   9.0900000000000009E-002    -1.7565408721566200E-002
   9.1200000000000017E-002    -1.9603423774242401E-002
   9.1499999999999998E-002    -2.1218437701463699E-002
   9.1800000000000007E-002    -2.1909154951572418E-002
   9.2100000000000001E-002    -2.2276589646935463E-002
   9.2399999999999996E-002    -2.1026516333222389E-002
   9.2700000000000005E-002    -1.9118063151836395E-002
   9.3000000000000013E-002    -1.5893870964646339E-002
   9.3300000000000008E-002    -1.1362224817276001E-002
   9.3600000000000003E-002    -6.4055952243506908E-003
   9.3899999999999997E-002    -8.3690742030739784E-004
   9.4200000000000006E-002     4.3483558110892773E-003
   9.4500000000000001E-002     9.1528538614511490E-003
   9.4800000000000009E-002     1.2605507858097553E-002
   9.5100000000000004E-002     1.4801353216171265E-002
   9.5399999999999999E-002     1.5357333235442638E-002
   9.5699999999999993E-002     1.4689304865896702E-002
   9.6000000000000002E-002     1.2815225869417191E-002
   9.6300000000000011E-002     9.8557388409972191E-003
   9.6600000000000005E-002     6.5191974863409996E-003
   9.6900000000000000E-002     2.8691024053841829E-003
   9.7200000000000009E-002    -6.6251179669052362E-004
   9.7499999999999989E-002    -3.8457415066659451E-003
   9.7799999999999998E-002    -7.1221282705664635E-003
   9.8100000000000007E-002    -1.0187651030719280E-002
   9.8400000000000015E-002    -1.2950783595442772E-002
   9.8699999999999996E-002    -1.5541005879640579E-002
   9.9000000000000005E-002    -1.7297314479947090E-002
   9.9300000000000013E-002    -1.8888395279645920E-002
   9.9599999999999994E-002    -1.9182283431291580E-002
   9.9900000000000003E-002    -1.8283914774656296E-002
  0.10020000000000001         -1.6205042600631714E-002
  0.10049999999999999         -1.2338925153017044E-002
  0.10080000000000000         -7.6155583374202251E-003
  0.10110000000000001         -1.2800773838534951E-003
  0.10140000000000000          4.6084821224212646E-003
  0.10170000000000000          1.1141963303089142E-002
  0.10200000000000001          1.6361925750970840E-002
  0.10230000000000002          2.1004155278205872E-002
  0.10260000000000000          2.4014985188841820E-002
  0.10290000000000001          2.5424037128686905E-002
  0.10320000000000000          2.5723574683070183E-002
  0.10350000000000001          2.4195604026317596E-002
  0.10380000000000000          2.2210078313946724E-002
  0.10410000000000001          1.8871212378144264E-002
  0.10440000000000001          1.5429231338202953E-002
  0.10470000000000000          1.1349389329552650E-002
  0.10500000000000000          6.6499579697847366E-003
  0.10530000000000000          1.8442573491483927E-003
  0.10560000000000000         -3.6656442098319530E-003
  0.10590000000000001         -8.7937992066144943E-003
  0.10620000000000000         -1.4068174175918102E-002
  0.10650000000000001         -1.8796211108565331E-002
  0.10679999999999999         -2.2301938384771347E-002
  0.10710000000000000         -2.4872913956642151E-002
  0.10740000000000001         -2.4947663769125938E-002
  0.10770000000000000         -2.3829964920878410E-002
  0.10800000000000000         -1.9952503964304924E-002
  0.10830000000000001         -1.4963183552026749E-002
  0.10859999999999999         -8.5190897807478905E-003
  0.10890000000000000         -1.5810531331226230E-003
  0.10920000000000001          5.0129736773669720E-003
  0.10950000000000001          1.1318672448396683E-002
  0.10979999999999999          1.5919566154479980E-002
  0.11009999999999999          1.9446698948740959E-002
  0.11040000000000001          2.0728494971990585E-002
  0.11070000000000001          2.0840732380747795E-002
  0.11100000000000000          1.9229806959629059E-002
  0.11130000000000000          1.6568552702665329E-002
  0.11160000000000002          1.3200475834310055E-002
  0.11190000000000001          8.7219765409827232E-003
  0.11220000000000001          4.1180690750479698E-003
  0.11250000000000000         -1.0544341057538986E-003
  0.11280000000000000         -6.1203385703265667E-003
  0.11309999999999999         -1.1067399755120277E-002
  0.11340000000000001         -1.5573271550238132E-002
  0.11369999999999998         -1.9288847222924232E-002
  0.11400000000000000         -2.1835785359144211E-002
  0.11430000000000000         -2.2858360782265663E-002
  0.11460000000000002         -2.2377381101250648E-002
  0.11489999999999999         -1.9887253642082214E-002
  0.11520000000000001         -1.5894126147031784E-002
  0.11550000000000001         -1.0517632588744164E-002
  0.11580000000000000         -4.2709694243967533E-003
  0.11609999999999999          2.2253934293985367E-003
  0.11640000000000002          8.4760682657361031E-003
  0.11670000000000001          1.3716607354581356E-002
  0.11700000000000001          1.7907083034515381E-002
  0.11730000000000000          2.0679792389273643E-002
  0.11760000000000000          2.1778771653771400E-002
  0.11789999999999999          2.1561857312917709E-002
  0.11820000000000001          2.0059561356902122E-002
  0.11850000000000001          1.7819721251726151E-002
  0.11880000000000000          1.4547723345458508E-002
  0.11910000000000000          1.0981319472193718E-002
  0.11940000000000002          6.7832735367119312E-003
  0.11970000000000001          2.3025686386972666E-003
  0.12000000000000001         -2.4494854733347893E-003
  0.12030000000000000         -7.4533526785671711E-003
  0.12060000000000000         -1.2020763009786606E-002
  0.12089999999999999         -1.6755100339651108E-002
  0.12119999999999999         -2.0079310983419418E-002
  0.12150000000000001         -2.2986030206084251E-002
  0.12180000000000001         -2.3869119584560394E-002
  0.12210000000000000         -2.3605979979038239E-002
  0.12239999999999999         -2.1258672699332237E-002
  0.12270000000000002         -1.7342217266559601E-002
  0.12300000000000001         -1.2288503348827362E-002
  0.12330000000000001         -5.9855263680219650E-003
  0.12360000000000000          1.7039509839378297E-004
  0.12390000000000000          6.8523683585226536E-003
  0.12419999999999999          1.2366026639938354E-002
  0.12450000000000001          1.7474863678216934E-002
  0.12480000000000001          2.1199554204940796E-002
  0.12509999999999999          2.3437876254320145E-002
  0.12540000000000001          2.4652834981679916E-002
  0.12570000000000003          2.4277627468109131E-002
  0.12600000000000000          2.3042786866426468E-002
  0.12630000000000002          2.0444517955183983E-002
  0.12659999999999999          1.6833156347274780E-002
  0.12690000000000001          1.2481376528739929E-002
  0.12719999999999998          7.0219612680375576E-003
  0.12750000000000000          1.5922335442155600E-003
  0.12780000000000002         -4.8284083604812622E-003
  0.12809999999999999         -1.0252988897264004E-002
  0.12840000000000001         -1.5839168801903725E-002
  0.12869999999999998         -2.0108925178647041E-002
  0.12900000000000000         -2.3366358131170273E-002
  0.12930000000000003         -2.4817444384098053E-002
  0.12959999999999999         -2.4515699595212936E-002
  0.12990000000000002         -2.2733705118298531E-002
  0.13019999999999998         -1.8995963037014008E-002
  0.13050000000000000         -1.4739737845957279E-002
  0.13080000000000003         -8.9455014094710350E-003
  0.13109999999999999         -3.3464715816080570E-003
  0.13140000000000002          2.6199009735137224E-003
  0.13169999999999998          8.1710070371627808E-003
  0.13200000000000001          1.2690089643001556E-002
  0.13229999999999997          1.6491910442709923E-002
  0.13260000000000000          1.9184354692697525E-002
  0.13290000000000002          2.0757261663675308E-002
  0.13319999999999999          2.1044371649622917E-002
  0.13350000000000001          2.0115099847316742E-002
  0.13380000000000003          1.8091680482029915E-002
  0.13410000000000000          1.4518882147967815E-002
  0.13440000000000002          1.0274066589772701E-002
  0.13469999999999999          4.8222439363598824E-003
  0.13500000000000001         -7.7899789903312922E-004
  0.13529999999999998         -6.8087587133049965E-003
  0.13560000000000000         -1.2579729780554771E-002
  0.13590000000000002         -1.7780823633074760E-002
  0.13619999999999999         -2.1656168624758720E-002
  0.13650000000000001         -2.4373650550842285E-002
  0.13680000000000003         -2.5208851322531700E-002
  0.13710000000000000         -2.4401007220149040E-002
  0.13740000000000002         -2.1800421178340912E-002
  0.13769999999999999         -1.7848636955022812E-002
  0.13800000000000001         -1.2410067021846771E-002
  0.13829999999999998         -6.3837422057986259E-003
  0.13860000000000000          1.5083234757184982E-005
  0.13890000000000002          6.9093341007828712E-003
  0.13919999999999999          1.2735823169350624E-002
  0.13950000000000001          1.8294434994459152E-002
  0.13979999999999998          2.2278660908341408E-002
  0.14010000000000000          2.5504887104034424E-002
  0.14040000000000002          2.6625985279679298E-002
  0.14069999999999999          2.6792800053954124E-002
  0.14100000000000001          2.4496786296367645E-002
  0.14130000000000004          2.1001506596803665E-002
  0.14160000000000000          1.6071610152721405E-002
  0.14189999999999997          9.5476023852825165E-003
  0.14219999999999999          3.0075237154960632E-003
  0.14250000000000002         -4.6598794870078564E-003
  0.14279999999999998         -1.1481646448373795E-002
  0.14310000000000000         -1.8097994849085808E-002
  0.14339999999999997         -2.3140091449022293E-002
  0.14369999999999999         -2.6629144325852394E-002
  0.14400000000000002         -2.8550080955028534E-002
  0.14429999999999998         -2.7851071208715439E-002
  0.14460000000000001         -2.6055034250020981E-002
  0.14490000000000003         -2.1883411332964897E-002
  0.14520000000000000         -1.6627343371510506E-002
  0.14550000000000002         -1.0040923953056335E-002
  0.14579999999999999         -3.0553780961781740E-003
  0.14610000000000001          4.1822744533419609E-003
  0.14640000000000003          1.1224246583878994E-002
  0.14670000000000000          1.7067942768335342E-002
  0.14699999999999996          2.2561216726899147E-002
  0.14729999999999999          2.5866482406854630E-002
  0.14760000000000001          2.8268815949559212E-002
  0.14789999999999998          2.8568761423230171E-002
  0.14820000000000000          2.6958929374814034E-002