  -1.4999999999999999E-002     0.0000000000000000     
  -1.4700000000000000E-002     0.0000000000000000     
  -1.4400000000000000E-002     0.0000000000000000     
  -1.4100000000000000E-002     0.0000000000000000     
  -1.3800000000000000E-002     0.0000000000000000     
  -1.3500000000000000E-002     0.0000000000000000     
  -1.3200000000000000E-002     0.0000000000000000     
  -1.2899999999999998E-002     0.0000000000000000     
  -1.2600000000000000E-002     0.0000000000000000     
  -1.2299999999999998E-002     0.0000000000000000     
  -1.2000000000000000E-002     0.0000000000000000     
  -1.1699999999999999E-002     0.0000000000000000     
  -1.1399999999999999E-002     0.0000000000000000     
  -1.1099999999999999E-002     0.0000000000000000     
  -1.0799999999999999E-002     0.0000000000000000     
  -1.0499999999999999E-002     0.0000000000000000     
  -1.0199999999999999E-002     0.0000000000000000     
  -9.8999999999999991E-003     0.0000000000000000     
  -9.5999999999999992E-003     0.0000000000000000     
  -9.2999999999999992E-003     0.0000000000000000     
  -8.9999999999999993E-003     0.0000000000000000     
  -8.6999999999999994E-003     0.0000000000000000     
  -8.3999999999999995E-003    -2.5766578701049901E-038
  -8.0999999999999996E-003    -1.0952019666862641E-036
  -7.7999999999999988E-003    -1.8365978192826782E-038
  -7.4999999999999997E-003     1.7335784226814244E-035
  -7.1999999999999998E-003    -7.3603333743211477E-035
  -6.8999999999999981E-003     1.3589151396383249E-034
  -6.5999999999999982E-003    -2.9655187368808956E-035
  -6.3000000000000000E-003    -5.9892961277238477E-034
  -6.0000000000000001E-003    -7.3962138856603903E-034
  -5.6999999999999985E-003    -1.3366647590857907E-034
  -5.3999999999999986E-003     6.1998460052368459E-033
  -5.1000000000000004E-003     7.7550273484123144E-033
  -4.7999999999999987E-003    -2.7014491693755426E-032
  -4.5000000000000005E-003    -7.8856972279511587E-032
  -4.1999999999999989E-003     5.6360551114379880E-032
  -3.8999999999999990E-003     7.0773866482580509E-031
  -3.5999999999999990E-003    -5.5326920696185798E-031
  -3.2999999999999991E-003    -2.7058101227977509E-030
  -2.9999999999999992E-003     3.7752606421840684E-030
  -2.6999999999999993E-003    -4.5938357071971109E-030
  -2.3999999999999994E-003     1.6801216347402656E-029
  -2.0999999999999977E-003     2.4475353219943947E-029
  -1.7999999999999995E-003    -1.5140632239654955E-028
  -1.4999999999999979E-003     1.9048457597370215E-029
  -1.1999999999999997E-003     4.7536767760624171E-028
  -8.9999999999999976E-004    -5.1599954374984123E-028
  -5.9999999999999810E-004     3.8220258132756853E-028
  -2.9999999999999992E-004     1.3604155917907426E-029
   0.0000000000000000         -5.7662622683367569E-027
   3.0000000000000165E-004     1.2308223048869847E-026
   5.9999999999999984E-004    -2.3342518991275326E-027
   9.0000000000000149E-004    -1.0649658686395511E-026
   1.2000000000000031E-003     4.3136413834576517E-026
   1.5000000000000013E-003    -2.0074303740386599E-025
   1.8000000000000030E-003     2.5111236956969719E-025
   2.1000000000000012E-003     5.0499113649003190E-025
   2.3999999999999994E-003    -1.9870402730397207E-024
   2.7000000000000010E-003     2.3377984448474403E-024
   2.9999999999999992E-003     2.3710675260318624E-024
   3.3000000000000008E-003    -1.4712808572625032E-023
   3.6000000000000025E-003     1.8386137669492455E-023
   3.9000000000000007E-003     2.3432069643612416E-023
   4.2000000000000023E-003    -9.4371287641331597E-023
   4.5000000000000005E-003     6.2916529502774893E-023
   4.7999999999999987E-003     1.7864268253343816E-022
   5.1000000000000004E-003    -4.2709927970097184E-022
   5.4000000000000020E-003     9.1178210240551528E-023
   5.7000000000000037E-003     1.0632178921925004E-021
   5.9999999999999984E-003    -1.4843964863512054E-021
   6.3000000000000000E-003    -1.1887028955051704E-021
   6.6000000000000017E-003     4.9051122023035360E-021
   6.9000000000000034E-003    -1.9018307029176698E-021
   7.2000000000000015E-003    -1.0102301660401703E-020
   7.5000000000000032E-003     1.5401581993646252E-020
   7.8000000000000014E-003     8.9852183858102623E-021
   8.0999999999999996E-003    -4.9846164544210059E-020
   8.4000000000000012E-003     3.1224296928678492E-020
   8.7000000000000029E-003     9.3250079726701035E-020
   9.0000000000000011E-003    -1.8110537130365358E-019
   9.2999999999999992E-003    -2.2993445903145330E-020
   9.6000000000000009E-003     4.7613653556395889E-019
   9.8999999999999991E-003    -5.4053649936219308E-019
   1.0200000000000001E-002    -5.2557337982508643E-019
   1.0500000000000002E-002     2.0919328264597048E-018
   1.0800000000000004E-002    -1.3755890143670505E-018
   1.1099999999999999E-002    -3.5359162350815309E-018
   1.1400000000000000E-002     8.1475623637021800E-018
   1.1700000000000002E-002    -2.1604903337228039E-018
   1.2000000000000004E-002    -1.7151726747990759E-017
   1.2300000000000002E-002     2.8477161361439560E-017
   1.2600000000000000E-002     2.9382889142563385E-018
   1.2900000000000002E-002    -7.0357968239691397E-017
   1.3200000000000000E-002     8.5301940409781362E-017
   1.3500000000000002E-002     4.4372936289142127E-017
   1.3800000000000003E-002    -2.4166101846885715E-016
   1.4100000000000001E-002     2.1880509962210584E-016
   1.4400000000000000E-002     2.2101762588827338E-016
   1.4700000000000001E-002    -7.2699207109251006E-016
   1.4999999999999999E-002     4.7781400078839768E-016
   1.5300000000000001E-002     8.1364810748032745E-016
   1.5600000000000003E-002    -1.9298248953782101E-015
   1.5899999999999997E-002     8.9017200989219314E-016
   1.6199999999999999E-002     2.4643897714925688E-015
   1.6500000000000001E-002    -4.6918875125261340E-015
   1.6800000000000002E-002     1.3092039108972781E-015
   1.7100000000000004E-002     6.8352404680716888E-015
   1.7400000000000006E-002    -1.0554380501656299E-014
   1.7700000000000000E-002    -9.8345808794204487E-017
   1.8000000000000002E-002     2.0366159774664700E-014
   1.8300000000000004E-002    -2.2584582595831853E-014
   1.8600000000000005E-002    -2.2457185938429092E-014
   1.8900000000000000E-002     8.5438142429715563E-014
   1.9200000000000002E-002    -3.6068207895316200E-014
   1.9500000000000003E-002    -2.2213568973677800E-013
   1.9799999999999998E-002     3.9358267255114871E-013
   2.0100000000000000E-002     1.4676897622917828E-013
   2.0400000000000001E-002    -9.9554373787180128E-013
   2.0700000000000003E-002     3.1917780223880532E-013
   2.0999999999999998E-002    -4.0747087056548774E-013
   2.1299999999999999E-002     8.9847525637943704E-012
   2.1600000000000001E-002    -5.5439374882124461E-012
   2.1900000000000003E-002    -7.9219177766823410E-011
   2.2200000000000004E-002     1.6318317707887655E-010
   2.2500000000000006E-002     2.5957348579858113E-010
   2.2800000000000001E-002    -1.2028329214829349E-009
   2.3100000000000002E-002     2.7048419301114498E-011
   2.3400000000000004E-002     5.4843371814233693E-009
   2.3699999999999999E-002    -4.4836017498969269E-009
   2.4000000000000000E-002    -1.9857394877986221E-008
   2.4300000000000002E-002     2.5801483234487690E-008
   2.4599999999999997E-002     6.7635331636319465E-008
   2.4900000000000005E-002    -1.0638610357422612E-007
   2.5200000000000000E-002    -2.6708339644169705E-007
   2.5499999999999995E-002     6.5327521075379053E-007
   2.5800000000000003E-002     3.7178109810332690E-006
   2.6099999999999998E-002     8.4541427644762635E-006
   2.6400000000000007E-002     1.3023716338172347E-005
   2.6700000000000002E-002     1.7503990517744416E-005
   2.6999999999999996E-002     2.5489097095287281E-005
   2.7300000000000005E-002     3.9407074162495139E-005
   2.7600000000000000E-002     5.8592724576992479E-005
   2.7900000000000008E-002     8.6259572093017479E-005
   2.8200000000000003E-002     1.2973905197289585E-004
   2.8499999999999998E-002     1.9133102726527282E-004
   2.8800000000000006E-002     2.7275514745778336E-004
   2.9100000000000001E-002     3.8645388761680832E-004
   2.9400000000000003E-002     5.4664111942675370E-004
   2.9700000000000004E-002     7.5797601304417039E-004
   3.0000000000000006E-002     1.0247529417563503E-003
   3.0300000000000001E-002     1.3560163394980423E-003
   3.0600000000000002E-002     1.7563987494650032E-003
   3.0900000000000004E-002     2.2223314459443866E-003
   3.1199999999999999E-002     2.7375200144514195E-003
   3.1500000000000007E-002     3.2644729748795703E-003
   3.1800000000000002E-002     3.7479673345460762E-003
   3.2099999999999997E-002     4.1128584351991931E-003
   3.2400000000000005E-002     4.2411745201802603E-003
   3.2700000000000000E-002     3.9590190656440608E-003
   3.3000000000000002E-002     3.0358951533619935E-003
   3.3300000000000003E-002     1.1778909866608858E-003
   3.3599999999999998E-002    -1.9621518931091791E-003
   3.3900000000000000E-002    -6.7663773289600437E-003
   3.4200000000000001E-002    -1.3660335729571038E-002
   3.4500000000000003E-002    -2.3124522100012257E-002
   3.4799999999999998E-002    -3.5658669739687676E-002
   3.5099999999999999E-002    -5.1719494505474639E-002
   3.5400000000000001E-002    -7.1679921370320976E-002
   3.5699999999999996E-002    -9.5815885926354927E-002
   3.6000000000000004E-002   -0.12428966623697058     
   3.6299999999999999E-002   -0.15710702765066742     
   3.6600000000000008E-002   -0.19408185233453423     
   3.6900000000000002E-002   -0.23479229090112952     
   3.7199999999999997E-002   -0.27859219190421847     
   3.7500000000000006E-002   -0.32465284179149734     
   3.7800000000000000E-002   -0.37198181743514525     
   3.8100000000000009E-002   -0.41940354104161059     
   3.8400000000000004E-002   -0.46560638511185104     
   3.8699999999999998E-002   -0.50919741911471483     
   3.9000000000000007E-002   -0.54869472663858687     
   3.9300000000000002E-002   -0.58254209022409142     
   3.9600000000000003E-002   -0.60905911384953981     
   3.9900000000000005E-002   -0.62642649148643414     
   4.0200000000000000E-002   -0.63266965956244903     
   4.0500000000000001E-002   -0.62568648419666317     
   4.0800000000000003E-002   -0.60319746940406560     
   4.1100000000000005E-002   -0.56286557759578493     
   4.1399999999999999E-002   -0.50239173499794099     
   4.1700000000000008E-002   -0.41961556622053742     
   4.2000000000000003E-002   -0.31296663730193863     
   4.2299999999999997E-002   -0.18147169666471319     
   4.2600000000000006E-002    -2.5371388399803241E-002
   4.2900000000000001E-002    0.15385084275720073     
   4.3200000000000002E-002    0.35312250330265726     
   4.3500000000000004E-002    0.56752586559216311     
   4.3799999999999999E-002    0.79061623328280817     
   4.4100000000000000E-002     1.0141655575724222     
   4.4400000000000002E-002     1.2289125691298324     
   4.4700000000000004E-002     1.4246928842512503     
   4.4999999999999998E-002     1.5913497878406275     
   4.5300000000000000E-002     1.7193457789268507     
   4.5600000000000002E-002     1.8004901915676257     
   4.5899999999999996E-002     1.8286823873393132     
   4.6200000000000005E-002     1.8005450559185050     
   4.6500000000000000E-002     1.7157712562740670     
   4.6799999999999994E-002     1.5773926476035740     
   4.7100000000000003E-002     1.3917682375855520     
   4.7399999999999998E-002     1.1683361302267059     
   4.7700000000000006E-002    0.91886497445321602     
   4.8000000000000001E-002    0.65713202308532459     
   4.8300000000000010E-002    0.39770626492038996     
   4.8600000000000004E-002    0.15527924115370695     
   4.8899999999999999E-002    -5.6266493084354219E-002
   4.9200000000000008E-002   -0.22516514370400120     
   4.9500000000000002E-002   -0.34198980446457128     
   4.9800000000000011E-002   -0.40086262710919840     
   5.0100000000000006E-002   -0.39929958300568913     
   5.0400000000000000E-002   -0.33926595657213343     
   5.0700000000000009E-002   -0.22628177568713870     
   5.1000000000000004E-002    -6.9828621862075835E-002
   5.1299999999999998E-002    0.11750851780040916     
   5.1600000000000007E-002    0.32070191469435727     
   5.1900000000000002E-002    0.52288667316759430     
   5.2200000000000010E-002    0.70686156200309824     
   5.2500000000000005E-002    0.85563819677433628     
   5.2800000000000000E-002    0.95393240255058132     
   5.3099999999999994E-002    0.98876653183867447     
   5.3400000000000003E-002    0.95043666232561108     
   5.3699999999999998E-002    0.83336950701444401     
   5.4000000000000006E-002    0.63576026096655358     
   5.4300000000000001E-002    0.36080235554441842     
   5.4599999999999996E-002     1.5115567456330581E-002
   5.4900000000000004E-002   -0.39016062677593588     
   5.5199999999999999E-002   -0.84154316624637104     
   5.5499999999999994E-002    -1.3226505065862639     
   5.5800000000000002E-002    -1.8158568985369214     
   5.6099999999999997E-002    -2.3028873512304244     
   5.6400000000000006E-002    -2.7653611690561490     
   5.6700000000000000E-002    -3.1860337619355334     
   5.6999999999999995E-002    -3.5485279339205249     
   5.7300000000000004E-002    -3.8386324320721172     
   5.7599999999999998E-002    -4.0437364089889911     
   5.7900000000000007E-002    -4.1539860111903124     
   5.8200000000000002E-002    -4.1614232095795956     
   5.8499999999999996E-002    -4.0609485672920158     
   5.8800000000000005E-002    -3.8501750825287075     
   5.9100000000000000E-002    -3.5298006897419612     
   5.9400000000000008E-002    -3.1038716175038914     
   5.9700000000000003E-002    -2.5800427750484012     
   6.0000000000000012E-002    -1.9698488705889785     
   6.0300000000000006E-002    -1.2889458806101146     
   6.0600000000000001E-002   -0.55678144029750598     
   6.0900000000000010E-002    0.20343350423023043     
   6.1200000000000004E-002    0.96567373503454945     
   6.1500000000000013E-002     1.7016219445787186     
   6.1800000000000008E-002     2.3825835035353862     
   6.2100000000000002E-002     2.9801177439941142     
   6.2399999999999997E-002     3.4686980079805352     
   6.2700000000000006E-002     3.8266495636198243     
   6.3000000000000000E-002     4.0381920123904536     
   6.3300000000000009E-002     4.0946542905792285     
   6.3600000000000004E-002     3.9955446686416849     
   6.3899999999999998E-002     3.7487754230065491     
   6.4199999999999993E-002     3.3706965243596940     
   6.4500000000000002E-002     2.8852521791838299     
   6.4800000000000010E-002     2.3222897816355021     
   6.5100000000000005E-002     1.7160918703648562     
   6.5400000000000000E-002     1.1027830573992716     
   6.5700000000000008E-002    0.51788145725951296     
   6.5999999999999989E-002    -6.1032229087203405E-003
   6.6299999999999998E-002   -0.44195796314177471     
   6.6600000000000006E-002   -0.76952675490276690     
   6.6900000000000001E-002   -0.97678305474892824     
   6.7199999999999996E-002    -1.0606588164117277     
   6.7500000000000004E-002    -1.0262589633998367     
   6.7800000000000013E-002   -0.88668680444319481     
   6.8099999999999994E-002   -0.66107770022608392     
   6.8400000000000002E-002   -0.37286884203990844     
   6.8700000000000011E-002    -4.8091437908217571E-002
   6.8999999999999992E-002    0.28725504611229713     
   6.9300000000000000E-002    0.60836841244441686     
   6.9600000000000009E-002    0.89404368979397830     
   6.9900000000000004E-002     1.1273504711253288     
   7.0199999999999999E-002     1.2966094353922344     
   7.0500000000000007E-002     1.3958782810693222     
   7.0800000000000016E-002     1.4242903675282577     
   7.1099999999999997E-002     1.3868381431000287     
   7.1400000000000005E-002     1.2920864222212245     
   7.1700000000000000E-002     1.1533164893850909     
   7.1999999999999995E-002    0.98594557361444046     
   7.2300000000000003E-002    0.80739534811946712     
   7.2600000000000012E-002    0.63565840750067082     
   7.2900000000000006E-002    0.48815386498247726     
   7.3200000000000001E-002    0.38089032809900658     
   7.3499999999999996E-002    0.32718660579260828     
   7.3800000000000004E-002    0.33604648594168118     
   7.4099999999999999E-002    0.41243709544698781     
   7.4400000000000008E-002    0.55478398932415374     
   7.4700000000000003E-002    0.75633998223881349     
   7.5000000000000011E-002     1.0032328341095464     
   7.5299999999999992E-002     1.2767788922951553     
   7.5600000000000001E-002     1.5524577125136929     
   7.5900000000000009E-002     1.8029896291025338     
   7.6200000000000004E-002     1.9991268784185579     
   7.6499999999999999E-002     2.1118596245581749     
   7.6800000000000007E-002     2.1161326019203557     
   7.7099999999999988E-002     1.9912072265285410     
   7.7399999999999997E-002     1.7250548791504556     
   7.7700000000000005E-002     1.3139172530717289     
   7.8000000000000014E-002    0.76529313718482683     
   7.8299999999999995E-002     9.6066574993850296E-002
   7.8600000000000003E-002   -0.66628385825390168     
   7.8900000000000012E-002    -1.4871518965397001     
   7.9199999999999993E-002    -2.3253516672432539     
   7.9500000000000001E-002    -3.1375839931091747     
   7.9800000000000010E-002    -3.8807960532856214     
   8.0100000000000018E-002    -4.5159848659980639     
   8.0399999999999999E-002    -5.0108655557114332     
   8.0700000000000008E-002    -5.3429507696842791     
   8.1000000000000003E-002    -5.5000498987181174     
   8.1299999999999997E-002    -5.4823858736730244     
   8.1600000000000006E-002    -5.3015515253022727     
   8.1900000000000014E-002    -4.9795998618883175     
   8.2199999999999995E-002    -4.5465693922107420     
   8.2500000000000004E-002    -4.0382357439120113     
   8.2799999999999999E-002    -3.4931875532090970     
   8.3100000000000007E-002    -2.9489033895644567     
   8.3400000000000002E-002    -2.4398765765661281     
   8.3700000000000011E-002    -1.9937404429518111     
   8.4000000000000005E-002    -1.6309887151404610     
   8.4300000000000000E-002    -1.3618171325623365     
   8.4599999999999995E-002    -1.1879105771379592     
   8.4900000000000003E-002    -1.1008458414418953     
   8.5199999999999998E-002    -1.0851073601138168     
   8.5500000000000007E-002    -1.1182817787287291     
   8.5800000000000001E-002    -1.1748414981149793     
   8.6100000000000010E-002    -1.2268916260179772     
   8.6399999999999991E-002    -1.2478199546615718     
   8.6699999999999999E-002    -1.2141370524488297     
   8.7000000000000008E-002    -1.1074541765894654     
   8.7300000000000003E-002   -0.91579081062207024     
   8.7599999999999997E-002   -0.63510370808340255     
   8.7900000000000006E-002   -0.26849503477657066     
   8.8200000000000014E-002    0.17304670061766636     
   8.8499999999999995E-002    0.67277416267022794     
   8.8800000000000004E-002     1.2084701106239528     
   8.9100000000000013E-002     1.7550942758029109     
   8.9399999999999993E-002     2.2867746908884499     
   8.9700000000000002E-002     2.7773301676226794     
   9.0000000000000011E-002     3.2038234107529178     
   9.0299999999999991E-002     3.5459788579436662     
   9.0600000000000000E-002     3.7881024460659063     
   9.0900000000000009E-002     3.9182640459014522     
   9.1200000000000017E-002     3.9294702299063005     
   9.1499999999999998E-002     3.8183228289359619     
   9.1800000000000007E-002     3.5849920532420754     
   9.2100000000000001E-002     3.2348037673334549     
   9.2399999999999996E-002     2.7762934117184397     
   9.2700000000000005E-002     2.2246389272675824     
   9.3000000000000013E-002     1.6012725591106802     
   9.3300000000000008E-002    0.93607297099966047     
   9.3600000000000003E-002    0.26935915442026470     
   9.3899999999999997E-002   -0.35114164648640322     
   9.4200000000000006E-002   -0.86625189457167906     
   9.4500000000000001E-002    -1.2139765640303679     
   9.4800000000000009E-002    -1.3290140450221770     
   9.5100000000000004E-002    -1.1534620893544485     
   9.5399999999999999E-002   -0.64183245111394882     
   9.5699999999999993E-002    0.22896710271559328     
   9.6000000000000002E-002     1.4516927193753562     
   9.6300000000000011E-002     2.9847156456172712     
   9.6600000000000005E-002     4.7448929550496786     
   9.6900000000000000E-002     6.6135118282985843     
   9.7200000000000009E-002     8.4365019046722125     
   9.7499999999999989E-002     10.039250804540728     
   9.7799999999999998E-002     11.237523567928747     
   9.8100000000000007E-002     11.855812842911945     
   9.8400000000000015E-002     11.747786276119598     
   9.8699999999999996E-002     10.810404342577897     
   9.9000000000000005E-002     9.0033547626013046     
   9.9300000000000013E-002     6.3561307424281495     
   9.9599999999999994E-002     2.9740340059635741     
   9.9900000000000003E-002   -0.96501928253877622     
  0.10020000000000001         -5.2232699436853736     
  0.10049999999999999         -9.5154815768145795     
  0.10080000000000000         -13.536710451958015     
  0.10110000000000001         -16.982926502101009     
  0.10140000000000000         -19.579542502647257     
  0.10170000000000000         -21.104514796099306     
  0.10200000000000001         -21.406930209127950     
  0.10230000000000002         -20.422632166716255     
  0.10260000000000000         -18.176291481993871     
  0.10290000000000001         -14.784499640129980     
  0.10320000000000000         -10.440911012112451     
  0.10350000000000001         -5.4050765243306387     
  0.10380000000000000          2.0158976525578964E-002
  0.10410000000000001          5.5113693009738700     
  0.10440000000000001          10.745870649533913     
  0.10470000000000000          15.427106018669690     
  0.10500000000000000          19.297695764117293     
  0.10530000000000000          22.159208394814073     
  0.10560000000000000          23.877298706162833     
  0.10590000000000001          24.386108530475639     
  0.10620000000000000          23.689801234730751     
  0.10650000000000001          21.853585403800338     
  0.10679999999999999          18.999184624407178     
  0.10710000000000000          15.291717926622880     
  0.10740000000000001          10.929266344635550     
  0.10770000000000000          6.1304310098645374     
  0.10800000000000000          1.1202706149868220     
  0.10830000000000001         -3.8768674584185234     
  0.10859999999999999         -8.6539823099993782     
  0.10890000000000000         -13.021831244671262     
  0.10920000000000001         -16.825303460414318     
  0.10950000000000001         -19.940779831926420     
  0.10979999999999999         -22.283846171799837     
  0.11009999999999999         -23.809755619395673     
  0.11040000000000001         -24.509319673055472     
  0.11070000000000001         -24.412828059321214     
  0.11100000000000000         -23.575938411539482     
  0.11130000000000000         -22.084753326108853     
  0.11160000000000002         -20.038452646560756     
  0.11190000000000001         -17.550761225872222     
  0.11220000000000001         -14.738074980850769     
  0.11250000000000000         -11.714174104881067     
  0.11280000000000000         -8.5875467768627800     
  0.11309999999999999         -5.4523745390244471     
  0.11340000000000001         -2.3924340821528176     
  0.11369999999999998         0.52663730631974204     
  0.11400000000000000          3.2532097738864749     
  0.11430000000000000          5.7484592384670492     
  0.11460000000000002          7.9905822996613836     
  0.11489999999999999          9.9625493746003713     
  0.11520000000000001          11.663669022510021     
  0.11550000000000001          13.091172653912110     
  0.11580000000000000          14.256501408211079     
  0.11609999999999999          15.164948707271549     
  0.11640000000000002          15.829231135760438     
  0.11670000000000001          16.259769336953411     
  0.11700000000000001          16.464588509854877     
  0.11730000000000000          16.452829251554249     
  0.11760000000000000          16.227211654967050     
  0.11789999999999999          15.792970219399422     
  0.11820000000000001          15.148882695668391     
  0.11850000000000001          14.297343167939829     
  0.11880000000000000          13.238088145707451     
  0.11910000000000000          11.975390615282681     
  0.11940000000000002          10.516669774875005     
  0.11970000000000001          8.8753363815746411     
  0.12000000000000001          7.0719377457836572     
  0.12030000000000000          5.1347078662516594     
  0.12060000000000000          3.1003773830169621     
  0.12089999999999999          1.0123148443039582     
  0.12119999999999999         -1.0794707147940166     
  0.12150000000000001         -3.1214793606951048     
  0.12180000000000001         -5.0596866676369956     
  0.12210000000000000         -6.8400685643832446     
  0.12239999999999999         -8.4152263692978408     
  0.12270000000000002         -9.7432306113717004     
  0.12300000000000001         -10.794030716522400     
  0.12330000000000001         -11.546152105741612     
  0.12360000000000000         -11.994203561317249     
  0.12390000000000000         -12.141890006899075     
  0.12419999999999999         -12.007592144311019     
  0.12450000000000001         -11.619486468062263     
  0.12480000000000001         -11.014368257574887     
  0.12509999999999999         -10.236913076743178     
  0.12540000000000001         -9.3336201527178559     
  0.12570000000000003         -8.3543788493398949     
  0.12600000000000000         -7.3452366047665976     
  0.12630000000000002         -6.3478348781548455     
  0.12659999999999999         -5.3982240347468249     
  0.12690000000000001         -4.5213029934030473     
  0.12719999999999998         -3.7352602945820728     
  0.12750000000000000         -3.0430710485586800     
  0.12780000000000002         -2.4432830745942553     
  0.12809999999999999         -1.9195637068480877     
  0.12840000000000001         -1.4534485430326427     
  0.12869999999999998         -1.0176531833531826     
  0.12900000000000000        -0.58585075238112694     
  0.12930000000000003        -0.13131511272067087     
  0.12959999999999999         0.36889878879283966     
  0.12990000000000002         0.92924951861137117     
  0.13019999999999998          1.5583139044529233     
  0.13050000000000000          2.2517920994426035     
  0.13080000000000003          2.9994398236310786     
  0.13109999999999999          3.7771437639676435     
  0.13140000000000002          4.5569894898337964     
  0.13169999999999998          5.3029132045767255     
  0.13200000000000001          5.9766328364415813     
  0.13229999999999997          6.5416690018443262     
  0.13260000000000000          6.9619983979688413     
  0.13290000000000002          7.2100276691816987     
  0.13319999999999999          7.2642514056040284     
  0.13350000000000001          7.1147860554664248     
  0.13380000000000003          6.7613459473162862     
  0.13410000000000000          6.2154491025700551     
  0.13440000000000002          5.4998552356980994     
  0.13469999999999999          4.6453752397974046     
  0.13500000000000001          3.6933367923116123     
  0.13529999999999998          2.6876645866363589     
  0.13560000000000000          1.6791335451032694     
  0.13590000000000002         0.71565935914767920     
  0.13619999999999999        -0.15535140229724220     
  0.13650000000000001        -0.89375392563445111     
  0.13680000000000003         -1.4672114455026275     
  0.13710000000000000         -1.8554504279452999     
  0.13740000000000002         -2.0504590271364336     
  0.13769999999999999         -2.0582843451765775     
  0.13800000000000001         -1.8997130602304235     
  0.13829999999999998         -1.6074102609588434     
  0.13860000000000000         -1.2252965839982322     
  0.13890000000000002        -0.80445557524167377     
  0.13919999999999999        -0.39737840588058415     
  0.13950000000000001         -5.8145646814412366E-002
  0.13979999999999998         0.16891007118209478     
  0.14010000000000000         0.24761760734500182     
  0.14040000000000002         0.15704787335490700     
  0.14069999999999999        -0.10836949780990612     
  0.14100000000000001        -0.53516979074393412     
  0.14130000000000004         -1.0967807379050356     
  0.14160000000000000         -1.7488136796380900     
  0.14189999999999997         -2.4393013924789813     
  0.14219999999999999         -3.1101296666962668     
  0.14250000000000002         -3.7014056257025203     
  0.14279999999999998         -4.1611184505553354     
  0.14310000000000000         -4.4433893379384841     
  0.14339999999999997         -4.5199497403507465     
  0.14369999999999999         -4.3748055981749658     
  0.14400000000000002         -4.0132218148993060     
  0.14429999999999998         -3.4533173310652394     
  0.14460000000000001         -2.7327251872705887     
  0.14490000000000003         -1.8955693978050476     
  0.14520000000000000        -0.99804035326800999     
  0.14550000000000002         -9.6666917590390256E-002
  0.14579999999999999         0.75291454769864607     
  0.14610000000000001          1.5001240541858607     
  0.14640000000000003          2.1059417388508521     
  0.14670000000000000          2.5396499969800885     
  0.14699999999999996          2.7897402996034373     
  0.14729999999999999          2.8519019728954120     
  0.14760000000000001          2.7416171240685649     
  0.14789999999999998          2.4804825243952173     
  0.14820000000000000          2.1026384062822419     