  -1.4999999999999999E-002     0.0000000000000000     
  -1.4700000000000000E-002     0.0000000000000000     
  -1.4400000000000000E-002     0.0000000000000000     
  -1.4100000000000000E-002     0.0000000000000000     
  -1.3800000000000000E-002     0.0000000000000000     
  -1.3500000000000000E-002     0.0000000000000000     
  -1.3200000000000000E-002     0.0000000000000000     
  -1.2899999999999998E-002     0.0000000000000000     
  -1.2600000000000000E-002     0.0000000000000000     
  -1.2299999999999998E-002     0.0000000000000000     
  -1.2000000000000000E-002     0.0000000000000000     
  -1.1699999999999999E-002     0.0000000000000000     
  -1.1399999999999999E-002     0.0000000000000000     
  -1.1099999999999999E-002     0.0000000000000000     
  -1.0799999999999999E-002     0.0000000000000000     
  -1.0499999999999999E-002     0.0000000000000000     
  -1.0199999999999999E-002     0.0000000000000000     
  -9.8999999999999991E-003     0.0000000000000000     
  -9.5999999999999992E-003     0.0000000000000000     
  -9.2999999999999992E-003     0.0000000000000000     
  -8.9999999999999993E-003     0.0000000000000000     
  -8.6999999999999994E-003     0.0000000000000000     
  -8.3999999999999995E-003     0.0000000000000000     
  -8.0999999999999996E-003     0.0000000000000000     
  -7.7999999999999988E-003     0.0000000000000000     
  -7.4999999999999997E-003     0.0000000000000000     
  -7.1999999999999998E-003     0.0000000000000000     
  -6.8999999999999981E-003     0.0000000000000000     
  -6.5999999999999982E-003     0.0000000000000000     
  -6.3000000000000000E-003     0.0000000000000000     
  -6.0000000000000001E-003     0.0000000000000000     
  -5.6999999999999985E-003     0.0000000000000000     
  -5.3999999999999986E-003     0.0000000000000000     
  -5.1000000000000004E-003     0.0000000000000000     
  -4.7999999999999987E-003     0.0000000000000000     
  -4.5000000000000005E-003     0.0000000000000000     
  -4.1999999999999989E-003     0.0000000000000000     
  -3.8999999999999990E-003     0.0000000000000000     
  -3.5999999999999990E-003     0.0000000000000000     
  -3.2999999999999991E-003     0.0000000000000000     
  -2.9999999999999992E-003     0.0000000000000000     
  -2.6999999999999993E-003     0.0000000000000000     
  -2.3999999999999994E-003     0.0000000000000000     
  -2.0999999999999977E-003     0.0000000000000000     
  -1.7999999999999995E-003     0.0000000000000000     
  -1.4999999999999979E-003     0.0000000000000000     
  -1.1999999999999997E-003     0.0000000000000000     
  -8.9999999999999976E-004     0.0000000000000000     
  -5.9999999999999810E-004     0.0000000000000000     
  -2.9999999999999992E-004     0.0000000000000000     
   0.0000000000000000          0.0000000000000000     
   3.0000000000000165E-004     0.0000000000000000     
   5.9999999999999984E-004     0.0000000000000000     
   9.0000000000000149E-004     0.0000000000000000     
   1.2000000000000031E-003     0.0000000000000000     
   1.5000000000000013E-003     0.0000000000000000     
   1.8000000000000030E-003     0.0000000000000000     
   2.1000000000000012E-003     0.0000000000000000     
   2.3999999999999994E-003     0.0000000000000000     
   2.7000000000000010E-003     0.0000000000000000     
   2.9999999999999992E-003     0.0000000000000000     
   3.3000000000000008E-003     0.0000000000000000     
   3.6000000000000025E-003     0.0000000000000000     
   3.9000000000000007E-003     0.0000000000000000     
   4.2000000000000023E-003     0.0000000000000000     
   4.5000000000000005E-003     0.0000000000000000     
   4.7999999999999987E-003     0.0000000000000000     
   5.1000000000000004E-003     0.0000000000000000     
   5.4000000000000020E-003     0.0000000000000000     
   5.7000000000000037E-003     0.0000000000000000     
   5.9999999999999984E-003     0.0000000000000000     
   6.3000000000000000E-003     0.0000000000000000     
   6.6000000000000017E-003     0.0000000000000000     
   6.9000000000000034E-003     0.0000000000000000     
   7.2000000000000015E-003     0.0000000000000000     
   7.5000000000000032E-003     0.0000000000000000     
   7.8000000000000014E-003     0.0000000000000000     
   8.0999999999999996E-003     0.0000000000000000     
   8.4000000000000012E-003     0.0000000000000000     
   8.7000000000000029E-003     0.0000000000000000     
   9.0000000000000011E-003     0.0000000000000000     
   9.2999999999999992E-003     0.0000000000000000     
   9.6000000000000009E-003     0.0000000000000000     
   9.8999999999999991E-003     0.0000000000000000     
   1.0200000000000001E-002     0.0000000000000000     
   1.0500000000000002E-002     0.0000000000000000     
   1.0800000000000004E-002     0.0000000000000000     
   1.1099999999999999E-002     0.0000000000000000     
   1.1400000000000000E-002     0.0000000000000000     
   1.1700000000000002E-002     0.0000000000000000     
   1.2000000000000004E-002     0.0000000000000000     
   1.2300000000000002E-002     0.0000000000000000     
   1.2600000000000000E-002     0.0000000000000000     
   1.2900000000000002E-002     0.0000000000000000     
   1.3200000000000000E-002     0.0000000000000000     
   1.3500000000000002E-002     0.0000000000000000     
   1.3800000000000003E-002     0.0000000000000000     
   1.4100000000000001E-002     0.0000000000000000     
   1.4400000000000000E-002     0.0000000000000000     
   1.4700000000000001E-002     0.0000000000000000     
   1.4999999999999999E-002     0.0000000000000000     
   1.5300000000000001E-002     0.0000000000000000     
   1.5600000000000003E-002     0.0000000000000000     
   1.5899999999999997E-002     0.0000000000000000     
   1.6199999999999999E-002     0.0000000000000000     
   1.6500000000000001E-002     0.0000000000000000     
   1.6800000000000002E-002     0.0000000000000000     
   1.7100000000000004E-002     0.0000000000000000     
   1.7400000000000006E-002     0.0000000000000000     
   1.7700000000000000E-002     0.0000000000000000     
   1.8000000000000002E-002     0.0000000000000000     
   1.8300000000000004E-002     0.0000000000000000     
   1.8600000000000005E-002     0.0000000000000000     
   1.8900000000000000E-002     0.0000000000000000     
   1.9200000000000002E-002     0.0000000000000000     
   1.9500000000000003E-002     0.0000000000000000     
   1.9799999999999998E-002     0.0000000000000000     
   2.0100000000000000E-002     0.0000000000000000     
   2.0400000000000001E-002     0.0000000000000000     
   2.0700000000000003E-002     0.0000000000000000     
   2.0999999999999998E-002     0.0000000000000000     
   2.1299999999999999E-002     0.0000000000000000     
   2.1600000000000001E-002     0.0000000000000000     
   2.1900000000000003E-002     0.0000000000000000     
   2.2200000000000004E-002     0.0000000000000000     
   2.2500000000000006E-002     0.0000000000000000     
   2.2800000000000001E-002     0.0000000000000000     
   2.3100000000000002E-002     0.0000000000000000     
   2.3400000000000004E-002     0.0000000000000000     
   2.3699999999999999E-002     0.0000000000000000     
   2.4000000000000000E-002     0.0000000000000000     
   2.4300000000000002E-002     0.0000000000000000     
   2.4599999999999997E-002     0.0000000000000000     
   2.4900000000000005E-002     0.0000000000000000     
   2.5200000000000000E-002     0.0000000000000000     
   2.5499999999999995E-002     0.0000000000000000     
   2.5800000000000003E-002     0.0000000000000000     
   2.6099999999999998E-002     0.0000000000000000     
   2.6400000000000007E-002     0.0000000000000000     
   2.6700000000000002E-002     0.0000000000000000     
   2.6999999999999996E-002     0.0000000000000000     
   2.7300000000000005E-002     0.0000000000000000     
   2.7600000000000000E-002     0.0000000000000000     
   2.7900000000000008E-002     0.0000000000000000     
   2.8200000000000003E-002     0.0000000000000000     
   2.8499999999999998E-002     0.0000000000000000     
   2.8800000000000006E-002     0.0000000000000000     
   2.9100000000000001E-002     0.0000000000000000     
   2.9400000000000003E-002     0.0000000000000000     
   2.9700000000000004E-002     0.0000000000000000     
   3.0000000000000006E-002     0.0000000000000000     
   3.0300000000000001E-002     0.0000000000000000     
   3.0600000000000002E-002     0.0000000000000000     
   3.0900000000000004E-002     0.0000000000000000     
   3.1199999999999999E-002     0.0000000000000000     
   3.1500000000000007E-002     0.0000000000000000     
   3.1800000000000002E-002     0.0000000000000000     
   3.2099999999999997E-002     0.0000000000000000     
   3.2400000000000005E-002     0.0000000000000000     
   3.2700000000000000E-002     0.0000000000000000     
   3.3000000000000002E-002     0.0000000000000000     
   3.3300000000000003E-002     0.0000000000000000     
   3.3599999999999998E-002     0.0000000000000000     
   3.3900000000000000E-002     0.0000000000000000     
   3.4200000000000001E-002     0.0000000000000000     
   3.4500000000000003E-002     0.0000000000000000     
   3.4799999999999998E-002     0.0000000000000000     
   3.5099999999999999E-002     0.0000000000000000     
   3.5400000000000001E-002     0.0000000000000000     
   3.5699999999999996E-002     0.0000000000000000     
   3.6000000000000004E-002     0.0000000000000000     
   3.6299999999999999E-002     0.0000000000000000     
   3.6600000000000008E-002     0.0000000000000000     
   3.6900000000000002E-002     0.0000000000000000     
   3.7199999999999997E-002     0.0000000000000000     
   3.7500000000000006E-002     0.0000000000000000     
   3.7800000000000000E-002     0.0000000000000000     
   3.8100000000000009E-002     0.0000000000000000     
   3.8400000000000004E-002     0.0000000000000000     
   3.8699999999999998E-002     0.0000000000000000     
   3.9000000000000007E-002     0.0000000000000000     
   3.9300000000000002E-002     0.0000000000000000     
   3.9600000000000003E-002     9.7620126283647273E-038
   3.9900000000000005E-002    -2.0713112763175078E-036
   4.0200000000000000E-002     1.0937329203357978E-035
   4.0500000000000001E-002    -2.4257282047985704E-035
   4.0800000000000003E-002    -6.2974118354045799E-035
   4.1100000000000005E-002     4.9769449593550502E-034
   4.1399999999999999E-002    -1.8776599114113034E-033
   4.1700000000000008E-002     5.8009382456963397E-033
   4.2000000000000003E-002    -1.7134544646973021E-032
   4.2299999999999997E-002     5.7084733745177756E-032
   4.2600000000000006E-002    -2.0223087258741079E-031
   4.2900000000000001E-002     7.4624342714436569E-031
   4.3200000000000002E-002    -2.8276539930740471E-030
   4.3500000000000004E-002     1.0969212963178195E-029
   4.3799999999999999E-002    -4.3780346256745978E-029
   4.4100000000000000E-002     1.8045774644091985E-028
   4.4400000000000002E-002    -7.6380159447685293E-028
   4.4700000000000004E-002     3.2685527781689627E-027
   4.4999999999999998E-002    -1.3885526553041312E-026
   4.5300000000000000E-002     5.7712498439324330E-026
   4.5600000000000002E-002    -2.3262587752880466E-025
   4.5899999999999996E-002     9.0577800741339971E-025
   4.6200000000000005E-002    -3.4040958261921960E-024
   4.6500000000000000E-002     1.2357048734366866E-023
   4.6799999999999994E-002    -4.3379935713261347E-023
   4.7100000000000003E-002     1.4743440932934526E-022
   4.7399999999999998E-002    -4.8547448490992463E-022
   4.7700000000000006E-002     1.5495324973122127E-021
   4.8000000000000001E-002    -4.7968930701709623E-021
   4.8300000000000010E-002     1.4422111852740351E-020
   4.8600000000000004E-002    -4.2237211841917740E-020
   4.8899999999999999E-002     1.2116510321172907E-019
   4.9200000000000008E-002    -3.4349447489750935E-019
   4.9500000000000002E-002     9.7351648437995193E-019
   4.9800000000000011E-002    -2.7893798628466698E-018
   5.0100000000000006E-002     8.1214796888428894E-018
   5.0400000000000000E-002    -2.3870862483308910E-017
   5.0700000000000009E-002     6.9406185157012285E-017
   5.1000000000000004E-002    -1.9307381474131900E-016
   5.1299999999999998E-002     4.8804143361623352E-016
   5.1600000000000007E-002    -1.0095290020284326E-015
   5.1900000000000002E-002     1.1041548364988707E-015
   5.2200000000000010E-002     3.7075856081290507E-015
   5.2500000000000005E-002    -3.3037409694827534E-014
   5.2800000000000000E-002     1.5505620257530261E-013
   5.3099999999999994E-002    -5.6313665232185927E-013
   5.3400000000000003E-002     1.6770529652724110E-012
   5.3699999999999998E-002    -3.9768357665355014E-012
   5.4000000000000006E-002     6.2701831134526843E-012
   5.4300000000000001E-002     1.3083462686081194E-012
   5.4599999999999996E-002    -5.5395502448155016E-011
   5.4900000000000004E-002     2.4219521197610782E-010
   5.5199999999999999E-002    -6.4547875080100339E-010
   5.5499999999999994E-002     9.4297824131607868E-010
   5.5800000000000002E-002     7.6179636795458475E-010
   5.6099999999999997E-002    -9.0503183671805576E-009
   5.6400000000000006E-002     2.5870892918997885E-008
   5.6700000000000000E-002    -2.4888722236756855E-008
   5.6999999999999995E-002    -8.2158438537671992E-008
   5.7300000000000004E-002     3.3235702672656512E-007
   5.7599999999999998E-002    -2.4868192838624865E-007
   5.7900000000000007E-002    -1.4106593714560781E-006
   5.8200000000000002E-002     2.9865028660749134E-006
   5.8499999999999996E-002     1.3543813533209794E-005
   5.8800000000000005E-002     2.4429038070373859E-005
   5.9100000000000000E-002     3.1609230956839525E-005
   5.9400000000000008E-002     3.6300407165180655E-005
   5.9700000000000003E-002     5.1295189426197631E-005
   6.0000000000000012E-002     8.3070230655575127E-005
   6.0300000000000006E-002     1.2979189532553049E-004
   6.0600000000000001E-002     1.9879345654462161E-004
   6.0900000000000010E-002     2.9930957738192286E-004
   6.1200000000000004E-002     4.4263000725949971E-004
   6.1500000000000013E-002     6.3773468027853233E-004
   6.1800000000000008E-002     9.0298422602382716E-004
   6.2100000000000002E-002     1.2610189672080108E-003
   6.2399999999999997E-002     1.7305346790208176E-003
   6.2700000000000006E-002     2.3392960379776256E-003
   6.3000000000000000E-002     3.1015080191586358E-003
   6.3300000000000009E-002     4.0436765273248743E-003
   6.3600000000000004E-002     5.1815079258280550E-003
   6.3899999999999998E-002     6.4986206907055866E-003
   6.4199999999999993E-002     7.9743527888886112E-003
   6.4500000000000002E-002     9.5516914680252030E-003
   6.4800000000000010E-002     1.1146477946375632E-002
   6.5100000000000005E-002     1.2623372701774660E-002
   6.5400000000000000E-002     1.3803534393782402E-002
   6.5700000000000008E-002     1.4449205083384431E-002
   6.5999999999999989E-002     1.4272607806997128E-002
   6.6299999999999998E-002     1.2974400844789236E-002
   6.6600000000000006E-002     1.0199731079924973E-002
   6.6900000000000001E-002     5.6042247200645823E-003
   6.7199999999999996E-002    -1.1050991147558767E-003
   6.7500000000000004E-002    -1.0158071386842549E-002
   6.7800000000000013E-002    -2.1668113319305071E-002
   6.8099999999999994E-002    -3.5597276449124360E-002
   6.8400000000000002E-002    -5.1699157086934511E-002
   6.8700000000000011E-002    -6.9534269465495679E-002
   6.8999999999999992E-002    -8.8433256486847522E-002
   6.9300000000000000E-002   -0.10753082074245635     
   6.9600000000000009E-002   -0.12581035043775168     
   6.9900000000000004E-002   -0.14215329362153195     
   7.0199999999999999E-002   -0.15542545521359141     
   7.0500000000000007E-002   -0.16456987729690908     
   7.0800000000000016E-002   -0.16874694064734008     
   7.1099999999999997E-002   -0.16737839696301116     
   7.1400000000000005E-002   -0.16021567469787712     
   7.1700000000000000E-002   -0.14742461367292847     
   7.1999999999999995E-002   -0.12953155337023636     
   7.2300000000000003E-002   -0.10741454613246448     
   7.2600000000000012E-002    -8.2215048091268450E-002
   7.2900000000000006E-002    -5.5267655731145671E-002
   7.3200000000000001E-002    -2.7918045075485308E-002
   7.3499999999999996E-002    -1.4105438712954110E-003
   7.3800000000000004E-002     2.3203951225878816E-002
   7.4099999999999999E-002     4.5170181701994272E-002
   7.4400000000000008E-002     6.4062143623910162E-002
   7.4700000000000003E-002     7.9764892357031325E-002
   7.5000000000000011E-002     9.2509618207694988E-002
   7.5299999999999992E-002    0.10271768139694482     
   7.5600000000000001E-002    0.11099498901766847     
   7.5900000000000009E-002    0.11789164082840164     
   7.6200000000000004E-002    0.12391533745657091     
   7.6499999999999999E-002    0.12943345874434709     
   7.6800000000000007E-002    0.13461282992789414     
   7.7099999999999988E-002    0.13932616004757570     
   7.7399999999999997E-002    0.14326907599630001     
   7.7700000000000005E-002    0.14593255592889420     
   7.8000000000000014E-002    0.14669415020265308     
   7.8299999999999995E-002    0.14480745371460024     
   7.8600000000000003E-002    0.13960499543819349     
   7.8900000000000012E-002    0.13047048806191253     
   7.9199999999999993E-002    0.11706751078465860     
   7.9500000000000001E-002     9.9227851028463876E-002
   7.9800000000000010E-002     7.7188316646575661E-002
   8.0100000000000018E-002     5.1641781942989518E-002
   8.0399999999999999E-002     2.3738347531785275E-002
   8.0700000000000008E-002    -4.8355729951933477E-003
   8.1000000000000003E-002    -3.1972980234536430E-002
   8.1299999999999997E-002    -5.5106224160612838E-002
   8.1600000000000006E-002    -7.1395092792925663E-002
   8.1900000000000014E-002    -7.7901124482109285E-002
   8.2199999999999995E-002    -7.1844349897774995E-002
   8.2500000000000004E-002    -5.0888951337004065E-002
   8.2799999999999999E-002    -1.3474759889435139E-002
   8.3100000000000007E-002     4.0939720316987227E-002
   8.3400000000000002E-002    0.11161884529885313     
   8.3700000000000011E-002    0.19642389050263009     
   8.4000000000000005E-002    0.29166924428405849     
   8.4300000000000000E-002    0.39249384155361255     
   8.4599999999999995E-002    0.49275821669250242     
   8.4900000000000003E-002    0.58577905064255731     
   8.5199999999999998E-002    0.66456104088400636     
   8.5500000000000007E-002    0.72253717496435854     
   8.5800000000000001E-002    0.75398993585612928     
   8.6100000000000010E-002    0.75463712536453542     
   8.6399999999999991E-002    0.72198827837039303     
   8.6699999999999999E-002    0.65565673364294952     
   8.7000000000000008E-002    0.55745292147453718     
   8.7300000000000003E-002    0.43119017824713346     
   8.7599999999999997E-002    0.28258481904424082     
   8.7900000000000006E-002    0.11868802079721563     
   8.8200000000000014E-002    -5.2460987410375859E-002
   8.8499999999999995E-002   -0.22258097992444981     
   8.8800000000000004E-002   -0.38369439957688734     
   8.9100000000000013E-002   -0.52850446968247411     
   8.9399999999999993E-002   -0.65106701742801221     
   8.9700000000000002E-002   -0.74699332603683999     
   9.0000000000000011E-002   -0.81382328877661081     
   9.0299999999999991E-002   -0.85077947503908291     
   9.0600000000000000E-002   -0.85925933537167509     
   9.0900000000000009E-002   -0.84195984134174040     
   9.1200000000000017E-002   -0.80329758068118551     
   9.1499999999999998E-002   -0.74841476646543370     
   9.1800000000000007E-002   -0.68338356214161067     
   9.2100000000000001E-002   -0.61420587908266100     
   9.2399999999999996E-002   -0.54678886310852803     
   9.2700000000000005E-002   -0.48632197479498984     
   9.3000000000000013E-002   -0.43692804395552898     
   9.3300000000000008E-002   -0.40146252310827890     
   9.3600000000000003E-002   -0.38122015210803717     
   9.3899999999999997E-002   -0.37598957876829608     
   9.4200000000000006E-002   -0.38379745891402806     
   9.4500000000000001E-002   -0.40132869200355259     
   9.4800000000000009E-002   -0.42403074529267748     
   9.5100000000000004E-002   -0.44651901842230401     
   9.5399999999999999E-002   -0.46296818217552982     
   9.5699999999999993E-002   -0.46761387738385984     
   9.6000000000000002E-002   -0.45521959009998980     
   9.6300000000000011E-002   -0.42159379758202675     
   9.6600000000000005E-002   -0.36397686017113706     
   9.6900000000000000E-002   -0.28134055188724405     
   9.7200000000000009E-002   -0.17464205269211042     
   9.7499999999999989E-002    -4.6718315042079794E-002
   9.7799999999999998E-002     9.7676321776743347E-002
   9.8100000000000007E-002    0.25231773931159385     
   9.8400000000000015E-002    0.40989031486819272     
   9.8699999999999996E-002    0.56248345614347528     
   9.9000000000000005E-002    0.70238006045799750     
   9.9300000000000013E-002    0.82246712972812475     
   9.9599999999999994E-002    0.91701583730469949     
   9.9900000000000003E-002    0.98188506687201382     
  0.10020000000000001          1.0151319330872326     
  0.10049999999999999          1.0168053404572532     
  0.10080000000000000         0.98908163840601659     
  0.10110000000000001         0.93565673322639498     
  0.10140000000000000         0.86161113423827729     
  0.10170000000000000         0.77240471405847799     
  0.10200000000000001         0.67376499247339083     
  0.10230000000000002         0.57052025725827882     
  0.10260000000000000         0.46681777494068832     
  0.10290000000000001         0.36503543998450816     
  0.10320000000000000         0.26647825243909917     
  0.10350000000000001         0.17079839385936668     
  0.10380000000000000          7.6894293925386492E-002
  0.10410000000000001         -1.7087658555111296E-002
  0.10440000000000001        -0.11306134243764898     
  0.10470000000000000        -0.21249546585444179     
  0.10500000000000000        -0.31593261874675882     
  0.10530000000000000        -0.42282834793162039     
  0.10560000000000000        -0.53133088434499953     
  0.10590000000000001        -0.63823927521931978     
  0.10620000000000000        -0.73945147519069465     
  0.10650000000000001        -0.83010177162952914     
  0.10679999999999999        -0.90536689218830091     
  0.10710000000000000        -0.96024774593519169     
  0.10740000000000001        -0.99110773650242479     
  0.10770000000000000        -0.99480560851137412     
  0.10800000000000000        -0.97005470703316021     
  0.10830000000000001        -0.91666079397457523     
  0.10859999999999999        -0.83616938862714463     
  0.10890000000000000        -0.73125963620740464     
  0.10920000000000001        -0.60582561978076122     
  0.10950000000000001        -0.46449474298238336     
  0.10979999999999999        -0.31252193176076037     
  0.11009999999999999        -0.15543104659388263     
  0.11040000000000001          1.3633832760273634E-003
  0.11070000000000001         0.15250574899050306     
  0.11100000000000000         0.29327951446220801     
  0.11130000000000000         0.41925271538719677     
  0.11160000000000002         0.52713014764911215     
  0.11190000000000001         0.61409189922142460     
  0.11220000000000001         0.67870080654781262     
  0.11250000000000000         0.72024380757882156     
  0.11280000000000000         0.73943200909545226     
  0.11309999999999999         0.73804044533222424     
  0.11340000000000001         0.71885808922692007     
  0.11369999999999998         0.68573710293519952     
  0.11400000000000000         0.64294709248162718     
  0.11430000000000000         0.59529562984400108     
  0.11460000000000002         0.54749048527312461     
  0.11489999999999999         0.50378916584778111     
  0.11520000000000001         0.46771599929470575     
  0.11550000000000001         0.44168650195796211     
  0.11580000000000000         0.42682112454759569     
  0.11609999999999999         0.42300584619743020     
  0.11640000000000002         0.42887444693350751     
  0.11670000000000001         0.44197258903582082     
  0.11700000000000001         0.45929399087157385     
  0.11730000000000000         0.47739615314034189     
  0.11760000000000000         0.49302223703575976     
  0.11789999999999999         0.50312130847421344     
  0.11820000000000001         0.50547023294440407     
  0.11850000000000001         0.49863638541742183     
  0.11880000000000000         0.48178800142264500     
  0.11910000000000000         0.45515872072446939     
  0.11940000000000002         0.41901696723156512     
  0.11970000000000001         0.37451480463846032     
  0.12000000000000001         0.32229765539615585     
  0.12030000000000000         0.26346038407413896     
  0.12060000000000000         0.19835527427796018     
  0.12089999999999999         0.12755999073301455     
  0.12119999999999999          5.1244540098636104E-002
  0.12150000000000001         -3.0381061751828975E-002
  0.12180000000000001        -0.11695311740869219     
  0.12210000000000000        -0.20774472409514821     
  0.12239999999999999        -0.30167414408410131     
  0.12270000000000002        -0.39701935476062999     
  0.12300000000000001        -0.49170844054384766     
  0.12330000000000001        -0.58306398080871702     
  0.12360000000000000        -0.66841703372761430     
  0.12390000000000000        -0.74493821734274235     
  0.12419999999999999        -0.81000321421109334     
  0.12450000000000001        -0.86151941069179117     
  0.12480000000000001        -0.89775700543291848     
  0.12509999999999999        -0.91787057551740858     
  0.12540000000000001        -0.92129974031124817     
  0.12570000000000003        -0.90825302080148873     
  0.12600000000000000        -0.87931979318396003     
  0.12630000000000002        -0.83516846199337635     
  0.12659999999999999        -0.77700395679166689     
  0.12690000000000001        -0.70577509036622743     
  0.12719999999999998        -0.62253951438221833     
  0.12750000000000000        -0.52869303297745063     
  0.12780000000000002        -0.42553739522625111     
  0.12809999999999999        -0.31503250148186202     
  0.12840000000000001        -0.19928350861356980     
  0.12869999999999998         -8.1360872649541172E-002
  0.12900000000000000          3.5171598977553092E-002
  0.12930000000000003         0.14603377950687024     
  0.12959999999999999         0.24636919631346821     
  0.12990000000000002         0.33116667587986548     
  0.13019999999999998         0.39535627945007512     
  0.13050000000000000         0.43430798487385047     
  0.13080000000000003         0.44447873727716392     
  0.13109999999999999         0.42347053858471817     
  0.13140000000000002         0.37098070939386840     
  0.13169999999999998         0.28842267377927544     
  0.13200000000000001         0.17963399098417732     
  0.13229999999999997          5.0590363304355623E-002
  0.13260000000000000         -9.0990611807263866E-002
  0.13290000000000002        -0.23546635644937730     
  0.13319999999999999        -0.37294891899250082     
  0.13350000000000001        -0.49269866243582605     
  0.13380000000000003        -0.58508781910004259     
  0.13410000000000000        -0.64155984982969372     
  0.13440000000000002        -0.65603710548373328     
  0.13469999999999999        -0.62471238810456775     
  0.13500000000000001        -0.54737272025201200     
  0.13529999999999998        -0.42673844207134248     
  0.13560000000000000        -0.26915482831692383     
  0.13590000000000002         -8.3464607674917701E-002
  0.13619999999999999         0.11880154029143020     
  0.13650000000000001         0.32460831545471436     
  0.13680000000000003         0.52042810418018703     
  0.13710000000000000         0.69268008326929476     
  0.13740000000000002         0.82950348231792503     
  0.13769999999999999         0.92069905023430110     
  0.13800000000000001         0.95982896755491609     
  0.13829999999999998         0.94344509092967144     
  0.13860000000000000         0.87253972230461230     
  0.13890000000000002         0.75195449655946511     
  0.13919999999999999         0.59038216883758565     
  0.13950000000000001         0.39973872663273990     
  0.13979999999999998         0.19450592290494040     
  0.14010000000000000         -9.5700547271515557E-003
  0.14040000000000002        -0.19637934480491293     
  0.14069999999999999        -0.35107025951215221     
  0.14100000000000001        -0.46076589182112926     
  0.14130000000000004        -0.51610879364463713     
  0.14160000000000000        -0.51172287743145972     
  0.14189999999999997        -0.44687995783102963     
  0.14219999999999999        -0.32560683654177769     
  0.14250000000000002        -0.15631899447069308     
  0.14279999999999998          4.8621776639574399E-002
  0.14310000000000000         0.27389684441083872     
  0.14339999999999997         0.50249163374316019     
  0.14369999999999999         0.71671689346386813     
  0.14400000000000002         0.90003067635067779     
  0.14429999999999998          1.0374488793501158     
  0.14460000000000001          1.1174326057805573     
  0.14490000000000003          1.1321688551696099     
  0.14520000000000000          1.0780743770411654     
  0.14550000000000002         0.95650219115300317     
  0.14579999999999999         0.77254642059766798     
  0.14610000000000001         0.53583670099009417     
  0.14640000000000003         0.25873994625913710     
  0.14670000000000000         -4.3303087379880534E-002
  0.14699999999999996        -0.35412583106551310     
  0.14729999999999999        -0.65639673457875602     
  0.14760000000000001        -0.93396669566455515     
  0.14789999999999998         -1.1716011867676244     
  0.14820000000000000         -1.3571337333900004     