  -1.4999999999999999E-002     0.0000000000000000     
  -1.4700000000000000E-002     0.0000000000000000     
  -1.4400000000000000E-002     0.0000000000000000     
  -1.4100000000000000E-002     0.0000000000000000     
  -1.3800000000000000E-002     0.0000000000000000     
  -1.3500000000000000E-002     0.0000000000000000     
  -1.3200000000000000E-002     0.0000000000000000     
  -1.2899999999999998E-002     0.0000000000000000     
  -1.2600000000000000E-002     0.0000000000000000     
  -1.2299999999999998E-002     0.0000000000000000     
  -1.2000000000000000E-002     0.0000000000000000     
  -1.1699999999999999E-002     0.0000000000000000     
  -1.1399999999999999E-002     0.0000000000000000     
  -1.1099999999999999E-002     0.0000000000000000     
  -1.0799999999999999E-002     0.0000000000000000     
  -1.0499999999999999E-002     0.0000000000000000     
  -1.0199999999999999E-002     0.0000000000000000     
  -9.8999999999999991E-003     0.0000000000000000     
  -9.5999999999999992E-003     0.0000000000000000     
  -9.2999999999999992E-003     0.0000000000000000     
  -8.9999999999999993E-003     0.0000000000000000     
  -8.6999999999999994E-003     0.0000000000000000     
  -8.3999999999999995E-003     0.0000000000000000     
  -8.0999999999999996E-003     0.0000000000000000     
  -7.7999999999999988E-003     0.0000000000000000     
  -7.4999999999999997E-003     0.0000000000000000     
  -7.1999999999999998E-003     0.0000000000000000     
  -6.8999999999999981E-003     0.0000000000000000     
  -6.5999999999999982E-003     0.0000000000000000     
  -6.3000000000000000E-003     0.0000000000000000     
  -6.0000000000000001E-003     0.0000000000000000     
  -5.6999999999999985E-003     0.0000000000000000     
  -5.3999999999999986E-003     0.0000000000000000     
  -5.1000000000000004E-003     0.0000000000000000     
  -4.7999999999999987E-003     0.0000000000000000     
  -4.5000000000000005E-003     0.0000000000000000     
  -4.1999999999999989E-003     0.0000000000000000     
  -3.8999999999999990E-003     0.0000000000000000     
  -3.5999999999999990E-003     0.0000000000000000     
  -3.2999999999999991E-003     0.0000000000000000     
  -2.9999999999999992E-003     0.0000000000000000     
  -2.6999999999999993E-003     0.0000000000000000     
  -2.3999999999999994E-003     0.0000000000000000     
  -2.0999999999999977E-003     0.0000000000000000     
  -1.7999999999999995E-003     0.0000000000000000     
  -1.4999999999999979E-003     0.0000000000000000     
  -1.1999999999999997E-003     0.0000000000000000     
  -8.9999999999999976E-004     0.0000000000000000     
  -5.9999999999999810E-004     0.0000000000000000     
  -2.9999999999999992E-004     0.0000000000000000     
   0.0000000000000000          0.0000000000000000     
   3.0000000000000165E-004     0.0000000000000000     
   5.9999999999999984E-004     0.0000000000000000     
   9.0000000000000149E-004     0.0000000000000000     
   1.2000000000000031E-003     0.0000000000000000     
   1.5000000000000013E-003     0.0000000000000000     
   1.8000000000000030E-003     0.0000000000000000     
   2.1000000000000012E-003     0.0000000000000000     
   2.3999999999999994E-003     0.0000000000000000     
   2.7000000000000010E-003     0.0000000000000000     
   2.9999999999999992E-003     0.0000000000000000     
   3.3000000000000008E-003     0.0000000000000000     
   3.6000000000000025E-003     0.0000000000000000     
   3.9000000000000007E-003     0.0000000000000000     
   4.2000000000000023E-003     0.0000000000000000     
   4.5000000000000005E-003     0.0000000000000000     
   4.7999999999999987E-003     0.0000000000000000     
   5.1000000000000004E-003     0.0000000000000000     
   5.4000000000000020E-003     0.0000000000000000     
   5.7000000000000037E-003     0.0000000000000000     
   5.9999999999999984E-003     0.0000000000000000     
   6.3000000000000000E-003     0.0000000000000000     
   6.6000000000000017E-003     0.0000000000000000     
   6.9000000000000034E-003     0.0000000000000000     
   7.2000000000000015E-003     0.0000000000000000     
   7.5000000000000032E-003     0.0000000000000000     
   7.8000000000000014E-003     0.0000000000000000     
   8.0999999999999996E-003     0.0000000000000000     
   8.4000000000000012E-003     0.0000000000000000     
   8.7000000000000029E-003     0.0000000000000000     
   9.0000000000000011E-003     0.0000000000000000     
   9.2999999999999992E-003     0.0000000000000000     
   9.6000000000000009E-003     0.0000000000000000     
   9.8999999999999991E-003     0.0000000000000000     
   1.0200000000000001E-002     0.0000000000000000     
   1.0500000000000002E-002     0.0000000000000000     
   1.0800000000000004E-002     0.0000000000000000     
   1.1099999999999999E-002     0.0000000000000000     
   1.1400000000000000E-002     0.0000000000000000     
   1.1700000000000002E-002     0.0000000000000000     
   1.2000000000000004E-002     0.0000000000000000     
   1.2300000000000002E-002     0.0000000000000000     
   1.2600000000000000E-002     0.0000000000000000     
   1.2900000000000002E-002     0.0000000000000000     
   1.3200000000000000E-002     0.0000000000000000     
   1.3500000000000002E-002     0.0000000000000000     
   1.3800000000000003E-002     0.0000000000000000     
   1.4100000000000001E-002     0.0000000000000000     
   1.4400000000000000E-002     0.0000000000000000     
   1.4700000000000001E-002     0.0000000000000000     
   1.4999999999999999E-002     0.0000000000000000     
   1.5300000000000001E-002     0.0000000000000000     
   1.5600000000000003E-002     0.0000000000000000     
   1.5899999999999997E-002     0.0000000000000000     
   1.6199999999999999E-002     0.0000000000000000     
   1.6500000000000001E-002     0.0000000000000000     
   1.6800000000000002E-002     0.0000000000000000     
   1.7100000000000004E-002     0.0000000000000000     
   1.7400000000000006E-002     0.0000000000000000     
   1.7700000000000000E-002     0.0000000000000000     
   1.8000000000000002E-002     0.0000000000000000     
   1.8300000000000004E-002    -4.5365558459753134E-036
   1.8600000000000005E-002     7.7781917355581954E-036
   1.8900000000000000E-002    -1.8693079369718424E-036
   1.9200000000000002E-002    -5.6531032877011903E-035
   1.9500000000000003E-002     1.7208976712817941E-034
   1.9799999999999998E-002    -2.0041152419850436E-034
   2.0100000000000000E-002     1.5572157078539302E-034
   2.0400000000000001E-002    -8.3361026775127172E-034
   2.0700000000000003E-002     1.0703716359026773E-033
   2.0999999999999998E-002     2.5985790359964425E-033
   2.1299999999999999E-002    -7.8673103876170041E-033
   2.1600000000000001E-002     2.9153679677163333E-033
   2.1900000000000003E-002     2.4087510246760437E-032
   2.2200000000000004E-002    -5.3228482462649396E-032
   2.2500000000000006E-002     1.4544110953447905E-032
   2.2800000000000001E-002     1.4553690938533518E-031
   2.3100000000000002E-002    -2.8939841018233038E-031
   2.3400000000000004E-002     3.8653181235970361E-032
   2.3699999999999999E-002     7.6288882773733369E-031
   2.4000000000000000E-002    -1.2813213800799241E-030
   2.4300000000000002E-002     3.1326971469187995E-032
   2.4599999999999997E-002     2.6656380705461281E-030
   2.4900000000000005E-002    -2.8255611617495102E-030
   2.5200000000000000E-002    -2.9895275773615288E-030
   2.5499999999999995E-002     9.1996143917951989E-030
   2.5800000000000003E-002    -4.3353442887705051E-030
   2.6099999999999998E-002    -7.7234319714563006E-030
   2.6400000000000007E-002     3.6497022447494350E-029
   2.6700000000000002E-002    -4.5065171806457199E-028
   2.6999999999999996E-002     3.2538035594458255E-027
   2.7300000000000005E-002    -1.4038399187478020E-026
   2.7600000000000000E-002     3.5315515463756307E-026
   2.7900000000000008E-002    -1.6120685369214345E-026
   2.8200000000000003E-002    -2.6793655715451008E-025
   2.8499999999999998E-002     1.1190746288800670E-024
   2.8800000000000006E-002    -1.3287308819139474E-024
   2.9100000000000001E-002    -6.6421575460020800E-024
   2.9400000000000003E-002     3.8668977075524283E-023
   2.9700000000000004E-002    -7.8074510422809804E-023
   3.0000000000000006E-002    -1.1201948547528306E-022
   3.0300000000000001E-002     1.3747830637923684E-021
   3.0600000000000002E-002    -4.9827130589949615E-021
   3.0900000000000004E-002     8.2723812745499425E-021
   3.1199999999999999E-002     1.1383969782684474E-020
   3.1500000000000007E-002    -1.2041600341649152E-019
   3.1800000000000002E-002     3.8268590801334360E-019
   3.2099999999999997E-002    -5.0604764376280424E-019
   3.2400000000000005E-002    -9.9431100775329495E-019
   3.2700000000000000E-002     6.9782056625188110E-018
   3.3000000000000002E-002    -1.6776897036135209E-017
   3.3300000000000003E-002     1.1165479122865330E-017
   3.3599999999999998E-002     6.0491757900672316E-017
   3.3900000000000000E-002    -2.3551364639623636E-016
   3.4200000000000001E-002     3.7357376993070132E-016
   3.4500000000000003E-002     7.4236614475327051E-018
   3.4799999999999998E-002    -1.4431082434455175E-015
   3.5099999999999999E-002     3.5922781642502757E-015
   3.5400000000000001E-002    -5.1183808134501376E-015
   3.5699999999999996E-002     6.0491256033651068E-015
   3.6000000000000004E-002    -4.9020964560829092E-015
   3.6299999999999999E-002    -3.1850830837804739E-014
   3.6600000000000008E-002     2.1253937737379658E-013
   3.6900000000000002E-002    -5.8171891782754503E-013
   3.7199999999999997E-002     4.5636443842672625E-013
   3.7500000000000006E-002     2.3422193004551950E-012
   3.7800000000000000E-002    -9.2963883119301371E-012
   3.8100000000000009E-002     1.1512847966632656E-011
   3.8400000000000004E-002     2.0045094056841961E-011
   3.8699999999999998E-002    -1.0340731743108122E-010
   3.9000000000000007E-002     1.2922161951589572E-010
   3.9300000000000002E-002     2.1039822661883534E-010
   3.9600000000000003E-002    -9.7195873571820357E-010
   3.9900000000000005E-002     8.0635353949531918E-010
   4.0200000000000000E-002     2.7980822103756964E-009
   4.0500000000000001E-002    -7.5303665525439101E-009
   4.0800000000000003E-002    -1.5104356654305207E-009
   4.1100000000000005E-002     3.3308925395658662E-008
   4.1399999999999999E-002    -2.8140693331124567E-008
   4.1700000000000008E-002    -1.2110159275380283E-007
   4.2000000000000003E-002     2.0305937198372703E-007
   4.2299999999999997E-002     4.2884994400083087E-007
   4.2600000000000006E-002    -1.1707103340086178E-006
   4.2900000000000001E-002    -1.8324046777706826E-006
   4.3200000000000002E-002     9.7162328529520892E-006
   4.3500000000000004E-002     3.9867642044555396E-005
   4.3799999999999999E-002     7.3358896770514548E-005
   4.4100000000000000E-002     8.9613946329336613E-005
   4.4400000000000002E-002     9.6619820396881551E-005
   4.4700000000000004E-002     1.2561099720187485E-004
   4.4999999999999998E-002     1.9609532319009304E-004
   4.5300000000000000E-002     3.1010725069791079E-004
   4.5600000000000002E-002     4.7302784514613450E-004
   4.5899999999999996E-002     6.9853302557021379E-004
   4.6200000000000005E-002     9.9906092509627342E-004
   4.6500000000000000E-002     1.3903293292969465E-003
   4.6799999999999994E-002     1.9040575716644526E-003
   4.7100000000000003E-002     2.5729869958013296E-003
   4.7399999999999998E-002     3.4025362692773342E-003
   4.7700000000000006E-002     4.3803919106721878E-003
   4.8000000000000001E-002     5.4895519278943539E-003
   4.8300000000000010E-002     6.6717518493533134E-003
   4.8600000000000004E-002     7.7995755709707737E-003
   4.8899999999999999E-002     8.6856242269277573E-003
   4.9200000000000008E-002     9.0596210211515427E-003
   4.9500000000000002E-002     8.5264164954423904E-003
   4.9800000000000011E-002     6.5674912184476852E-003
   5.0100000000000006E-002     2.5519873015582561E-003
   5.0400000000000000E-002    -4.2804582044482231E-003
   5.0700000000000009E-002    -1.4792536385357380E-002
   5.1000000000000004E-002    -2.9851313680410385E-002
   5.1299999999999998E-002    -5.0264704972505569E-002
   5.1600000000000007E-002    -7.6735883951187134E-002
   5.1900000000000002E-002   -0.10967779904603958     
   5.2200000000000010E-002   -0.14895139634609222     
   5.2500000000000005E-002   -0.19374427199363708     
   5.2800000000000000E-002   -0.24250058829784393     
   5.3099999999999994E-002   -0.29272672533988953     
   5.3400000000000003E-002   -0.34082725644111633     
   5.3699999999999998E-002   -0.38219118118286133     
   5.4000000000000006E-002   -0.41136869788169861     
   5.4300000000000001E-002   -0.42225414514541626     
   5.4599999999999996E-002   -0.40845271944999695     
   5.4900000000000004E-002   -0.36391532421112061     
   5.5199999999999999E-002   -0.28353330492973328     
   5.5499999999999994E-002   -0.16380386054515839     
   5.5800000000000002E-002    -3.5464260727167130E-003
   5.6099999999999997E-002    0.19552917778491974     
   5.6400000000000006E-002    0.42837166786193848     
   5.6700000000000000E-002    0.68632644414901733     
   5.6999999999999995E-002    0.95732903480529785     
   5.7300000000000004E-002     1.2263630628585815     
   5.7599999999999998E-002     1.4761765003204346     
   5.7900000000000007E-002     1.6885141134262085     
   5.8200000000000002E-002     1.8453663587570190     
   5.8499999999999996E-002     1.9304410219192505     
   5.8800000000000005E-002     1.9307774305343628     
   5.9100000000000000E-002     1.8378775119781494     
   5.9400000000000008E-002     1.6488695144653320     
   5.9700000000000003E-002     1.3672231435775757     
   6.0000000000000012E-002     1.0027205944061279     
   6.0300000000000006E-002    0.57122290134429932     
   6.0600000000000001E-002     9.3729823827743530E-002
   6.0900000000000010E-002   -0.40507990121841431     
   6.1200000000000004E-002   -0.89832097291946411     
   6.1500000000000013E-002    -1.3591077327728271     
   6.1800000000000008E-002    -1.7623653411865234     
   6.2100000000000002E-002    -2.0866286754608154     
   6.2399999999999997E-002    -2.3157420158386230     
   6.2700000000000006E-002    -2.4399483203887939     
   6.3000000000000000E-002    -2.4563319683074951     
   6.3300000000000009E-002    -2.3691322803497314     
   6.3600000000000004E-002    -2.1890804767608643     
   6.3899999999999998E-002    -1.9324207305908203     
   6.4199999999999993E-002    -1.6196604967117310     
   6.4500000000000002E-002    -1.2737551927566528     
   6.4800000000000010E-002   -0.91825920343399048     
   6.5100000000000005E-002   -0.57574367523193359     
   6.5400000000000000E-002   -0.26622712612152100     
   6.5700000000000008E-002    -5.9237824752926826E-003
   6.5999999999999989E-002    0.19394594430923462     
   6.6299999999999998E-002    0.32715258002281189     
   6.6600000000000006E-002    0.39249730110168457     
   6.6900000000000001E-002    0.39401856064796448     
   6.7199999999999996E-002    0.33954524993896484     
   6.7500000000000004E-002    0.24004426598548889     
   6.7800000000000013E-002    0.10906270146369934     
   6.8099999999999994E-002    -3.9066534489393234E-002
   6.8400000000000002E-002   -0.18985155224800110     
   6.8700000000000011E-002   -0.32920965552330017     
   6.8999999999999992E-002   -0.44479241967201233     
   6.9300000000000000E-002   -0.52610981464385986     
   6.9600000000000009E-002   -0.56477046012878418     
   6.9900000000000004E-002   -0.55516380071640015     
   7.0199999999999999E-002   -0.49425882101058960     
   7.0500000000000007E-002   -0.38141655921936035     
   7.0800000000000016E-002   -0.21886953711509705     
   7.1099999999999997E-002    -1.1279280297458172E-002
   7.1400000000000005E-002    0.23480433225631714     
   7.1700000000000000E-002    0.51050966978073120     
   7.1999999999999995E-002    0.80510652065277100     
   7.2300000000000003E-002     1.1072582006454468     
   7.2600000000000012E-002     1.4043203592300415     
   7.2900000000000006E-002     1.6832885742187500     
   7.3200000000000001E-002     1.9320095777511597     
   7.3499999999999996E-002     2.1386506557464600     
   7.3800000000000004E-002     2.2926108837127686     
   7.4099999999999999E-002     2.3856093883514404     
   7.4400000000000008E-002     2.4112420082092285     
   7.4700000000000003E-002     2.3654830455780029     
   7.5000000000000011E-002     2.2474570274353027     
   7.5299999999999992E-002     2.0589277744293213     
   7.5600000000000001E-002     1.8043850660324097     
   7.5900000000000009E-002     1.4914466142654419     
   7.6200000000000004E-002     1.1303400993347168     
   7.6499999999999999E-002    0.73304235935211182     
   7.6800000000000007E-002    0.31373667716979980     
   7.7099999999999988E-002   -0.11224697530269623     
   7.7399999999999997E-002   -0.52938711643218994     
   7.7700000000000005E-002   -0.92249834537506104     
   7.8000000000000014E-002    -1.2773795127868652     
   7.8299999999999995E-002    -1.5822604894638062     
   7.8600000000000003E-002    -1.8278177976608276     
   7.8900000000000012E-002    -2.0081934928894043     
   7.9199999999999993E-002    -2.1210522651672363     
   7.9500000000000001E-002    -2.1675608158111572     
   7.9800000000000010E-002    -2.1525237560272217     
   8.0100000000000018E-002    -2.0832183361053467     
   8.0399999999999999E-002    -1.9689785242080688     
   8.0700000000000008E-002    -1.8203752040863037     
   8.1000000000000003E-002    -1.6477110385894775     
   8.1299999999999997E-002    -1.4606802463531494     
   8.1600000000000006E-002    -1.2674496173858643     
   8.1900000000000014E-002    -1.0735391378402710     
   8.2199999999999995E-002   -0.88253557682037354     
   8.2500000000000004E-002   -0.69573318958282471     
   8.2799999999999999E-002   -0.51205116510391235     
   8.3100000000000007E-002   -0.32933491468429565     
   8.3400000000000002E-002   -0.14459955692291260     
   8.3700000000000011E-002     4.5037247240543365E-002
   8.4000000000000005E-002    0.24149149656295776     
   8.4300000000000000E-002    0.44535648822784424     
   8.4599999999999995E-002    0.65551525354385376     
   8.4900000000000003E-002    0.86849647760391235     
   8.5199999999999998E-002     1.0788553953170776     
   8.5500000000000007E-002     1.2794739007949829     
   8.5800000000000001E-002     1.4617915153503418     
   8.6100000000000010E-002     1.6162406206130981     
   8.6399999999999991E-002     1.7334144115447998     
   8.6699999999999999E-002     1.8042943477630615     
   8.7000000000000008E-002     1.8210451602935791     
   8.7300000000000003E-002     1.7776890993118286     
   8.7599999999999997E-002     1.6707761287689209     
   8.7900000000000006E-002     1.4997016191482544     
   8.8200000000000014E-002     1.2669955492019653     
   8.8499999999999995E-002    0.97862499952316284     
   8.8800000000000004E-002    0.64413028955459595     
   8.9100000000000013E-002    0.27597874402999878     
   8.9399999999999993E-002   -0.11041157692670822     
   8.9700000000000002E-002   -0.49740904569625854     
   9.0000000000000011E-002   -0.86636573076248169     
   9.0299999999999991E-002    -1.1981598138809204     
   9.0600000000000000E-002    -1.4744327068328857     
   9.0900000000000009E-002    -1.6792539358139038     
   9.1200000000000017E-002    -1.7997272014617920     
   9.1499999999999998E-002    -1.8271002769470215     
   9.1800000000000007E-002    -1.7581709623336792     
   9.2100000000000001E-002    -1.5947892665863037     
   9.2399999999999996E-002    -1.3446719646453857     
   9.2700000000000005E-002    -1.0211260318756104     
   9.3000000000000013E-002   -0.64166498184204102     
   9.3300000000000008E-002   -0.22763146460056305     
   9.3600000000000003E-002    0.19716790318489075     
   9.3899999999999997E-002    0.60859864950180054     
   9.4200000000000006E-002    0.98329931497573853     
   9.4500000000000001E-002     1.3003400564193726     
   9.4800000000000009E-002     1.5426573753356934     
   9.5100000000000004E-002     1.6982833147048950     
   9.5399999999999999E-002     1.7606418132781982     
   9.5699999999999993E-002     1.7291976213455200     
   9.6000000000000002E-002     1.6093914508819580     
   9.6300000000000011E-002     1.4116719961166382     
   9.6600000000000005E-002     1.1508464813232422     
   9.6900000000000000E-002    0.84502148628234863     
   9.7200000000000009E-002    0.51379740238189697     
   9.7499999999999989E-002    0.17726604640483856     
   9.7799999999999998E-002   -0.14532586932182312     
   9.8100000000000007E-002   -0.43712189793586731     
   9.8400000000000015E-002   -0.68408906459808350     
   9.8699999999999996E-002   -0.87575924396514893     
   9.9000000000000005E-002    -1.0059581995010376     
   9.9300000000000013E-002    -1.0720862150192261     
   9.9599999999999994E-002    -1.0752142667770386     
   9.9900000000000003E-002    -1.0202451944351196     
  0.10020000000000001        -0.91430437564849854     
  0.10049999999999999        -0.76704508066177368     
  0.10080000000000000        -0.58998262882232666     
  0.10110000000000001        -0.39528241753578186     
  0.10140000000000000        -0.19604893028736115     
  0.10170000000000000         -5.5739032104611397E-003
  0.10200000000000001         0.16375018656253815     
  0.10230000000000002         0.29986226558685303     
  0.10260000000000000         0.39261075854301453     
  0.10290000000000001         0.43417900800704956     
  0.10320000000000000         0.41887146234512329     
  0.10350000000000001         0.34454005956649780     
  0.10380000000000000         0.21275986731052399     
  0.10410000000000001          2.8117034584283829E-002
  0.10440000000000001        -0.20058885216712952     
  0.10470000000000000        -0.46133357286453247     
  0.10500000000000000        -0.74005997180938721     
  0.10530000000000000         -1.0203533172607422     
  0.10560000000000000         -1.2855229377746582     
  0.10590000000000001         -1.5196676254272461     
  0.10620000000000000         -1.7078824043273926     
  0.10650000000000001         -1.8382225036621094     
  0.10679999999999999         -1.9023089408874512     
  0.10710000000000000         -1.8950514793395996     
  0.10740000000000001         -1.8154380321502686     
  0.10770000000000000         -1.6664882898330688     
  0.10800000000000000         -1.4543421268463135     
  0.10830000000000001         -1.1879554986953735     
  0.10859999999999999        -0.87871676683425903     
  0.10890000000000000        -0.53921979665756226     
  0.10920000000000001        -0.18292868137359619     
  0.10950000000000001         0.17611216008663177     
  0.10979999999999999         0.52410018444061279     
  0.11009999999999999         0.84803408384323120     
  0.11040000000000001          1.1356061697006226     
  0.11070000000000001          1.3756524324417114     
  0.11100000000000000          1.5591506958007812     
  0.11130000000000000          1.6790971755981445     
  0.11160000000000002          1.7312114238739014     
  0.11190000000000001          1.7144311666488647     
  0.11220000000000001          1.6314473152160645     
  0.11250000000000000          1.4886069297790527     
  0.11280000000000000          1.2959053516387939     
  0.11309999999999999          1.0672018527984619     
  0.11340000000000001         0.81871283054351807     
  0.11369999999999998         0.56851017475128174     
  0.11400000000000000         0.33541336655616760     
  0.11430000000000000         0.13677760958671570     
  0.11460000000000002         -1.2091053649783134E-002
  0.11489999999999999         -9.8986551165580750E-002
  0.11520000000000001        -0.11705993860960007     
  0.11550000000000001         -6.4413540065288544E-002
  0.11580000000000000          5.6093614548444748E-002
  0.11609999999999999         0.23606951534748077     
  0.11640000000000002         0.46305102109909058     
  0.11670000000000001         0.72178268432617188     
  0.11700000000000001         0.99471443891525269     
  0.11730000000000000          1.2642189264297485     
  0.11760000000000000          1.5133537054061890     
  0.11789999999999999          1.7263755798339844     
  0.11820000000000001          1.8903326988220215     
  0.11850000000000001          1.9950623512268066     
  0.11880000000000000          2.0332651138305664     
  0.11910000000000000          1.9998948574066162     
  0.11940000000000002          1.8927452564239502     
  0.11970000000000001          1.7118360996246338     
  0.12000000000000001          1.4586402177810669     
  0.12030000000000000          1.1367844343185425     
  0.12060000000000000         0.75185513496398926     
  0.12089999999999999         0.31110849976539612     
  0.12119999999999999        -0.17507931590080261     
  0.12150000000000001        -0.69395178556442261     
  0.12180000000000001         -1.2299246788024902     
  0.12210000000000000         -1.7636104822158813     
  0.12239999999999999         -2.2738010883331299     
  0.12270000000000002         -2.7372179031372070     
  0.12300000000000001         -3.1291186809539795     
  0.12330000000000001         -3.4262742996215820     
  0.12360000000000000         -3.6073079109191895     
  0.12390000000000000         -3.6545593738555908     
  0.12419999999999999         -3.5571730136871338     
  0.12450000000000001         -3.3105938434600830     
  0.12480000000000001         -2.9184582233428955     
  0.12509999999999999         -2.3932321071624756     
  0.12540000000000001         -1.7550168037414551     
  0.12570000000000003         -1.0315608978271484     
  0.12600000000000000        -0.25582519173622131     
  0.12630000000000002         0.53577351570129395     
  0.12659999999999999          1.3050909042358398     
  0.12690000000000001          2.0160319805145264     
  0.12719999999999998          2.6356954574584961     
  0.12750000000000000          3.1361010074615479     
  0.12780000000000002          3.4973187446594238     
  0.12809999999999999          3.7062230110168457     
  0.12840000000000001          3.7582135200500488     
  0.12869999999999998          3.6569094657897949     
  0.12900000000000000          3.4117159843444824     
  0.12930000000000003          3.0383746623992920     
  0.12959999999999999          2.5576584339141846     
  0.12990000000000002          1.9917995929718018     
  0.13019999999999998          1.3652658462524414     
  0.13050000000000000         0.70321714878082275     
  0.13080000000000003          2.8999011963605881E-002
  0.13109999999999999        -0.63459670543670654     
  0.13140000000000002         -1.2667288780212402     
  0.13169999999999998         -1.8495748043060303     
  0.13200000000000001         -2.3667767047882080     
  0.13229999999999997         -2.8046050071716309     
  0.13260000000000000         -3.1526877880096436     
  0.13290000000000002         -3.4023644924163818     
  0.13319999999999999         -3.5482115745544434     
  0.13350000000000001         -3.5885705947875977     
  0.13380000000000003         -3.5243291854858398     
  0.13410000000000000         -3.3604490756988525     
  0.13440000000000002         -3.1062133312225342     
  0.13469999999999999         -2.7734444141387939     
  0.13500000000000001         -2.3786458969116211     
  0.13529999999999998         -1.9417647123336792     
  0.13560000000000000         -1.4840418100357056     
  0.13590000000000002         -1.0284972190856934     
  0.13619999999999999        -0.59911096096038818     
  0.13650000000000001        -0.21733403205871582     
  0.13680000000000003          9.8060920834541321E-002
  0.13710000000000000         0.33232623338699341     
  0.13740000000000002         0.47791448235511780     
  0.13769999999999999         0.53386908769607544     
  0.13800000000000001         0.50719279050827026     
  0.13829999999999998         0.41382777690887451     
  0.13860000000000000         0.27646592259407043     
  0.13890000000000002         0.12420441210269928     
  0.13919999999999999         -9.0922946110367775E-003
  0.13950000000000001         -8.9406885206699371E-002
  0.13979999999999998         -8.3970658481121063E-002
  0.14010000000000000          3.5001605749130249E-002
  0.14040000000000002         0.28557616472244263     
  0.14069999999999999         0.67554926872253418     
  0.14100000000000001          1.1989799737930298     
  0.14130000000000004          1.8353421688079834     
  0.14160000000000000          2.5514070987701416     
  0.14189999999999997          3.3015155792236328     
  0.14219999999999999          4.0317349433898926     
  0.14250000000000002          4.6847271919250488     
  0.14279999999999998          5.2027511596679688     
  0.14310000000000000          5.5350952148437500     
  0.14339999999999997          5.6421947479248047     
  0.14369999999999999          5.4988169670104980     
  0.14400000000000002          5.0985960960388184     
  0.14429999999999998          4.4535522460937500     
  0.14460000000000001          3.5943765640258789     
  0.14490000000000003          2.5689210891723633     
  0.14520000000000000          1.4359612464904785     
  0.14550000000000002         0.26252576708793640     
  0.14579999999999999        -0.88214635848999023     
  0.14610000000000001         -1.9343026876449585     
  0.14640000000000003         -2.8381328582763672     
  0.14670000000000000         -3.5515604019165039     
  0.14699999999999996         -4.0499629974365234     
  0.14729999999999999         -4.3251862525939941     
  0.14760000000000001         -4.3867793083190918     
  0.14789999999999998         -4.2602639198303223     
  0.14820000000000000         -3.9824848175048828     