  -1.4999999999999999E-002     0.0000000000000000     
  -1.4700000000000000E-002    -2.2474300145689693E-026
  -1.4400000000000000E-002    -3.7111260786361065E-021
  -1.4100000000000000E-002    -4.4693211466752011E-019
  -1.3800000000000000E-002     1.6990602973216613E-017
  -1.3500000000000000E-002     1.3635499644535906E-017
  -1.3200000000000000E-002    -8.4179675968757340E-016
  -1.2899999999999998E-002     8.2186089449204629E-016
  -1.2600000000000000E-002     7.4619751710623021E-015
  -1.2299999999999998E-002     1.4222200978040475E-015
  -1.2000000000000000E-002    -4.8618197221903431E-014
  -1.1699999999999999E-002    -5.3536301907910740E-014
  -1.1399999999999999E-002     1.4960918381835818E-013
  -1.1099999999999999E-002     4.7682490739070002E-013
  -1.0799999999999999E-002    -1.3874727483672274E-013
  -1.0499999999999999E-002    -2.0130115287150206E-012
  -1.0199999999999999E-002    -7.0623303966311007E-013
  -9.8999999999999991E-003     2.0222459604760961E-012
  -9.5999999999999992E-003     9.5830808049738003E-012
  -9.2999999999999992E-003     2.3704391272724021E-012
  -8.9999999999999993E-003    -2.4239494603913389E-011
  -8.6999999999999994E-003    -2.4064479187001729E-011
  -8.3999999999999995E-003     1.4446737639559101E-011
  -8.0999999999999996E-003     5.1382257857819446E-011
  -7.7999999999999988E-003     1.2948417814115317E-010
  -7.4999999999999997E-003    -9.2373391993740369E-011
  -7.1999999999999998E-003    -2.9635300105989985E-010
  -6.8999999999999981E-003    -5.5625490206163717E-011
  -6.5999999999999982E-003     3.1044976931055686E-011
  -6.3000000000000000E-003     6.7186167873418395E-010
  -6.0000000000000001E-003     9.2510751356720749E-010
  -5.6999999999999985E-003    -1.1546335624169911E-009
  -5.3999999999999986E-003    -1.4519792517338859E-009
  -5.1000000000000004E-003    -5.8475869521045463E-010
  -4.7999999999999987E-003    -4.5234829313269348E-010
  -4.5000000000000005E-003     4.4539167869954979E-009
  -4.1999999999999989E-003     5.3493119606000745E-009
  -3.8999999999999990E-003    -6.2056166985949027E-009
  -3.5999999999999990E-003    -3.9492940460653696E-009
  -3.2999999999999991E-003    -3.9179377493826800E-009
  -2.9999999999999992E-003    -1.1915641598864927E-008
  -2.6999999999999993E-003     2.6196709041320976E-008
  -2.3999999999999994E-003     1.7832652044077404E-008
  -2.0999999999999977E-003    -2.6616852997632677E-008
  -1.7999999999999995E-003     3.1948762079136304E-008
  -1.4999999999999979E-003    -5.9139034637531552E-008
  -1.1999999999999997E-003    -5.4576047666132448E-008
  -8.9999999999999976E-004     1.5026427082136049E-007
  -5.9999999999999810E-004    -1.1705921470336724E-007
  -2.9999999999999992E-004     4.6478546663748778E-008
   0.0000000000000000          2.7748497364561773E-007
   3.0000000000000165E-004    -5.5442386167279593E-007
   5.9999999999999984E-004     2.1854424296741145E-007
   9.0000000000000149E-004     5.9409916395552473E-007
   1.2000000000000031E-003    -1.1477908276540883E-006
   1.5000000000000013E-003     4.7659171548980986E-007
   1.8000000000000030E-003     8.1917338952351682E-007
   2.1000000000000012E-003    -1.6315791686740235E-006
   2.3999999999999994E-003     1.1983444880222664E-006
   2.7000000000000010E-003     1.1953004009611232E-006
   2.9999999999999992E-003    -1.4702314223956150E-006
   3.3000000000000008E-003     9.5072868299049971E-007
   3.6000000000000025E-003    -1.7176912987883252E-006
   3.9000000000000007E-003    -3.2612961301387022E-006
   4.2000000000000023E-003     2.8264820114359493E-006
   4.5000000000000005E-003     5.9163496681122977E-006
   4.7999999999999987E-003     1.5261426687328348E-005
   5.1000000000000004E-003     3.6346910710826014E-005
   5.4000000000000020E-003     6.9247141240502078E-005
   5.7000000000000037E-003     1.2240744988645550E-004
   5.9999999999999984E-003     1.8700533267532009E-004
   6.3000000000000000E-003     2.5723649772782606E-004
   6.6000000000000017E-003     3.3768597487838364E-004
   6.9000000000000034E-003     4.3745054466247206E-004
   7.2000000000000015E-003     5.8595668710581181E-004
   7.5000000000000032E-003     8.1234388708355254E-004
   7.8000000000000014E-003     1.1354706604907623E-003
   8.0999999999999996E-003     1.5592563662328029E-003
   8.4000000000000012E-003     2.0660605437254689E-003
   8.7000000000000029E-003     2.6212995190010441E-003
   9.0000000000000011E-003     3.1520015405531454E-003
   9.2999999999999992E-003     3.5192873988550144E-003
   9.6000000000000009E-003     3.5016693267203719E-003
   9.8999999999999991E-003     2.7505457028070279E-003
   1.0200000000000001E-002     7.1650114333285386E-004
   1.0500000000000002E-002    -3.4163107528460343E-003
   1.0800000000000004E-002    -1.0793919074286423E-002
   1.1099999999999999E-002    -2.2933894661665288E-002
   1.1400000000000000E-002    -4.1771385379367754E-002
   1.1700000000000002E-002    -6.9771702833197224E-002
   1.2000000000000004E-002   -0.10996257661675646     
   1.2300000000000002E-002   -0.16589970164321333     
   1.2600000000000000E-002   -0.24155638861760309     
   1.2900000000000002E-002   -0.34107626970317106     
   1.3200000000000000E-002   -0.46858726617077018     
   1.3500000000000002E-002   -0.62778623898243069     
   1.3800000000000003E-002   -0.82137829239581350     
   1.4100000000000001E-002    -1.0505661225820262     
   1.4400000000000000E-002    -1.3143359890728306     
   1.4700000000000001E-002    -1.6087767789497036     
   1.4999999999999999E-002    -1.9264729269452374     
   1.5300000000000001E-002    -2.2561468181329758     
   1.5600000000000003E-002    -2.5825279261058256     
   1.5899999999999997E-002    -2.8863074708678766     
   1.6199999999999999E-002    -3.1449460925357755     
   1.6500000000000001E-002    -3.3335606372968272     
   1.6800000000000002E-002    -3.4265928014135909     
   1.7100000000000004E-002    -3.3994629806659873     
   1.7400000000000006E-002    -3.2309707691023846     
   1.7700000000000000E-002    -2.9053175999311787     
   1.8000000000000002E-002    -2.4145296730862498     
   1.8300000000000004E-002    -1.7602701369585816     
   1.8600000000000005E-002   -0.95477423707892939     
   1.8900000000000000E-002    -2.1218635588407864E-002
   1.9200000000000002E-002     1.0066414261652437     
   1.9500000000000003E-002     2.0864450512318768     
   1.9799999999999998E-002     3.1696701372684686     
   2.0100000000000000E-002     4.2050335998133903     
   2.0400000000000001E-002     5.1419478156175842     
   2.0700000000000003E-002     5.9351327520988093     
   2.0999999999999998E-002     6.5475081793653374     
   2.1299999999999999E-002     6.9534320306613893     
   2.1600000000000001E-002     7.1404733891435797     
   2.1900000000000003E-002     7.1101676913684173     
   2.2200000000000004E-002     6.8775105976274062     
   2.2500000000000006E-002     6.4684178117232705     
   2.2800000000000001E-002     5.9178638291758219     
   2.3100000000000002E-002     5.2657243266953024     
   2.3400000000000004E-002     4.5526075630886194     
   2.3699999999999999E-002     3.8171808918659949     
   2.4000000000000000E-002     3.0915132130206047     
   2.4300000000000002E-002     2.4007756324136409     
   2.4599999999999997E-002     1.7596490824139721     
   2.4900000000000005E-002     1.1755367383437942     
   2.5200000000000000E-002    0.64736392181969649     
   2.5499999999999995E-002    0.16969231782149308     
   2.5800000000000003E-002   -0.26411263876346602     
   2.6099999999999998E-002   -0.65910462419659099     
   2.6400000000000007E-002    -1.0139629375755597     
   2.6700000000000002E-002    -1.3196497797924778     
   2.6999999999999996E-002    -1.5567363555553939     
   2.7300000000000005E-002    -1.6958180183219724     
   2.7600000000000000E-002    -1.7004748855187302     
   2.7900000000000008E-002    -1.5296389525379084     
   2.8200000000000003E-002    -1.1451630648418671     
   2.8499999999999998E-002   -0.51739651563984523     
   2.8800000000000006E-002    0.36575908138620150     
   2.9100000000000001E-002     1.4930637322482454     
   2.9400000000000003E-002     2.8226914683843347     
   2.9700000000000004E-002     4.2800078305233598     
   3.0000000000000006E-002     5.7573961249812697     
   3.0300000000000001E-002     7.1193825489472502     
   3.0600000000000002E-002     8.2091521723912422     
   3.0900000000000004E-002     8.8636382366543103     
   3.1199999999999999E-002     8.9257808021373535     
   3.1500000000000007E-002     8.2634598809622162     
   3.1800000000000002E-002     6.7842504368207415     
   3.2099999999999997E-002     4.4493890662645015     
   3.2400000000000005E-002     1.2864494836159110     
   3.2700000000000000E-002    -2.6111995928231693     
   3.3000000000000002E-002    -7.0794824753794074     
   3.3300000000000003E-002    -11.898930863519524     
   3.3599999999999998E-002    -16.801779291442642     
   3.3900000000000000E-002    -21.498060308320873     
   3.4200000000000001E-002    -25.692093122970277     
   3.4500000000000003E-002    -29.109422265150897     
   3.4799999999999998E-002    -31.514830913725064     
   3.5099999999999999E-002    -32.734319164866292     
   3.5400000000000001E-002    -32.664040913535217     
   3.5699999999999996E-002    -31.280786518411858     
   3.6000000000000004E-002    -28.638705460381743     
   3.6299999999999999E-002    -24.865004989758631     
   3.6600000000000008E-002    -20.148881958879997     
   3.6900000000000002E-002    -14.722952499434655     
   3.7199999999999997E-002    -8.8500205864957024     
   3.7500000000000006E-002    -2.7981037258840047     
   3.7800000000000000E-002     3.1687638569829630     
   3.8100000000000009E-002     8.8135387579757634     
   3.8400000000000004E-002     13.930535416362488     
   3.8699999999999998E-002     18.359987967385678     
   3.9000000000000007E-002     21.984533575591740     
   3.9300000000000002E-002     24.736674208019622     
   3.9600000000000003E-002     26.590563861526675     
   3.9900000000000005E-002     27.561685178281891     
   4.0200000000000000E-002     27.697075482932235     
   4.0500000000000001E-002     27.072155327221651     
   4.0800000000000003E-002     25.780968932863061     
   4.1100000000000005E-002     23.933201630116884     
   4.1399999999999999E-002     21.645025573246755     
   4.1700000000000008E-002     19.036106932735287     
   4.2000000000000003E-002     16.225351912415022     
   4.2299999999999997E-002     13.324010412198817     
   4.2600000000000006E-002     10.437073445886497     
   4.2900000000000001E-002     7.6544837960752261     
   4.3200000000000002E-002     5.0525645708132743     
   4.3500000000000004E-002     2.6913863526350212     
   4.3799999999999999E-002    0.61180128175593040     
   4.4100000000000000E-002    -1.1622963076101360     
   4.4400000000000002E-002    -2.6258417410420520     
   4.4700000000000004E-002    -3.7888259284830923     
   4.4999999999999998E-002    -4.6749747959095203     
   4.5300000000000000E-002    -5.3202262130072597     
   4.5600000000000002E-002    -5.7640001868191177     
   4.5899999999999996E-002    -6.0537314992657798     
   4.6200000000000005E-002    -6.2325767806210308     
   4.6500000000000000E-002    -6.3422624825996081     
   4.6799999999999994E-002    -6.4188788404298691     
   4.7100000000000003E-002    -6.4885837288580319     
   4.7399999999999998E-002    -6.5709262202377090     
   4.7700000000000006E-002    -6.6725537914808797     
   4.8000000000000001E-002    -6.7930446708401746     
   4.8300000000000010E-002    -6.9236879313816644     
   4.8600000000000004E-002    -7.0460664488140026     
   4.8899999999999999E-002    -7.1406108406715418     
   4.9200000000000008E-002    -7.1813084720537574     
   4.9500000000000002E-002    -7.1449722429119049     
   4.9800000000000011E-002    -7.0079760352855658     
   5.0100000000000006E-002    -6.7516291040242749     
   5.0400000000000000E-002    -6.3652101542601116     
   5.0700000000000009E-002    -5.8420661402279848     
   5.1000000000000004E-002    -5.1879019332035199     
   5.1299999999999998E-002    -4.4139261366832203     
   5.1600000000000007E-002    -3.5410542852882685     
   5.1900000000000002E-002    -2.5980883084501585     
   5.2200000000000010E-002    -1.6172908408859001     
   5.2500000000000005E-002   -0.63586480819335378     
   5.2800000000000000E-002    0.30836083895421496     
   5.3099999999999994E-002     1.1797059818204687     
   5.3400000000000003E-002     1.9442692051911763     
   5.3699999999999998E-002     2.5771838228391601     
   5.4000000000000006E-002     3.0580459892356515     
   5.4300000000000001E-002     3.3773372843443354     
   5.4599999999999996E-002     3.5336737106097189     
   5.4900000000000004E-002     3.5345105479801759     
   5.5199999999999999E-002     3.3983968074216548     
   5.5499999999999994E-002     3.1462828756259782     
   5.5800000000000002E-002     2.8115004027872743     
   5.6099999999999997E-002     2.4245965407753367     
   5.6400000000000006E-002     2.0217446665754579     
   5.6700000000000000E-002     1.6361574245947104     
   5.6999999999999995E-002     1.2966218524240691     
   5.7300000000000004E-002     1.0292681477174064     
   5.7599999999999998E-002    0.84901435215780907     
   5.7900000000000007E-002    0.76521227416334980     
   5.8200000000000002E-002    0.77633309376541249     
   5.8499999999999996E-002    0.87295544780897316     
   5.8800000000000005E-002     1.0374682912469169     
   5.9100000000000000E-002     1.2472079954868178     
   5.9400000000000008E-002     1.4730996302342518     
   5.9700000000000003E-002     1.6888387326988834     
   6.0000000000000012E-002     1.8631746569120864     
   6.0300000000000006E-002     1.9758767071504977     
   6.0600000000000001E-002     2.0038669218750158     
   6.0900000000000010E-002     1.9393342944357279     
   6.1200000000000004E-002     1.7756414262437232     
   6.1500000000000013E-002     1.5181765835417913     
   6.1800000000000008E-002     1.1787068160743104     
   6.2100000000000002E-002    0.77404801149428337     
   6.2399999999999997E-002    0.32907650771533170     
   6.2700000000000006E-002   -0.13135856230890397     
   6.3000000000000000E-002   -0.57907154599068633     
   6.3300000000000009E-002   -0.98715505593765940     
   6.3600000000000004E-002    -1.3328857739592337     
   6.3899999999999998E-002    -1.5945929003057628     
   6.4199999999999993E-002    -1.7590787055791210     
   6.4500000000000002E-002    -1.8181703617356817     
   6.4800000000000010E-002    -1.7704514447283941     
   6.5100000000000005E-002    -1.6241354585651298     
   6.5400000000000000E-002    -1.3905468326926185     
   6.5700000000000008E-002    -1.0918080438362638     
   6.5999999999999989E-002   -0.75065778931170790     
   6.6299999999999998E-002   -0.39640500182782290     
   6.6600000000000006E-002    -5.9010445999279071E-002
   6.6900000000000001E-002    0.23378464272183885     
   6.7199999999999996E-002    0.45509681237525612     
   6.7500000000000004E-002    0.58527317816129854     
   6.7800000000000013E-002    0.61109360441686178     
   6.8099999999999994E-002    0.52871172608047168     
   6.8400000000000002E-002    0.34415116342814933     
   6.8700000000000011E-002     7.2072667081670261E-002
   6.8999999999999992E-002   -0.26223884111060025     
   6.9300000000000000E-002   -0.62799203456301456     
   6.9600000000000009E-002   -0.99000578694130326     
   6.9900000000000004E-002    -1.3092202566825613     
   7.0199999999999999E-002    -1.5536105464568628     
   7.0500000000000007E-002    -1.6913755442098068     
   7.0800000000000016E-002    -1.7049648030898870     
   7.1099999999999997E-002    -1.5833108045810214     
   7.1400000000000005E-002    -1.3306370521939179     
   7.1700000000000000E-002   -0.96287979749405750     
   7.1999999999999995E-002   -0.50553611622439831     
   7.2300000000000003E-002     4.0083953620566604E-003
   7.2600000000000012E-002    0.52611726863601493     
   7.2900000000000006E-002     1.0172345493266732     
   7.3200000000000001E-002     1.4374465683631463     
   7.3499999999999996E-002     1.7527683465643733     
   7.3800000000000004E-002     1.9386972314753805     
   7.4099999999999999E-002     1.9816583850360070     
   7.4400000000000008E-002     1.8810888983910337     
   7.4700000000000003E-002     1.6477270670139497     
   7.5000000000000011E-002     1.3039393363134053     
   7.5299999999999992E-002    0.87892625641248756     
   7.5600000000000001E-002    0.40846747775774617     
   7.5900000000000009E-002    -7.1220177958572606E-002
   7.6200000000000004E-002   -0.52508615271572356     
   7.6499999999999999E-002   -0.92060575861009397     
   7.6800000000000007E-002    -1.2352669452145939     
   7.7099999999999988E-002    -1.4496328504435212     
   7.7399999999999997E-002    -1.5569384267472177     
   7.7700000000000005E-002    -1.5553051510269329     
   7.8000000000000014E-002    -1.4516491842276327     
   7.8299999999999995E-002    -1.2592263544013944     
   7.8600000000000003E-002   -0.99367611068923978     
   7.8900000000000012E-002   -0.67667659772923372     
   7.9199999999999993E-002   -0.32812252514470330     
   7.9500000000000001E-002     2.8979729603519466E-002
   7.9800000000000010E-002    0.37531704058439885     
   8.0100000000000018E-002    0.69081877877808395     
   8.0399999999999999E-002    0.96049387180207901     
   8.0700000000000008E-002     1.1708670742691467     
   8.1000000000000003E-002     1.3138835804261326     
   8.1299999999999997E-002     1.3833000617444036     
   8.1600000000000006E-002     1.3793855539228232     
   8.1900000000000014E-002     1.3047647423181861     
   8.2199999999999995E-002     1.1669984636264759     
   8.2500000000000004E-002    0.97733724094872620     
   8.2799999999999999E-002    0.74772470077940234     
   8.3100000000000007E-002    0.49547686654150169     
   8.3400000000000002E-002    0.23392774762862523     
   8.3700000000000011E-002    -1.8906875848307081E-002
   8.4000000000000005E-002   -0.25103618298296615     
   8.4300000000000000E-002   -0.44952662745957461     
   8.4599999999999995E-002   -0.60638357664537779     
   8.4900000000000003E-002   -0.71614571755904777     
   8.5199999999999998E-002   -0.77712724477138906     
   8.5500000000000007E-002   -0.79124851770736626     
   8.5800000000000001E-002   -0.76241134344298089     
   8.6100000000000010E-002   -0.69809459541414576     
   8.6399999999999991E-002   -0.60553052676849628     
   8.6699999999999999E-002   -0.49506391067947209     
   8.7000000000000008E-002   -0.37538906429157803     
   8.7300000000000003E-002   -0.25645183857407972     
   8.7599999999999997E-002   -0.14507252911179247     
   8.7900000000000006E-002    -5.0179962205536555E-002
   8.8200000000000014E-002     2.5048960974963674E-002
   8.8499999999999995E-002     7.4700960992665655E-002
   8.8800000000000004E-002     9.8875038209507604E-002
   8.9100000000000013E-002     9.6515315945902902E-002
   8.9399999999999993E-002     7.1065769670442425E-002
   8.9700000000000002E-002     2.5290766308355417E-002
   9.0000000000000011E-002    -3.3955934084972439E-002
   9.0299999999999991E-002   -0.10139666989535323     
   9.0600000000000000E-002   -0.16806785227709220     
   9.0900000000000009E-002   -0.22857603252654446     
   9.1200000000000017E-002   -0.27394226826445767     
   9.1499999999999998E-002   -0.30058356670255204     
   9.1800000000000007E-002   -0.30239292991989597     
   9.2100000000000001E-002   -0.27902429564583064     
   9.2399999999999996E-002   -0.22963331828913325     
   9.2700000000000005E-002   -0.15718493180145243     
   9.3000000000000013E-002    -6.5800284009247534E-002
   9.3300000000000008E-002     3.9109353379189998E-002
   9.3600000000000003E-002    0.14974932586127876     
   9.3899999999999997E-002    0.25926778896305613     
   9.4200000000000006E-002    0.36014896680983277     
   9.4500000000000001E-002    0.44583880556608690     
   9.4800000000000009E-002    0.51094230794375761     
   9.5100000000000004E-002    0.55194121669217999     
   9.5399999999999999E-002    0.56540321584633269     
   9.5699999999999993E-002    0.55232108369555277     
   9.6000000000000002E-002    0.51260142232456651     
   9.6300000000000011E-002    0.44995530609378598     
   9.6600000000000005E-002    0.36739271098435666     
   9.6900000000000000E-002    0.27063043408635212     
   9.7200000000000009E-002    0.16503611404701157     
   9.7499999999999989E-002     5.6286029169905660E-002
   9.7799999999999998E-002    -4.9220298798522188E-002
   9.8100000000000007E-002   -0.14618790146134053     
   9.8400000000000015E-002   -0.22927891705033154     
   9.8699999999999996E-002   -0.29419611606106066     
   9.9000000000000005E-002   -0.33825423272599409     
   9.9300000000000013E-002   -0.35930745135788733     
   9.9599999999999994E-002   -0.35819632862800432     
   9.9900000000000003E-002   -0.33458556088273195     
  0.10020000000000001        -0.29297804422694362     
  0.10049999999999999        -0.23587310716548382     
  0.10080000000000000        -0.16961856627008065     
  0.10110000000000001         -9.8279034718590674E-002
  0.10140000000000000         -2.9127547605025006E-002
  0.10170000000000000          3.4171130375192704E-002
  0.10200000000000001          8.5832982632333632E-002
  0.10230000000000002         0.12354409109562337     
  0.10260000000000000         0.14392218635219800     
  0.10290000000000001         0.14744083165327382     
  0.10320000000000000         0.13418344404363047     
  0.10350000000000001         0.10621144576030850     
  0.10380000000000000          6.6903027566801998E-002
  0.10410000000000001          1.9117626680372646E-002
  0.10440000000000001         -3.2146605481359725E-002
  0.10470000000000000         -8.3160826986015124E-002
  0.10500000000000000        -0.12988085834861041     
  0.10530000000000000        -0.16895410221960550     
  0.10560000000000000        -0.19725588680962503     
  0.10590000000000001        -0.21270024117683040     
  0.10620000000000000        -0.21445849321243138     
  0.10650000000000001        -0.20164096323479197     
  0.10679999999999999        -0.17586646152143592     
  0.10710000000000000        -0.13806623301565618     
  0.10740000000000001         -9.0878605916995481E-002
  0.10770000000000000         -3.7455622336357353E-002
  0.10800000000000000          1.8647635237055316E-002
  0.10830000000000001          7.3512421812738094E-002
  0.10859999999999999         0.12391142218469264     
  0.10890000000000000         0.16609670184505720     
  0.10920000000000001         0.19757509162221254     
  0.10950000000000001         0.21660439720707814     
  0.10979999999999999         0.22268801266581928     
  0.11009999999999999         0.21541070528863093     
  0.11040000000000001         0.19615988677827634     
  0.11070000000000001         0.16704578372234269     
  0.11100000000000000         0.13005665680464396     
  0.11130000000000000          8.9285440573484309E-002
  0.11160000000000002          4.5733237086503786E-002
  0.11190000000000001          3.8004823565902512E-003
  0.11220000000000001         -3.5202641242870314E-002
  0.11250000000000000         -6.7785134204166209E-002
  0.11280000000000000         -9.3850529317713427E-002
  0.11309999999999999        -0.11054529621720377     
  0.11340000000000001        -0.11939530282863897     
  0.11369999999999998        -0.11746904723010054     
  0.11400000000000000        -0.10779551452863578     
  0.11430000000000000         -8.8730138865657282E-002
  0.11460000000000002         -6.4102858594081075E-002
  0.11489999999999999         -3.3167751370680065E-002
  0.11520000000000001         -6.6405242415319699E-004
  0.11550000000000001          3.3557495010216432E-002
  0.11580000000000000          6.3975297493434891E-002
  0.11609999999999999          9.0676579684551672E-002
  0.11640000000000002         0.10931917155390170     
  0.11670000000000001         0.12055306701638946     
  0.11700000000000001         0.12087484031543871     
  0.11730000000000000         0.11306770721199466     
  0.11760000000000000          9.4486409191137655E-002
  0.11789999999999999          7.0011529052460553E-002
  0.11820000000000001          3.8915356313237615E-002
  0.11850000000000001          5.7233858444907248E-003
  0.11880000000000000         -2.8998815919283882E-002
  0.11910000000000000         -6.1252278228802082E-002
  0.11940000000000002         -9.0379422807839838E-002
  0.11970000000000001        -0.11377941390882773     
  0.12000000000000001        -0.13097112971964897     
  0.12030000000000000        -0.14023892123762716     
  0.12060000000000000        -0.14269614856467916     
  0.12089999999999999        -0.13735519543029540     
  0.12119999999999999        -0.12534331033624913     
  0.12150000000000001        -0.10682541249365074     
  0.12180000000000001         -8.3130518673349196E-002
  0.12210000000000000         -5.5533653961821638E-002
  0.12239999999999999         -2.4989389242445870E-002
  0.12270000000000002          5.4666818211501073E-003
  0.12300000000000001          3.6021090066783890E-002
  0.12330000000000001          6.2425374716447379E-002
  0.12360000000000000          8.5078653475080035E-002
  0.12390000000000000         0.10055034481130587     
  0.12419999999999999         0.10986546134353037     
  0.12450000000000001         0.11031073355369703     
  0.12480000000000001         0.10404263543930248     
  0.12509999999999999          8.9782228324137625E-002
  0.12540000000000001          7.1354962431301350E-002
  0.12570000000000003          4.8126292335695431E-002
  0.12600000000000000          2.4061854913231928E-002
  0.12630000000000002         -6.8832438722812167E-004
  0.12659999999999999         -2.2802636422467493E-002
  0.12690000000000001         -4.1532607937020849E-002
  0.12719999999999998         -5.5781340483439468E-002
  0.12750000000000000         -6.4388633002983142E-002
  0.12780000000000002         -6.8128894506307325E-002
  0.12809999999999999         -6.6026133405731435E-002
  0.12840000000000001         -5.9679105810902744E-002
  0.12869999999999998         -4.8924079291618267E-002
  0.12900000000000000         -3.4823369232174495E-002
  0.12930000000000003         -1.8570334893295626E-002
  0.12959999999999999         -7.1757752653946877E-004
  0.12990000000000002          1.7100503198720918E-002
  0.13019999999999998          3.4267370891404303E-002
  0.13050000000000000          4.9041361783585535E-002
  0.13080000000000003          6.1402644063616729E-002
  0.13109999999999999          6.9411256246233677E-002
  0.13140000000000002          7.3113273023020869E-002
  0.13169999999999998          7.1385984495259985E-002
  0.13200000000000001          6.5376337262445988E-002
  0.13229999999999997          5.3984645933151998E-002
  0.13260000000000000          3.9697702419227821E-002
  0.13290000000000002          2.2238999823601446E-002
  0.13319999999999999          3.4896552196890529E-003
  0.13350000000000001         -1.4799529417211410E-002
  0.13380000000000003         -3.2025841766812890E-002
  0.13410000000000000         -4.6065323502787581E-002
  0.13440000000000002         -5.7326504947555257E-002
  0.13469999999999999         -6.3282077189043273E-002
  0.13500000000000001         -6.5946776605523449E-002
  0.13529999999999998         -6.3441589031885071E-002
  0.13560000000000000         -5.7816108396867141E-002
  0.13590000000000002         -4.8372219585310253E-002
  0.13619999999999999         -3.6738352901408200E-002
  0.13650000000000001         -2.2957951553475964E-002
  0.13680000000000003         -8.8612903315995195E-003
  0.13710000000000000          5.5954601664957582E-003
  0.13740000000000002          1.8803288803483420E-002
  0.13769999999999999          3.0964089170747333E-002
  0.13800000000000001          4.0216164931484999E-002
  0.13829999999999998          4.6936913744657485E-002
  0.13860000000000000          5.0235954187217297E-002
  0.13890000000000002          4.9967870026039612E-002
  0.13919999999999999          4.5896205339861718E-002
  0.13950000000000001          3.8810431613956697E-002
  0.13979999999999998          2.8853157268293073E-002
  0.14010000000000000          1.6984240406530793E-002
  0.14040000000000002          4.0235225526909224E-003
  0.14069999999999999         -9.0069698896348416E-003
  0.14100000000000001         -2.1336032223850721E-002
  0.14130000000000004         -3.1592406183239052E-002
  0.14160000000000000         -3.9352807534915095E-002
  0.14189999999999997         -4.4260007455228859E-002
  0.14219999999999999         -4.6003311201398556E-002
  0.14250000000000002         -4.4808874342364358E-002
  0.14279999999999998         -4.0464180999857213E-002
  0.14310000000000000         -3.4567131345048907E-002
  0.14339999999999997         -2.6251414700845466E-002
  0.14369999999999999         -1.7399465273075398E-002
  0.14400000000000002         -7.2653352285707851E-003
  0.14429999999999998          1.9441760455692347E-003
  0.14460000000000001          1.1738716092013740E-002
  0.14490000000000003          1.9821892653302475E-002
  0.14520000000000000          2.7805488053854785E-002
  0.14550000000000002          3.3539436416676338E-002
  0.14579999999999999          3.8165655874448867E-002
  0.14610000000000001          4.0046231956416101E-002
  0.14640000000000003          4.0590623247997393E-002
  0.14670000000000000          3.8248375858974781E-002
  0.14699999999999996          3.4197389902496766E-002
  0.14729999999999999          2.7685975817554054E-002
  0.14760000000000001          1.9557413296451498E-002
  0.14789999999999998          1.0617782855745377E-002
  0.14820000000000000          6.7768511788349195E-004