  -1.4999999999999999E-002     0.0000000000000000     
  -1.4700000000000000E-002     0.0000000000000000     
  -1.4400000000000000E-002     0.0000000000000000     
  -1.4100000000000000E-002     0.0000000000000000     
  -1.3800000000000000E-002     0.0000000000000000     
  -1.3500000000000000E-002     0.0000000000000000     
  -1.3200000000000000E-002     0.0000000000000000     
  -1.2899999999999998E-002     0.0000000000000000     
  -1.2600000000000000E-002     0.0000000000000000     
  -1.2299999999999998E-002     0.0000000000000000     
  -1.2000000000000000E-002     0.0000000000000000     
  -1.1699999999999999E-002     0.0000000000000000     
  -1.1399999999999999E-002     0.0000000000000000     
  -1.1099999999999999E-002     0.0000000000000000     
  -1.0799999999999999E-002     0.0000000000000000     
  -1.0499999999999999E-002     0.0000000000000000     
  -1.0199999999999999E-002     0.0000000000000000     
  -9.8999999999999991E-003     0.0000000000000000     
  -9.5999999999999992E-003     0.0000000000000000     
  -9.2999999999999992E-003     0.0000000000000000     
  -8.9999999999999993E-003     0.0000000000000000     
  -8.6999999999999994E-003     0.0000000000000000     
  -8.3999999999999995E-003     0.0000000000000000     
  -8.0999999999999996E-003     0.0000000000000000     
  -7.7999999999999988E-003     0.0000000000000000     
  -7.4999999999999997E-003     0.0000000000000000     
  -7.1999999999999998E-003     0.0000000000000000     
  -6.8999999999999981E-003     0.0000000000000000     
  -6.5999999999999982E-003     0.0000000000000000     
  -6.3000000000000000E-003     0.0000000000000000     
  -6.0000000000000001E-003     0.0000000000000000     
  -5.6999999999999985E-003     0.0000000000000000     
  -5.3999999999999986E-003     0.0000000000000000     
  -5.1000000000000004E-003     0.0000000000000000     
  -4.7999999999999987E-003     0.0000000000000000     
  -4.5000000000000005E-003     0.0000000000000000     
  -4.1999999999999989E-003     0.0000000000000000     
  -3.8999999999999990E-003     0.0000000000000000     
  -3.5999999999999990E-003     0.0000000000000000     
  -3.2999999999999991E-003     0.0000000000000000     
  -2.9999999999999992E-003     0.0000000000000000     
  -2.6999999999999993E-003     0.0000000000000000     
  -2.3999999999999994E-003     0.0000000000000000     
  -2.0999999999999977E-003     0.0000000000000000     
  -1.7999999999999995E-003     0.0000000000000000     
  -1.4999999999999979E-003     0.0000000000000000     
  -1.1999999999999997E-003     0.0000000000000000     
  -8.9999999999999976E-004     0.0000000000000000     
  -5.9999999999999810E-004     0.0000000000000000     
  -2.9999999999999992E-004     0.0000000000000000     
   0.0000000000000000          0.0000000000000000     
   3.0000000000000165E-004     0.0000000000000000     
   5.9999999999999984E-004     0.0000000000000000     
   9.0000000000000149E-004     0.0000000000000000     
   1.2000000000000031E-003     0.0000000000000000     
   1.5000000000000013E-003     0.0000000000000000     
   1.8000000000000030E-003     0.0000000000000000     
   2.1000000000000012E-003     0.0000000000000000     
   2.3999999999999994E-003     0.0000000000000000     
   2.7000000000000010E-003     0.0000000000000000     
   2.9999999999999992E-003     0.0000000000000000     
   3.3000000000000008E-003     0.0000000000000000     
   3.6000000000000025E-003     0.0000000000000000     
   3.9000000000000007E-003     0.0000000000000000     
   4.2000000000000023E-003     0.0000000000000000     
   4.5000000000000005E-003     0.0000000000000000     
   4.7999999999999987E-003     1.2071402888264803E-036
   5.1000000000000004E-003     2.4111139749510628E-035
   5.4000000000000020E-003     1.0026631612953136E-034
   5.7000000000000037E-003    -3.8864272287058204E-034
   5.9999999999999984E-003     1.3638063417721102E-033
   6.3000000000000000E-003    -3.8869377422289627E-033
   6.6000000000000017E-003     5.9313835984599940E-033
   6.9000000000000034E-003    -2.6133267146534620E-033
   7.2000000000000015E-003    -1.1435217126322875E-032
   7.5000000000000032E-003     2.2925586978218393E-032
   7.8000000000000014E-003     6.7799355014361709E-034
   8.0999999999999996E-003    -5.9963442080855168E-032
   8.4000000000000012E-003     7.4201646792548896E-032
   8.7000000000000029E-003     6.3570370089220554E-032
   9.0000000000000011E-003    -2.5632684052731299E-031
   9.2999999999999992E-003     7.6559324057049650E-032
   9.6000000000000009E-003     4.7465629636203587E-031
   9.8999999999999991E-003     2.1134132999818051E-031
   1.0200000000000001E-002    -2.9830296326692794E-030
   1.0500000000000002E-002     7.6061725543403067E-031
   1.0800000000000004E-002     1.9413834257050667E-029
   1.1099999999999999E-002    -4.3959823435328141E-029
   1.1400000000000000E-002    -1.0430615397784219E-029
   1.1700000000000002E-002     2.3609065186344401E-028
   1.2000000000000004E-002    -4.4375409626524633E-028
   1.2300000000000002E-002    -9.9121884596026477E-029
   1.2600000000000000E-002     1.9788891659979961E-027
   1.2900000000000002E-002    -3.5098867604312187E-027
   1.3200000000000000E-002    -4.1795058316684336E-028
   1.3500000000000002E-002     1.3086697053599179E-026
   1.3800000000000003E-002    -2.3158162808497567E-026
   1.4100000000000001E-002     8.3486751973253410E-029
   1.4400000000000000E-002     7.2765614581330808E-026
   1.4700000000000001E-002    -1.2996591881890637E-025
   1.4999999999999999E-002     1.3921412039680117E-026
   1.5300000000000001E-002     3.4605530788296081E-025
   1.5600000000000003E-002    -6.2756710118448312E-025
   1.5899999999999997E-002     1.2731370682579511E-025
   1.6199999999999999E-002     1.4159046464986874E-024
   1.6500000000000001E-002    -2.6313202939354546E-024
   1.6800000000000002E-002     8.1275338197647347E-025
   1.7100000000000004E-002     4.8753244773341389E-024
   1.7400000000000006E-002    -9.6230191488125704E-024
   1.7700000000000000E-002     4.6143842782442274E-024
   1.8000000000000002E-002     1.3216586650125505E-023
   1.8300000000000004E-002    -3.1284017845974330E-023
   1.8600000000000005E-002     2.5024375008609393E-023
   1.8900000000000000E-002     2.2180955852454654E-023
   1.9200000000000002E-002    -9.5374835919481802E-023
   1.9500000000000003E-002     1.3048038313571621E-022
   1.9799999999999998E-002    -1.7590687840943938E-023
   2.0100000000000000E-002    -3.0717327308478695E-022
   2.0400000000000001E-002     6.2493035845790040E-022
   2.0700000000000003E-002    -2.9774228319068871E-022
   2.0999999999999998E-002    -1.1382367726092828E-021
   2.1299999999999999E-002     2.5570168178963616E-021
   2.1600000000000001E-002    -8.9631340354781903E-022
   2.1900000000000003E-002    -5.0819395934811627E-021
   2.2200000000000004E-002     7.8969802169443827E-021
   2.2500000000000006E-002     7.9751907900961251E-021
   2.2800000000000001E-002    -4.0056259936971579E-020
   2.3100000000000002E-002     1.7244441025046106E-020
   2.3400000000000004E-002     1.8840981032864998E-019
   2.3699999999999999E-002    -4.8413521574596826E-019
   2.4000000000000000E-002     6.6341403778658679E-020
   2.4300000000000002E-002     2.0912811265838616E-018
   2.4599999999999997E-002    -4.2343387964298675E-018
   2.4900000000000005E-002     1.9251212210372722E-019
   2.5200000000000000E-002     9.8066670490826338E-018
   2.5499999999999995E-002    -6.6208938299882612E-018
   2.5800000000000003E-002     1.9585515186984497E-018
   2.6099999999999998E-002    -1.2706334624316859E-016
   2.6400000000000007E-002     3.6562113640760830E-016
   2.6700000000000002E-002     2.6252814759235657E-016
   2.6999999999999996E-002    -3.0747295985331102E-015
   2.7300000000000005E-002     5.0382790252106666E-015
   2.7600000000000000E-002     2.6977228570067464E-015
   2.7900000000000008E-002    -2.0150463193651866E-014
   2.8200000000000003E-002     4.1816678293888146E-014
   2.8499999999999998E-002    -1.2240676408679235E-013
   2.8800000000000006E-002     1.9623926507221501E-013
   2.9100000000000001E-002     8.2451130341623657E-013
   2.9400000000000003E-002    -4.4130259342634037E-012
   2.9700000000000004E-002     4.1071321690844265E-012
   3.0000000000000006E-002     2.1866860752672856E-011
   3.0300000000000001E-002    -6.6927054176435519E-011
   3.0600000000000002E-002    -5.9241986316571627E-012
   3.0900000000000004E-002     3.5202760151342716E-010
   3.1199999999999999E-002    -4.8625264925661327E-010
   3.1500000000000007E-002    -8.9680562975757994E-010
   3.1800000000000002E-002     3.0802065342783180E-009
   3.2099999999999997E-002     7.4254935533701882E-011
   3.2400000000000005E-002    -1.1053410631234328E-008
   3.2700000000000000E-002     8.7447267205220669E-009
   3.3000000000000002E-002     2.7268193036888988E-008
   3.3300000000000003E-002    -4.1152951268941251E-008
   3.3599999999999998E-002    -6.0804886459209229E-008
   3.3900000000000000E-002     9.9015139198854740E-008
   3.4200000000000001E-002     3.1292361768464616E-007
   3.4500000000000003E-002     1.4757775943508022E-006
   3.4799999999999998E-002     6.2071453612588812E-006
   3.5099999999999999E-002     1.5884152162470855E-005
   3.5400000000000001E-002     2.7740588848246261E-005
   3.5699999999999996E-002     3.7954272556817159E-005
   3.6000000000000004E-002     4.7764897317392752E-005
   3.6299999999999999E-002     6.3966377638280392E-005
   3.6600000000000008E-002     9.4169823569245636E-005
   3.6900000000000002E-002     1.4552068023476750E-004
   3.7199999999999997E-002     2.2503340733237565E-004
   3.7500000000000006E-002     3.3618687302805483E-004
   3.7800000000000000E-002     4.8248621169477701E-004
   3.8100000000000009E-002     6.7734840558841825E-004
   3.8400000000000004E-002     9.3955185730010271E-004
   3.8699999999999998E-002     1.2830451596528292E-003
   3.9000000000000007E-002     1.7188241472467780E-003
   3.9300000000000002E-002     2.2514814045280218E-003
   3.9600000000000003E-002     2.8746325988322496E-003
   3.9900000000000005E-002     3.5827022511512041E-003
   4.0200000000000000E-002     4.3606697581708431E-003
   4.0500000000000001E-002     5.1511647179722786E-003
   4.0800000000000003E-002     5.8543668128550053E-003
   4.1100000000000005E-002     6.3368133269250393E-003
   4.1399999999999999E-002     6.4182546921074390E-003
   4.1700000000000008E-002     5.8687720447778702E-003
   4.2000000000000003E-002     4.3989387340843678E-003
   4.2299999999999997E-002     1.6422653570771217E-003
   4.2600000000000006E-002    -2.8135371394455433E-003
   4.2900000000000001E-002    -9.3875685706734657E-003
   4.3200000000000002E-002    -1.8491037189960480E-002
   4.3500000000000004E-002    -3.0510459095239639E-002
   4.3799999999999999E-002    -4.5786462724208832E-002
   4.4100000000000000E-002    -6.4542055130004883E-002
   4.4400000000000002E-002    -8.6790673434734344E-002
   4.4700000000000004E-002   -0.11233671754598618     
   4.4999999999999998E-002   -0.14078287780284882     
   4.5300000000000000E-002   -0.17149363458156586     
   4.5600000000000002E-002   -0.20361059904098511     
   4.5899999999999996E-002   -0.23609906435012817     
   4.6200000000000005E-002   -0.26779815554618835     
   4.6500000000000000E-002   -0.29753065109252930     
   4.6799999999999994E-002   -0.32416656613349915     
   4.7100000000000003E-002   -0.34670263528823853     
   4.7399999999999998E-002   -0.36441242694854736     
   4.7700000000000006E-002   -0.37678167223930359     
   4.8000000000000001E-002   -0.38355639576911926     
   4.8300000000000010E-002   -0.38469851016998291     
   4.8600000000000004E-002   -0.38025069236755371     
   4.8899999999999999E-002   -0.37022417783737183     
   4.9200000000000008E-002   -0.35448658466339111     
   4.9500000000000002E-002   -0.33255907893180847     
   4.9800000000000011E-002   -0.30351281166076660     
   5.0100000000000006E-002   -0.26600670814514160     
   5.0400000000000000E-002   -0.21827685832977295     
   5.0700000000000009E-002   -0.15836182236671448     
   5.1000000000000004E-002    -8.4278449416160583E-002
   5.1299999999999998E-002     5.5764266289770603E-003
   5.1600000000000007E-002    0.11206709593534470     
   5.1900000000000002E-002    0.23503677546977997     
   5.2200000000000010E-002    0.37277132272720337     
   5.2500000000000005E-002    0.52208751440048218     
   5.2800000000000000E-002    0.67803591489791870     
   5.3099999999999994E-002    0.83416229486465454     
   5.3400000000000003E-002    0.98270505666732788     
   5.3699999999999998E-002     1.1152423620223999     
   5.4000000000000006E-002     1.2231159210205078     
   5.4300000000000001E-002     1.2982636690139771     
   5.4599999999999996E-002     1.3338679075241089     
   5.4900000000000004E-002     1.3249663114547729     
   5.5199999999999999E-002     1.2691380977630615     
   5.5499999999999994E-002     1.1666611433029175     
   5.5800000000000002E-002     1.0208693742752075     
   5.6099999999999997E-002    0.83791381120681763     
   5.6400000000000006E-002    0.62661170959472656     
   5.6700000000000000E-002    0.39785873889923096     
   5.6999999999999995E-002    0.16400876641273499     
   5.7300000000000004E-002    -6.1920914798974991E-002
   5.7599999999999998E-002   -0.26695021986961365     
   5.7900000000000007E-002   -0.43916821479797363     
   5.8200000000000002E-002   -0.56835442781448364     
   5.8499999999999996E-002   -0.64687669277191162     
   5.8800000000000005E-002   -0.67003375291824341     
   5.9100000000000000E-002   -0.63659685850143433     
   5.9400000000000008E-002   -0.54891371726989746     
   5.9700000000000003E-002   -0.41290625929832458     
   6.0000000000000012E-002   -0.23779252171516418     
   6.0300000000000006E-002    -3.5542704164981842E-002
   6.0600000000000001E-002    0.17982871830463409     
   6.0900000000000010E-002    0.39303329586982727     
   6.1200000000000004E-002    0.58852654695510864     
   6.1500000000000013E-002    0.75168728828430176     
   6.1800000000000008E-002    0.86955469846725464     
   6.2100000000000002E-002    0.93188762664794922     
   6.2399999999999997E-002    0.93181091547012329     
   6.2700000000000006E-002    0.86625957489013672     
   6.3000000000000000E-002    0.73623287677764893     
   6.3300000000000009E-002    0.54673230648040771     
   6.3600000000000004E-002    0.30623301863670349     
   6.3899999999999998E-002     2.6262300089001656E-002
   6.4199999999999993E-002   -0.27956074476242065     
   6.4500000000000002E-002   -0.59641480445861816     
   6.4800000000000010E-002   -0.90921425819396973     
   6.5100000000000005E-002    -1.2034525871276855     
   6.5400000000000000E-002    -1.4660766124725342     
   6.5700000000000008E-002    -1.6861716508865356     
   6.5999999999999989E-002    -1.8552054166793823     
   6.6299999999999998E-002    -1.9675972461700439     
   6.6600000000000006E-002    -2.0202429294586182     
   6.6900000000000001E-002    -2.0129356384277344     
   6.7199999999999996E-002    -1.9476824998855591     
   6.7500000000000004E-002    -1.8287669420242310     
   6.7800000000000013E-002    -1.6623256206512451     
   6.8099999999999994E-002    -1.4560359716415405     
   6.8400000000000002E-002    -1.2188429832458496     
   6.8700000000000011E-002   -0.96075356006622314     
   6.8999999999999992E-002   -0.69275456666946411     
   6.9300000000000000E-002   -0.42599588632583618     
   6.9600000000000009E-002   -0.17219717800617218     
   6.9900000000000004E-002     5.7634692639112473E-002
   7.0199999999999999E-002    0.25305053591728210     
   7.0500000000000007E-002    0.40525820851325989     
   7.0800000000000016E-002    0.50760328769683838     
   7.1099999999999997E-002    0.55615139007568359     
   7.1400000000000005E-002    0.55037361383438110     
   7.1700000000000000E-002    0.49310567975044250     
   7.1999999999999995E-002    0.39097437262535095     
   7.2300000000000003E-002    0.25370609760284424     
   7.2600000000000012E-002     9.3830116093158722E-002
   7.2900000000000006E-002    -7.4386917054653168E-002
   7.3200000000000001E-002   -0.23611485958099365     
   7.3499999999999996E-002   -0.37702623009681702     
   7.3800000000000004E-002   -0.48483395576477051     
   7.4099999999999999E-002   -0.54991692304611206     
   7.4400000000000008E-002   -0.56663620471954346     
   7.4700000000000003E-002   -0.53312951326370239     
   7.5000000000000011E-002   -0.45185464620590210     
   7.5299999999999992E-002   -0.32898515462875366     
   7.5600000000000001E-002   -0.17352806031703949     
   7.5900000000000009E-002     3.5935733467340469E-003
   7.6200000000000004E-002    0.19093711674213409     
   7.6499999999999999E-002    0.37749186158180237     
   7.6800000000000007E-002    0.55380815267562866     
   7.7099999999999988E-002    0.71297353506088257     
   7.7399999999999997E-002    0.85101801156997681     
   7.7700000000000005E-002    0.96676659584045410     
   7.8000000000000014E-002     1.0620774030685425     
   7.8299999999999995E-002     1.1406036615371704     
   7.8600000000000003E-002     1.2077627182006836     
   7.8900000000000012E-002     1.2692199945449829     
   7.9199999999999993E-002     1.3302780389785767     
   7.9500000000000001E-002     1.3949755430221558     
   7.9800000000000010E-002     1.4655358791351318     
   8.0100000000000018E-002     1.5418773889541626     
   8.0399999999999999E-002     1.6217414140701294     
   8.0700000000000008E-002     1.7004151344299316     
   8.1000000000000003E-002     1.7715368270874023     
   8.1299999999999997E-002     1.8272464275360107     
   8.1600000000000006E-002     1.8587981462478638     
   8.1900000000000014E-002     1.8577362298965454     
   8.2199999999999995E-002     1.8159558773040771     
   8.2500000000000004E-002     1.7269004583358765     
   8.2799999999999999E-002     1.5858521461486816     
   8.3100000000000007E-002     1.3907392024993896     
   8.3400000000000002E-002     1.1425151824951172     
   8.3700000000000011E-002    0.84538382291793823     
   8.4000000000000005E-002    0.50715774297714233     
   8.4300000000000000E-002    0.13896638154983521     
   8.4599999999999995E-002   -0.24479654431343079     
   8.4900000000000003E-002   -0.62745058536529541     
   8.5199999999999998E-002   -0.99047750234603882     
   8.5500000000000007E-002    -1.3150967359542847     
   8.5800000000000001E-002    -1.5833352804183960     
   8.6100000000000010E-002    -1.7793968915939331     
   8.6399999999999991E-002    -1.8919748067855835     
   8.6699999999999999E-002    -1.9141945838928223     
   8.7000000000000008E-002    -1.8461928367614746     
   8.7300000000000003E-002    -1.6942517757415771     
   8.7599999999999997E-002    -1.4719880819320679     
   8.7900000000000006E-002    -1.1986633539199829     
   8.8200000000000014E-002   -0.89882349967956543     
   8.8499999999999995E-002   -0.59951961040496826     
   8.8800000000000004E-002   -0.32893407344818115     
   8.9100000000000013E-002   -0.11306036263704300     
   8.9399999999999993E-002     2.6539767161011696E-002
   8.9700000000000002E-002     7.4632257223129272E-002
   9.0000000000000011E-002     2.4615325033664703E-002
   9.0299999999999991E-002   -0.12120180577039719     
   9.0600000000000000E-002   -0.35046723484992981     
   9.0900000000000009E-002   -0.64270371198654175     
   9.1200000000000017E-002   -0.96992719173431396     
   9.1499999999999998E-002    -1.2997453212738037     
   9.1800000000000007E-002    -1.5972793102264404     
   9.2100000000000001E-002    -1.8293279409408569     
   9.2399999999999996E-002    -1.9660148620605469     
   9.2700000000000005E-002    -1.9845734834671021     
   9.3000000000000013E-002    -1.8704777956008911     
   9.3300000000000008E-002    -1.6191629171371460     
   9.3600000000000003E-002    -1.2362380027770996     
   9.3899999999999997E-002   -0.73690050840377808     
   9.4200000000000006E-002   -0.14492551982402802     
   9.4500000000000001E-002    0.50943225622177124     
   9.4800000000000009E-002     1.1917393207550049     
   9.5100000000000004E-002     1.8654603958129883     
   9.5399999999999999E-002     2.4949188232421875     
   9.5699999999999993E-002     3.0468699932098389     
   9.6000000000000002E-002     3.4930331707000732     
   9.6300000000000011E-002     3.8105010986328125     
   9.6600000000000005E-002     3.9834244251251221     
   9.6900000000000000E-002     4.0029129981994629     
   9.7200000000000009E-002     3.8668644428253174     
   9.7499999999999989E-002     3.5804915428161621     
   9.7799999999999998E-002     3.1540141105651855     
   9.8100000000000007E-002     2.6040716171264648     
   9.8400000000000015E-002     1.9506211280822754     
   9.8699999999999996E-002     1.2178499698638916     
   9.9000000000000005E-002    0.43172326683998108     
   9.9300000000000013E-002   -0.38021984696388245     
   9.9599999999999994E-002    -1.1899595260620117     
   9.9900000000000003E-002    -1.9706363677978516     
  0.10020000000000001         -2.6965727806091309     
  0.10049999999999999         -3.3456737995147705     
  0.10080000000000000         -3.8984937667846680     
  0.10110000000000001         -4.3402185440063477     
  0.10140000000000000         -4.6604189872741699     
  0.10170000000000000         -4.8535971641540527     
  0.10200000000000001         -4.9188446998596191     
  0.10230000000000002         -4.8594212532043457     
  0.10260000000000000         -4.6828994750976562     
  0.10290000000000001         -4.3996534347534180     
  0.10320000000000000         -4.0228800773620605     
  0.10350000000000001         -3.5671739578247070     
  0.10380000000000000         -3.0483555793762207     
  0.10410000000000001         -2.4826781749725342     
  0.10440000000000001         -1.8854948282241821     
  0.10470000000000000         -1.2719465494155884     
  0.10500000000000000        -0.65588009357452393     
  0.10530000000000000         -4.9369066953659058E-002
  0.10560000000000000         0.53619825839996338     
  0.10590000000000001          1.0918215513229370     
  0.10620000000000000          1.6089036464691162     
  0.10650000000000001          2.0810391902923584     
  0.10679999999999999          2.5018932819366455     
  0.10710000000000000          2.8667666912078857     
  0.10740000000000001          3.1710340976715088     
  0.10770000000000000          3.4107508659362793     
  0.10800000000000000          3.5826754570007324     
  0.10830000000000001          3.6836533546447754     
  0.10859999999999999          3.7125027179718018     
  0.10890000000000000          3.6679830551147461     
  0.10920000000000001          3.5515546798706055     
  0.10950000000000001          3.3655321598052979     
  0.10979999999999999          3.1155238151550293     
  0.11009999999999999          2.8087425231933594     
  0.11040000000000001          2.4552869796752930     
  0.11070000000000001          2.0665869712829590     
  0.11100000000000000          1.6561344861984253     
  0.11130000000000000          1.2374372482299805     
  0.11160000000000002         0.82461780309677124     
  0.11190000000000001         0.42999640107154846     
  0.11220000000000001          6.4163208007812500E-002
  0.11250000000000000        -0.26512199640274048     
  0.11280000000000000        -0.55340403318405151     
  0.11309999999999999        -0.79912197589874268     
  0.11340000000000001         -1.0049726963043213     
  0.11369999999999998         -1.1750203371047974     
  0.11400000000000000         -1.3174376487731934     
  0.11430000000000000         -1.4392054080963135     
  0.11460000000000002         -1.5497792959213257     
  0.11489999999999999         -1.6560333967208862     
  0.11520000000000001         -1.7645442485809326     
  0.11550000000000001         -1.8788408041000366     
  0.11580000000000000         -2.0000336170196533     
  0.11609999999999999         -2.1263990402221680     
  0.11640000000000002         -2.2534234523773193     
  0.11670000000000001         -2.3744146823883057     
  0.11700000000000001         -2.4808077812194824     
  0.11730000000000000         -2.5631203651428223     
  0.11760000000000000         -2.6121339797973633     
  0.11789999999999999         -2.6188070774078369     
  0.11820000000000001         -2.5761747360229492     
  0.11850000000000001         -2.4793729782104492     
  0.11880000000000000         -2.3256666660308838     
  0.11910000000000000         -2.1161940097808838     
  0.11940000000000002         -1.8536696434020996     
  0.11970000000000001         -1.5448714494705200     
  0.12000000000000001         -1.1974079608917236     
  0.12030000000000000        -0.82180160284042358     
  0.12060000000000000        -0.42802608013153076     
  0.12089999999999999         -2.7431160211563110E-002
  0.12119999999999999         0.37069162726402283     
  0.12150000000000001         0.75697278976440430     
  0.12180000000000001          1.1250098943710327     
  0.12210000000000000          1.4696073532104492     
  0.12239999999999999          1.7880709171295166     
  0.12270000000000002          2.0794484615325928     
  0.12300000000000001          2.3440985679626465     
  0.12330000000000001          2.5832905769348145     
  0.12360000000000000          2.7982542514801025     
  0.12390000000000000          2.9905426502227783     
  0.12419999999999999          3.1599147319793701     
  0.12450000000000001          3.3062689304351807     
  0.12480000000000001          3.4272561073303223     
  0.12509999999999999          3.5205023288726807     
  0.12540000000000001          3.5829384326934814     
  0.12570000000000003          3.6107962131500244     
  0.12600000000000000          3.6015391349792480     
  0.12630000000000002          3.5520107746124268     
  0.12659999999999999          3.4610567092895508     
  0.12690000000000001          3.3262696266174316     
  0.12719999999999998          3.1464874744415283     
  0.12750000000000000          2.9195280075073242     
  0.12780000000000002          2.6428866386413574     
  0.12809999999999999          2.3137369155883789     
  0.12840000000000001          1.9281344413757324     
  0.12869999999999998          1.4852688312530518     
  0.12900000000000000         0.98441767692565918     
  0.12930000000000003         0.43258634209632874     
  0.12959999999999999        -0.15836505591869354     
  0.12990000000000002        -0.76627928018569946     
  0.13019999999999998         -1.3592914342880249     
  0.13050000000000000         -1.8963379859924316     
  0.13080000000000003         -2.3276114463806152     
  0.13109999999999999         -2.6010060310363770     
  0.13140000000000002         -2.6641812324523926     
  0.13169999999999998         -2.4758245944976807     
  0.13200000000000001         -2.0097084045410156     
  0.13229999999999997         -1.2640492916107178     
  0.13260000000000000        -0.26697662472724915     
  0.13290000000000002         0.92112773656845093     
  0.13319999999999999          2.2056798934936523     
  0.13350000000000001          3.4651627540588379     
  0.13380000000000003          4.5568056106567383     
  0.13410000000000000          5.3306579589843750     
  0.13440000000000002          5.6438403129577637     
  0.13469999999999999          5.3759822845458984     
  0.13500000000000001          4.4475097656250000     
  0.13529999999999998          2.8288486003875732     
  0.13560000000000000         0.55448013544082642     
  0.13590000000000002         -2.2783424854278564     
  0.13619999999999999         -5.5087032318115234     
  0.13650000000000001         -8.9241380691528320     
  0.13680000000000003         -12.275306701660156     
  0.13710000000000000         -15.295530319213867     
  0.13740000000000002         -17.726121902465820     
  0.13769999999999999         -19.337541580200195     
  0.13800000000000001         -19.952747344970703     
  0.13829999999999998         -19.463943481445312     
  0.13860000000000000         -17.843572616577148     
  0.13890000000000002         -15.149559020996094     
  0.13919999999999999         -11.519811630249023     
  0.13950000000000001         -7.1639766693115234     
  0.13979999999999998         -2.3430171012878418     
  0.14010000000000000          2.6480071544647217     
  0.14040000000000002          7.5068416595458984     
  0.14069999999999999          11.945137023925781     
  0.14100000000000001          15.708915710449219     
  0.14130000000000004          18.597724914550781     
  0.14160000000000000          20.471761703491211     
  0.14189999999999997          21.262351989746094     
  0.14219999999999999          20.966779708862305     
  0.14250000000000002          19.646942138671875     
  0.14279999999999998          17.417045593261719     
  0.14310000000000000          14.433094024658203     
  0.14339999999999997          10.879713058471680     
  0.14369999999999999          6.9557790756225586     
  0.14400000000000002          2.8627762794494629     
  0.14429999999999998         -1.2055313587188721     
  0.14460000000000001         -5.0722823143005371     
  0.14490000000000003         -8.5824089050292969     
  0.14520000000000000         -11.608517646789551     
  0.14550000000000002         -14.050043106079102     
  0.14579999999999999         -15.838111877441406     
  0.14610000000000001         -16.929687500000000     
  0.14640000000000003         -17.311227798461914     
  0.14670000000000000         -16.993877410888672     
  0.14699999999999996         -16.011312484741211     
  0.14729999999999999         -14.419243812561035     
  0.14760000000000001         -12.288790702819824     
  0.14789999999999998         -9.7077913284301758     
  0.14820000000000000         -6.7737364768981934     