  -1.4999999999999999E-002     0.0000000000000000     
  -1.4700000000000000E-002     0.0000000000000000     
  -1.4400000000000000E-002     0.0000000000000000     
  -1.4100000000000000E-002     0.0000000000000000     
  -1.3800000000000000E-002     0.0000000000000000     
  -1.3500000000000000E-002     0.0000000000000000     
  -1.3200000000000000E-002     0.0000000000000000     
  -1.2899999999999998E-002     0.0000000000000000     
  -1.2600000000000000E-002     0.0000000000000000     
  -1.2299999999999998E-002     0.0000000000000000     
  -1.2000000000000000E-002     0.0000000000000000     
  -1.1699999999999999E-002     0.0000000000000000     
  -1.1399999999999999E-002     0.0000000000000000     
  -1.1099999999999999E-002     0.0000000000000000     
  -1.0799999999999999E-002     0.0000000000000000     
  -1.0499999999999999E-002     0.0000000000000000     
  -1.0199999999999999E-002     0.0000000000000000     
  -9.8999999999999991E-003     0.0000000000000000     
  -9.5999999999999992E-003     0.0000000000000000     
  -9.2999999999999992E-003     0.0000000000000000     
  -8.9999999999999993E-003     0.0000000000000000     
  -8.6999999999999994E-003     0.0000000000000000     
  -8.3999999999999995E-003     0.0000000000000000     
  -8.0999999999999996E-003     0.0000000000000000     
  -7.7999999999999988E-003     0.0000000000000000     
  -7.4999999999999997E-003     0.0000000000000000     
  -7.1999999999999998E-003     0.0000000000000000     
  -6.8999999999999981E-003     0.0000000000000000     
  -6.5999999999999982E-003     0.0000000000000000     
  -6.3000000000000000E-003     0.0000000000000000     
  -6.0000000000000001E-003     0.0000000000000000     
  -5.6999999999999985E-003     0.0000000000000000     
  -5.3999999999999986E-003     0.0000000000000000     
  -5.1000000000000004E-003     0.0000000000000000     
  -4.7999999999999987E-003     0.0000000000000000     
  -4.5000000000000005E-003     0.0000000000000000     
  -4.1999999999999989E-003     0.0000000000000000     
  -3.8999999999999990E-003     0.0000000000000000     
  -3.5999999999999990E-003     0.0000000000000000     
  -3.2999999999999991E-003     0.0000000000000000     
  -2.9999999999999992E-003     0.0000000000000000     
  -2.6999999999999993E-003     0.0000000000000000     
  -2.3999999999999994E-003     0.0000000000000000     
  -2.0999999999999977E-003     0.0000000000000000     
  -1.7999999999999995E-003     0.0000000000000000     
  -1.4999999999999979E-003     0.0000000000000000     
  -1.1999999999999997E-003     0.0000000000000000     
  -8.9999999999999976E-004     0.0000000000000000     
  -5.9999999999999810E-004     0.0000000000000000     
  -2.9999999999999992E-004     0.0000000000000000     
   0.0000000000000000          0.0000000000000000     
   3.0000000000000165E-004     0.0000000000000000     
   5.9999999999999984E-004     0.0000000000000000     
   9.0000000000000149E-004     0.0000000000000000     
   1.2000000000000031E-003     0.0000000000000000     
   1.5000000000000013E-003     0.0000000000000000     
   1.8000000000000030E-003     0.0000000000000000     
   2.1000000000000012E-003     0.0000000000000000     
   2.3999999999999994E-003     0.0000000000000000     
   2.7000000000000010E-003     0.0000000000000000     
   2.9999999999999992E-003     0.0000000000000000     
   3.3000000000000008E-003     0.0000000000000000     
   3.6000000000000025E-003     0.0000000000000000     
   3.9000000000000007E-003     0.0000000000000000     
   4.2000000000000023E-003     0.0000000000000000     
   4.5000000000000005E-003     0.0000000000000000     
   4.7999999999999987E-003     0.0000000000000000     
   5.1000000000000004E-003     0.0000000000000000     
   5.4000000000000020E-003     0.0000000000000000     
   5.7000000000000037E-003     0.0000000000000000     
   5.9999999999999984E-003     0.0000000000000000     
   6.3000000000000000E-003     0.0000000000000000     
   6.6000000000000017E-003     0.0000000000000000     
   6.9000000000000034E-003     0.0000000000000000     
   7.2000000000000015E-003     0.0000000000000000     
   7.5000000000000032E-003     0.0000000000000000     
   7.8000000000000014E-003     0.0000000000000000     
   8.0999999999999996E-003     0.0000000000000000     
   8.4000000000000012E-003     0.0000000000000000     
   8.7000000000000029E-003     0.0000000000000000     
   9.0000000000000011E-003     0.0000000000000000     
   9.2999999999999992E-003     0.0000000000000000     
   9.6000000000000009E-003     0.0000000000000000     
   9.8999999999999991E-003     0.0000000000000000     
   1.0200000000000001E-002     0.0000000000000000     
   1.0500000000000002E-002     0.0000000000000000     
   1.0800000000000004E-002     0.0000000000000000     
   1.1099999999999999E-002     0.0000000000000000     
   1.1400000000000000E-002     0.0000000000000000     
   1.1700000000000002E-002     0.0000000000000000     
   1.2000000000000004E-002     0.0000000000000000     
   1.2300000000000002E-002     0.0000000000000000     
   1.2600000000000000E-002     0.0000000000000000     
   1.2900000000000002E-002     0.0000000000000000     
   1.3200000000000000E-002     0.0000000000000000     
   1.3500000000000002E-002     0.0000000000000000     
   1.3800000000000003E-002     0.0000000000000000     
   1.4100000000000001E-002     0.0000000000000000     
   1.4400000000000000E-002     0.0000000000000000     
   1.4700000000000001E-002     0.0000000000000000     
   1.4999999999999999E-002     0.0000000000000000     
   1.5300000000000001E-002     0.0000000000000000     
   1.5600000000000003E-002     0.0000000000000000     
   1.5899999999999997E-002     0.0000000000000000     
   1.6199999999999999E-002     0.0000000000000000     
   1.6500000000000001E-002     0.0000000000000000     
   1.6800000000000002E-002     0.0000000000000000     
   1.7100000000000004E-002     0.0000000000000000     
   1.7400000000000006E-002     0.0000000000000000     
   1.7700000000000000E-002     0.0000000000000000     
   1.8000000000000002E-002     0.0000000000000000     
   1.8300000000000004E-002     0.0000000000000000     
   1.8600000000000005E-002     0.0000000000000000     
   1.8900000000000000E-002     0.0000000000000000     
   1.9200000000000002E-002     0.0000000000000000     
   1.9500000000000003E-002     0.0000000000000000     
   1.9799999999999998E-002     0.0000000000000000     
   2.0100000000000000E-002     0.0000000000000000     
   2.0400000000000001E-002     0.0000000000000000     
   2.0700000000000003E-002     0.0000000000000000     
   2.0999999999999998E-002     0.0000000000000000     
   2.1299999999999999E-002     0.0000000000000000     
   2.1600000000000001E-002     0.0000000000000000     
   2.1900000000000003E-002     0.0000000000000000     
   2.2200000000000004E-002     0.0000000000000000     
   2.2500000000000006E-002     0.0000000000000000     
   2.2800000000000001E-002     0.0000000000000000     
   2.3100000000000002E-002     0.0000000000000000     
   2.3400000000000004E-002     0.0000000000000000     
   2.3699999999999999E-002     0.0000000000000000     
   2.4000000000000000E-002     0.0000000000000000     
   2.4300000000000002E-002     0.0000000000000000     
   2.4599999999999997E-002     0.0000000000000000     
   2.4900000000000005E-002     0.0000000000000000     
   2.5200000000000000E-002     0.0000000000000000     
   2.5499999999999995E-002     0.0000000000000000     
   2.5800000000000003E-002     0.0000000000000000     
   2.6099999999999998E-002     0.0000000000000000     
   2.6400000000000007E-002     0.0000000000000000     
   2.6700000000000002E-002     0.0000000000000000     
   2.6999999999999996E-002     0.0000000000000000     
   2.7300000000000005E-002     0.0000000000000000     
   2.7600000000000000E-002     4.2611886017271428E-037
   2.7900000000000008E-002    -1.1255177417413751E-036
   2.8200000000000003E-002    -4.4201774031522008E-038
   2.8499999999999998E-002     6.1163987474726761E-036
   2.8800000000000006E-002    -2.3820414756140130E-035
   2.9100000000000001E-002     6.2896583960355833E-035
   2.9400000000000003E-002    -8.5204933456769198E-035
   2.9700000000000004E-002    -1.0209687138164554E-034
   3.0000000000000006E-002     3.2678674049389061E-035
   3.0300000000000001E-002    -9.5386257901278908E-034
   3.0600000000000002E-002     4.4016661122492412E-033
   3.0900000000000004E-002    -6.1868908266211225E-033
   3.1199999999999999E-002     3.1782700606352514E-033
   3.1500000000000007E-002     3.9357323413680109E-033
   3.1800000000000002E-002    -9.6401480032640191E-032
   3.2099999999999997E-002     9.0080647281564970E-031
   3.2400000000000005E-002    -5.5368738784002834E-030
   3.2700000000000000E-002     2.6998324369134297E-029
   3.3000000000000002E-002    -1.1276681083397047E-028
   3.3300000000000003E-002     4.0858711384661282E-028
   3.3599999999999998E-002    -1.2145299972231498E-027
   3.3900000000000000E-002     2.3304867008005682E-027
   3.4200000000000001E-002     2.2209922981819002E-027
   3.4500000000000003E-002    -4.8242500786786199E-026
   3.4799999999999998E-002     2.7489807399348800E-025
   3.5099999999999999E-002    -1.0435792957097950E-024
   3.5400000000000001E-002     2.7289685247419813E-024
   3.5699999999999996E-002    -3.3495253009270875E-024
   3.6000000000000004E-002    -1.1111007816030754E-023
   3.6299999999999999E-002     9.0652273676481732E-023
   3.6600000000000008E-002    -3.4562643806389311E-022
   3.6900000000000002E-002     8.4826146261155680E-022
   3.7199999999999997E-002    -9.5275823553110235E-022
   3.7500000000000006E-002    -3.1525950539840203E-021
   3.7800000000000000E-002     2.4803423990755782E-020
   3.8100000000000009E-002    -9.8275470515777868E-020
   3.8400000000000004E-002     2.8313782529774727E-019
   3.8699999999999998E-002    -5.9014141950191170E-019
   3.9000000000000007E-002     5.8311665969252043E-019
   3.9300000000000002E-002     1.8852734648669580E-018
   3.9600000000000003E-002    -1.3188371042161180E-017
   3.9900000000000005E-002     4.4988368294332460E-017
   4.0200000000000000E-002    -9.9873353255919919E-017
   4.0500000000000001E-002     1.0687961257096725E-016
   4.0800000000000003E-002     2.2471432901974947E-016
   4.1100000000000005E-002    -1.5136409967414859E-015
   4.1399999999999999E-002     4.1604130268708613E-015
   4.1700000000000008E-002    -5.8388485213100101E-015
   4.2000000000000003E-002    -3.5055297765457525E-015
   4.2299999999999997E-002     4.3368046102757155E-014
   4.2600000000000006E-002    -1.2106629492809188E-013
   4.2900000000000001E-002     1.5934247198104166E-013
   4.3200000000000002E-002     1.0477061849417452E-013
   4.3500000000000004E-002    -1.0705740117799941E-012
   4.3799999999999999E-002     2.7389729352309625E-012
   4.4100000000000000E-002    -3.6275001455582123E-012
   4.4400000000000002E-002    -5.0610172724946378E-015
   4.4700000000000004E-002     1.3810023156447664E-011
   4.4999999999999998E-002    -4.7108059665193371E-011
   4.5300000000000000E-002     1.1953851835150577E-010
   4.5600000000000002E-002    -2.2518360546453561E-010
   4.5899999999999996E-002     6.9482277341302416E-011
   4.6200000000000005E-002     1.5245750339161081E-009
   4.6500000000000000E-002    -6.1371826609025946E-009
   4.6799999999999994E-002     9.0939767022038203E-009
   4.7100000000000003E-002     1.6051970563209757E-008
   4.7399999999999998E-002    -1.0496227881776702E-007
   4.7700000000000006E-002     1.3643698688634014E-007
   4.8000000000000001E-002     3.8564112004477781E-007
   4.8300000000000010E-002    -1.7175605826392319E-006
   4.8600000000000004E-002     2.0881501016776127E-007
   4.8899999999999999E-002     2.1932014597678182E-005
   4.9200000000000008E-002     5.2377845379822504E-005
   4.9500000000000002E-002     6.0577089367295058E-005
   4.9800000000000011E-002     6.8789229723660540E-005
   5.0100000000000006E-002     1.1449126082094816E-004
   5.0400000000000000E-002     1.7191148947155732E-004
   5.0700000000000009E-002     2.4742322582805513E-004
   5.1000000000000004E-002     3.8592492270185866E-004
   5.1299999999999998E-002     5.6415744932446048E-004
   5.1600000000000007E-002     7.9716612858256319E-004
   5.1900000000000002E-002     1.1566260414536053E-003
   5.2200000000000010E-002     1.6383780699178105E-003
   5.2500000000000005E-002     2.2514282082751122E-003
   5.2800000000000000E-002     3.0710994126097318E-003
   5.3099999999999994E-002     4.1110007207210142E-003
   5.3400000000000003E-002     5.3431016889261829E-003
   5.3699999999999998E-002     6.7846725316410561E-003
   5.4000000000000006E-002     8.4081045477993610E-003
   5.4300000000000001E-002     1.0102702421853127E-002
   5.4599999999999996E-002     1.1691539127927475E-002
   5.4900000000000004E-002     1.2902725756378797E-002
   5.5199999999999999E-002     1.3414366927167631E-002
   5.5499999999999994E-002     1.2715783596800201E-002
   5.5800000000000002E-002     1.0098838254049503E-002
   5.6099999999999997E-002     4.8415430171219465E-003
   5.6400000000000006E-002    -3.9271125893549086E-003
   5.6700000000000000E-002    -1.7221113875763097E-002
   5.6999999999999995E-002    -3.5980674492342268E-002
   5.7300000000000004E-002    -6.1015681814215239E-002
   5.7599999999999998E-002    -9.2929629785482470E-002
   5.7900000000000007E-002   -0.13186514171743591     
   5.8200000000000002E-002   -0.17734283373231152     
   5.8499999999999996E-002   -0.22815392016282932     
   5.8800000000000005E-002   -0.28206065856299833     
   5.9100000000000000E-002   -0.33575062776341902     
   5.9400000000000008E-002   -0.38490083393855912     
   5.9700000000000003E-002   -0.42413915881986952     
   6.0000000000000012E-002   -0.44725993970650713     
   6.0300000000000006E-002   -0.44760592131205712     
   6.0600000000000001E-002   -0.41862140348150234     
   6.0900000000000010E-002   -0.35440431597518973     
   6.1200000000000004E-002   -0.25037366236899672     
   6.1500000000000013E-002   -0.10408304748706065     
   6.1800000000000008E-002     8.4145646608220659E-002
   6.2100000000000002E-002    0.31069948806976355     
   6.2399999999999997E-002    0.56830267066930151     
   6.2700000000000006E-002    0.84605075430498644     
   6.3000000000000000E-002     1.1296829557632115     
   6.3300000000000009E-002     1.4022053914335686     
   6.3600000000000004E-002     1.6449835207959183     
   6.3899999999999998E-002     1.8389929507724432     
   6.4199999999999993E-002     1.9662220042125824     
   6.4500000000000002E-002     2.0113154404403630     
   6.4800000000000010E-002     1.9629866919626764     
   6.5100000000000005E-002     1.8152121853255210     
   6.5400000000000000E-002     1.5681290657331104     
   6.5700000000000008E-002     1.2284015426692036     
   6.5999999999999989E-002    0.80902393482829282     
   6.6299999999999998E-002    0.32877859000928034     
   6.6600000000000006E-002   -0.18885456893691988     
   6.6900000000000001E-002   -0.71743231987911926     
   6.7199999999999996E-002    -1.2291612167342443     
   6.7500000000000004E-002    -1.6969287281872596     
   6.7800000000000013E-002    -2.0962305000709094     
   6.8099999999999994E-002    -2.4064842860714322     
   6.8400000000000002E-002    -2.6125898419693669     
   6.8700000000000011E-002    -2.7060816169299358     
   6.8999999999999992E-002    -2.6852213361820958     
   6.9300000000000000E-002    -2.5550888980953772     
   6.9600000000000009E-002    -2.3269726668467001     
   6.9900000000000004E-002    -2.0175665623375707     
   7.0199999999999999E-002    -1.6477666640346982     
   7.0500000000000007E-002    -1.2411438171795552     
   7.0800000000000016E-002   -0.82221372347687449     
   7.1099999999999997E-002   -0.41490275509746155     
   7.1400000000000005E-002    -4.1200038744410916E-002
   7.1700000000000000E-002    0.28029565707426407     
   7.1999999999999995E-002    0.53554408909555384     
   7.2300000000000003E-002    0.71573506700653766     
   7.2600000000000012E-002    0.81760824534360310     
   7.2900000000000006E-002    0.84316417317430492     
   7.3200000000000001E-002    0.79953587581313457     
   7.3499999999999996E-002    0.69837789427519326     
   7.3800000000000004E-002    0.55436272884685067     
   7.4099999999999999E-002    0.38406304671104508     
   7.4400000000000008E-002    0.20485974806055918     
   7.4700000000000003E-002     3.3392741862973307E-002
   7.5000000000000011E-002   -0.11536792638732374     
   7.5299999999999992E-002   -0.22912604856391150     
   7.5600000000000001E-002   -0.29908071618062149     
   7.5900000000000009E-002   -0.32014303857973125     
   7.6200000000000004E-002   -0.29085688177681135     
   7.6499999999999999E-002   -0.21314970178779635     
   7.6800000000000007E-002    -9.1999996678443718E-002
   7.7099999999999988E-002     6.5186313583641020E-002
   7.7399999999999997E-002    0.24940902192757086     
   7.7700000000000005E-002    0.45074543958481073     
   7.8000000000000014E-002    0.65895310092411563     
   7.8299999999999995E-002    0.86388452541766725     
   7.8600000000000003E-002     1.0559320885680954     
   7.8900000000000012E-002     1.2265007892894459     
   7.9199999999999993E-002     1.3680167655171971     
   7.9500000000000001E-002     1.4741016726869631     
   7.9800000000000010E-002     1.5396265223894758     
   8.0100000000000018E-002     1.5607919938510904     
   8.0399999999999999E-002     1.5355036561348783     
   8.0700000000000008E-002     1.4633930711347745     
   8.1000000000000003E-002     1.3457144631329570     
   8.1299999999999997E-002     1.1856799870879655     
   8.1600000000000006E-002    0.98862711990496166     
   8.1900000000000014E-002    0.76215905296498576     
   8.2199999999999995E-002    0.51556046794799215     
   8.2500000000000004E-002    0.25935268016613300     
   8.2799999999999999E-002     5.2525177060014361E-003
   8.3100000000000007E-002   -0.23460410712187141     
   8.3400000000000002E-002   -0.44855603917803322     
   8.3700000000000011E-002   -0.62656289412716504     
   8.4000000000000005E-002   -0.76099530390445480     
   8.4300000000000000E-002   -0.84696914658078626     
   8.4599999999999995E-002   -0.88304846588932051     
   8.4900000000000003E-002   -0.87176941294906740     
   8.5199999999999998E-002   -0.81963124834576462     
   8.5500000000000007E-002   -0.73624233513234572     
   8.5800000000000001E-002   -0.63358810439066104     
   8.6100000000000010E-002   -0.52526793467580291     
   8.6399999999999991E-002   -0.42510389113879476     
   8.6699999999999999E-002   -0.34590428823243080     
   8.7000000000000008E-002   -0.29801168368965314     
   8.7300000000000003E-002   -0.28824899370194856     
   8.7599999999999997E-002   -0.31960542219205568     
   8.7900000000000006E-002   -0.39056169989388767     
   8.8200000000000014E-002   -0.49533311814029091     
   8.8499999999999995E-002   -0.62448843209902272     
   8.8800000000000004E-002   -0.76574495363011508     
   8.9100000000000013E-002   -0.90518816871207619     
   8.9399999999999993E-002    -1.0287746999293965     
   8.9700000000000002E-002    -1.1236121422012886     
   9.0000000000000011E-002    -1.1790420118244640     
   9.0299999999999991E-002    -1.1873827972565181     
   9.0600000000000000E-002    -1.1445712189777453     
   9.0900000000000009E-002    -1.0505554882557817     
   9.1200000000000017E-002   -0.90876016378062019     
   9.1499999999999998E-002   -0.72535085125514343     
   9.1800000000000007E-002   -0.50851649014019706     
   9.2100000000000001E-002   -0.26768424837487714     
   9.2399999999999996E-002    -1.2432656530388053E-002
   9.2700000000000005E-002    0.24805058508063293     
   9.3000000000000013E-002    0.50594649252163659     
   9.3300000000000008E-002    0.75508263794742092     
   9.3600000000000003E-002    0.99008318804733975     
   9.3899999999999997E-002     1.2066769883680060     
   9.4200000000000006E-002     1.4014383355342055     
   9.4500000000000001E-002     1.5709955350342426     
   9.4800000000000009E-002     1.7113272565231270     
   9.5100000000000004E-002     1.8173373446708254     
   9.5399999999999999E-002     1.8831475745762631     
   9.5699999999999993E-002     1.9025199474417391     
   9.6000000000000002E-002     1.8689052292631771     
   9.6300000000000011E-002     1.7759833934965386     
   9.6600000000000005E-002     1.6193647374230196     
   9.6900000000000000E-002     1.3972156380566148     
   9.7200000000000009E-002     1.1111308353326947     
   9.7499999999999989E-002    0.76712742370062514     
   9.7799999999999998E-002    0.37524416071264888     
   9.8100000000000007E-002    -4.9943635921090745E-002
   9.8400000000000015E-002   -0.49007998923677221     
   9.8699999999999996E-002   -0.92425506902088839     
   9.9000000000000005E-002    -1.3301971295509336     
   9.9300000000000013E-002    -1.6859605174996446     
   9.9599999999999994E-002    -1.9717326871223264     
   9.9900000000000003E-002    -2.1712405082948578     
  0.10020000000000001         -2.2727507311829385     
  0.10049999999999999         -2.2703392865043952     
  0.10080000000000000         -2.1644205684363840     
  0.10110000000000001         -1.9612699914457394     
  0.10140000000000000         -1.6726299058786083     
  0.10170000000000000         -1.3144578791193311     
  0.10200000000000001        -0.90612046001898250     
  0.10230000000000002        -0.46903591019649404     
  0.10260000000000000         -2.4636774955415053E-002
  0.10290000000000001         0.40648231647074340     
  0.10320000000000000         0.80568283580593647     
  0.10350000000000001          1.1569385606626845     
  0.10380000000000000          1.4476987797302527     
  0.10410000000000001          1.6690379802240187     
  0.10440000000000001          1.8154747205710819     
  0.10470000000000000          1.8846733099367441     
  0.10500000000000000          1.8775960553351467     
  0.10530000000000000          1.7980510316143281     
  0.10560000000000000          1.6521713206185140     
  0.10590000000000001          1.4482219213510632     
  0.10620000000000000          1.1961988169523323     
  0.10650000000000001         0.90801101642225390     
  0.10679999999999999         0.59696303130647799     
  0.10710000000000000         0.27710569278843522     
  0.10740000000000001         -3.7230365432597168E-002
  0.10770000000000000        -0.33170887313588260     
  0.10800000000000000        -0.59278847689956748     
  0.10830000000000001        -0.80876855229340272     
  0.10859999999999999        -0.97066042236200722     
  0.10890000000000000         -1.0727534500565064     
  0.10920000000000001         -1.1130070300071466     
  0.10950000000000001         -1.0935863106608466     
  0.10979999999999999         -1.0207970634345180     
  0.11009999999999999        -0.90446799629061303     
  0.11040000000000001        -0.75720072126365778     
  0.11070000000000001        -0.59330386164872806     
  0.11100000000000000        -0.42747195922678216     
  0.11130000000000000        -0.27382930853773058     
  0.11160000000000002        -0.14418436029462001     
  0.11190000000000001         -4.7386022150728624E-002
  0.11220000000000001          1.1115080547734579E-002
  0.11250000000000000          2.9657554838317557E-002
  0.11280000000000000          1.0150350263602947E-002
  0.11309999999999999         -4.2632658048683769E-002
  0.11340000000000001        -0.12205458333610530     
  0.11369999999999998        -0.22019089217140220     
  0.11400000000000000        -0.32926938542333506     
  0.11430000000000000        -0.44202582063107165     
  0.11460000000000002        -0.55244905490416585     
  0.11489999999999999        -0.65617002453700124     
  0.11520000000000001        -0.75006589465257534     
  0.11550000000000001        -0.83216424475324047     
  0.11580000000000000        -0.90097839290797310     
  0.11609999999999999        -0.95519193146900250     
  0.11640000000000002        -0.99291485775789567     
  0.11670000000000001         -1.0118095194844692     
  0.11700000000000001         -1.0085484755121890     
  0.11730000000000000        -0.97923307233322276     
  0.11760000000000000        -0.91984485096872959     
  0.11789999999999999        -0.82695980416833592     
  0.11820000000000001        -0.69820453555037787     
  0.11850000000000001        -0.53295974959484660     
  0.11880000000000000        -0.33260039696639332     
  0.11910000000000000        -0.10126382673611833     
  0.11940000000000002         0.15408936031760767     
  0.11970000000000001         0.42440504077360508     
  0.12000000000000001         0.69884745607396725     
  0.12030000000000000         0.96528915159121276     
  0.12060000000000000          1.2109277809294312     
  0.12089999999999999          1.4235938727668938     
  0.12119999999999999          1.5923219047383697     
  0.12150000000000001          1.7083331914201807     
  0.12180000000000001          1.7651216660781728     
  0.12210000000000000          1.7591904669750846     
  0.12239999999999999          1.6906917576970244     
  0.12270000000000002          1.5630590826132007     
  0.12300000000000001          1.3828595804963939     
  0.12330000000000001          1.1595857111258141     
  0.12360000000000000         0.90546826109423151     
  0.12390000000000000         0.63452027094619012     
  0.12419999999999999         0.36183226952292991     
  0.12450000000000001         0.10256267122814777     
  0.12480000000000001        -0.12858584304240583     
  0.12509999999999999        -0.31839334181332379     
  0.12540000000000001        -0.45627618093533884     
  0.12570000000000003        -0.53465589193998309     
  0.12600000000000000        -0.54988406241463395     
  0.12630000000000002        -0.50195998995813085     
  0.12659999999999999        -0.39472219449153201     
  0.12690000000000001        -0.23606088918977175     
  0.12719999999999998         -3.7147191534275370E-002
  0.12750000000000000         0.18851704800438540     
  0.12780000000000002         0.42583022949286731     
  0.12809999999999999         0.65880059596832607     
  0.12840000000000001         0.87161252194837679     
  0.12869999999999998          1.0495608249462336     
  0.12900000000000000          1.1800007760781845     
  0.12930000000000003          1.2527689860485793     
  0.12959999999999999          1.2608095928804985     
  0.12990000000000002          1.2007100825986541     
  0.13019999999999998          1.0726223998652173     
  0.13050000000000000         0.88058226775089210     
  0.13080000000000003         0.63217580761013892     
  0.13109999999999999         0.33840476369585115     
  0.13140000000000002          1.3124887921993178E-002
  0.13169999999999998        -0.32746572550204434     
  0.13200000000000001        -0.66584403276893145     
  0.13229999999999997        -0.98408899611949696     
  0.13260000000000000         -1.2647367680532469     
  0.13290000000000002         -1.4922435803919214     
  0.13319999999999999         -1.6536280714703082     
  0.13350000000000001         -1.7398426734952679     
  0.13380000000000003         -1.7462031888959544     
  0.13410000000000000         -1.6729312897614577     
  0.13440000000000002         -1.5249266124310168     
  0.13469999999999999         -1.3115520138649401     
  0.13500000000000001         -1.0457520405540670     
  0.13529999999999998        -0.74357201600014733     
  0.13560000000000000        -0.42240014312199214     
  0.13590000000000002         -9.9674073764573767E-002
  0.13619999999999999         0.20788858150880785     
  0.13650000000000001         0.48516695733984960     
  0.13680000000000003         0.71944503782337699     
  0.13710000000000000         0.90104418196254521     
  0.13740000000000002          1.0232242435350400     
  0.13769999999999999          1.0818866120078745     
  0.13800000000000001          1.0752053191600517     
  0.13829999999999998          1.0035898845053168     
  0.13860000000000000         0.86906098642989704     
  0.13890000000000002         0.67533838971646176     
  0.13919999999999999         0.42754231963642653     
  0.13950000000000001         0.13226768501409802     
  0.13979999999999998        -0.20197085293844275     
  0.14010000000000000        -0.56457313399348763     
  0.14040000000000002        -0.94279809990151708     
  0.14069999999999999         -1.3218669815016248     
  0.14100000000000001         -1.6848591086987845     
  0.14130000000000004         -2.0137012502123142     
  0.14160000000000000         -2.2897616213257095     
  0.14189999999999997         -2.4949711487697357     
  0.14219999999999999         -2.6131689973510106     
  0.14250000000000002         -2.6313019522199710     
  0.14279999999999998         -2.5407936028739897     
  0.14310000000000000         -2.3383273592956755     
  0.14339999999999997         -2.0266379952128233     
  0.14369999999999999         -1.6146597620057079     
  0.14400000000000002         -1.1174991765777982     
  0.14429999999999998        -0.55560786575560073     
  0.14460000000000001          4.6296428214146701E-002
  0.14490000000000003         0.66078904190174370     
  0.14520000000000000          1.2589795811972628     
  0.14550000000000002          1.8124526278398196     
  0.14579999999999999          2.2954385159622284     
  0.14610000000000001          2.6858312878868631     
  0.14640000000000003          2.9667226814803840     
  0.14670000000000000          3.1270036429616610     
  0.14699999999999996          3.1625588726775291     
  0.14729999999999999          3.0763423468869604     
  0.14760000000000001          2.8775083360374225     
  0.14789999999999998          2.5805502498248813     
  0.14820000000000000          2.2046947039640798     