  -1.4999999999999999E-002     0.0000000000000000     
  -1.4700000000000000E-002     0.0000000000000000     
  -1.4400000000000000E-002     0.0000000000000000     
  -1.4100000000000000E-002     2.5708700099643887E-034
  -1.3800000000000000E-002     8.1794845159163600E-032
  -1.3500000000000000E-002    -3.9539765313774417E-029
  -1.3200000000000000E-002    -5.0606022788884997E-028
  -1.2899999999999998E-002     3.1394886865845552E-026
  -1.2600000000000000E-002    -1.2482658870683301E-025
  -1.2299999999999998E-002    -1.6122532436779591E-024
  -1.2000000000000000E-002     8.8278677470627351E-024
  -1.1699999999999999E-002     1.6138297852132522E-023
  -1.1399999999999999E-002    -1.1383222840381253E-022
  -1.1099999999999999E-002    -2.1116170266621403E-022
  -1.0799999999999999E-002     1.0161462678954506E-021
  -1.0499999999999999E-002     1.7186643499759220E-021
  -1.0199999999999999E-002    -3.3717851178064425E-021
  -9.8999999999999991E-003    -1.7688562964221955E-020
  -9.5999999999999992E-003    -1.3098952753707195E-021
  -9.2999999999999992E-003     1.3065796904524050E-019
  -8.9999999999999993E-003     3.6574809524931593E-020
  -8.6999999999999994E-003    -4.3666697023390615E-019
  -8.3999999999999995E-003    -4.5642747066170344E-019
  -8.0999999999999996E-003     2.2224190490423514E-019
  -7.7999999999999988E-003     3.7892530464278710E-018
  -7.4999999999999997E-003     4.1169168712301509E-018
  -7.1999999999999998E-003    -2.0425927740390927E-017
  -6.8999999999999981E-003    -2.1312439119642569E-018
  -6.5999999999999982E-003     1.1835297567446863E-017
  -6.3000000000000000E-003     1.5686148866722219E-017
  -6.0000000000000001E-003     1.8910363482692036E-016
  -5.6999999999999985E-003    -3.1956328988597825E-016
  -5.3999999999999986E-003    -3.7855577232232797E-016
  -5.1000000000000004E-003     8.2730042062423330E-016
  -4.7999999999999987E-003    -8.2723125848975854E-016
  -4.5000000000000005E-003     1.9853397384422293E-015
  -4.1999999999999989E-003     2.1758017871631142E-015
  -3.8999999999999990E-003    -1.3529337981899567E-014
  -3.5999999999999990E-003     1.2760839065766988E-014
  -3.2999999999999991E-003     2.0244467360121170E-016
  -2.9999999999999992E-003    -2.2681646219151799E-014
  -2.6999999999999993E-003     9.1551514088193252E-014
  -2.3999999999999994E-003    -1.2088925015850028E-013
  -2.0999999999999977E-003    -3.5735015176894146E-014
  -1.7999999999999995E-003     2.6761331623135944E-013
  -1.4999999999999979E-003    -5.4405054837290928E-013
  -1.1999999999999997E-003     7.7543179202667914E-013
  -8.9999999999999976E-004    -2.2958235309702405E-014
  -5.9999999999999810E-004    -1.9513144313735775E-012
  -2.9999999999999992E-004     3.9971661810326046E-012
   0.0000000000000000         -4.9825143168552647E-012
   3.0000000000000165E-004     4.7666146305295342E-015
   5.9999999999999984E-004     1.6250720592823101E-011
   9.0000000000000149E-004    -3.2546204028761134E-011
   1.2000000000000031E-003     2.1700293029587754E-011
   1.5000000000000013E-003     4.0123241583966109E-011
   1.8000000000000030E-003    -1.3348034740176650E-010
   2.1000000000000012E-003     1.3495817857753170E-010
   2.3999999999999994E-003     9.0408011662770682E-011
   2.7000000000000010E-003    -4.1982200639952843E-010
   2.9999999999999992E-003     4.4150466251781686E-010
   3.3000000000000008E-003     1.4945585746661274E-010
   3.6000000000000025E-003    -1.0145796442010424E-009
   3.9000000000000007E-003     1.1062380072139677E-009
   4.2000000000000023E-003     2.1501873768267928E-010
   4.5000000000000005E-003    -1.9456731083387578E-009
   4.7999999999999987E-003     2.1696873406347250E-009
   5.1000000000000004E-003     2.0570077867288092E-011
   5.4000000000000020E-003    -3.2136640037331293E-009
   5.7000000000000037E-003     3.9256195623567402E-009
   5.9999999999999984E-003    -1.4741568682122258E-010
   6.3000000000000000E-003    -4.9383969079428166E-009
   6.6000000000000017E-003     5.6012998966886699E-009
   6.9000000000000034E-003    -1.5479436412647819E-010
   7.2000000000000015E-003    -6.2195591918674685E-009
   7.5000000000000032E-003     6.5807540404775527E-009
   7.8000000000000014E-003    -8.5965393915467001E-010
   8.0999999999999996E-003    -5.3272721607353669E-009
   8.4000000000000012E-003     8.2035999882133679E-009
   8.7000000000000029E-003    -5.0435880134526729E-009
   9.0000000000000011E-003    -4.3953957584679077E-009
   9.2999999999999992E-003     1.2511253595845687E-008
   9.6000000000000009E-003    -1.1177503583608824E-008
   9.8999999999999991E-003    -2.6342299454807867E-009
   1.0200000000000001E-002     2.2678044058694368E-008
   1.0500000000000002E-002    -2.0073997754183234E-008
   1.0800000000000004E-002    -1.5833601863101258E-008
   1.1099999999999999E-002     2.1541828048056447E-008
   1.1400000000000000E-002     4.1791285408945821E-009
   1.1700000000000002E-002     4.9312840944669894E-008
   1.2000000000000004E-002    -9.5258656482245625E-009
   1.2300000000000002E-002    -2.2654834168789853E-007
   1.2600000000000000E-002    -3.2211495240361870E-009
   1.2900000000000002E-002     8.2485595819488115E-007
   1.3200000000000000E-002     2.0324473699969540E-006
   1.3500000000000002E-002     3.9361307030044880E-006
   1.3800000000000003E-002     6.3643995452979650E-006
   1.4100000000000001E-002     8.2559875605969194E-006
   1.4400000000000000E-002     1.0796151931547783E-005
   1.4700000000000001E-002     2.0558102425494791E-005
   1.4999999999999999E-002     4.2990769184799750E-005
   1.5300000000000001E-002     7.0583536954665557E-005
   1.5600000000000003E-002     9.0629770456764416E-005
   1.5899999999999997E-002     1.0649473309097329E-004
   1.6199999999999999E-002     1.3501731673680158E-004
   1.6500000000000001E-002     1.8344396593201594E-004
   1.6800000000000002E-002     2.4010184514414428E-004
   1.7100000000000004E-002     2.9144887780860849E-004
   1.7400000000000006E-002     3.4617229234898753E-004
   1.7700000000000000E-002     4.1605868659050534E-004
   1.8000000000000002E-002     4.6151907455585419E-004
   1.8300000000000004E-002     3.9860218987552987E-004
   1.8600000000000005E-002     1.4911308975574557E-004
   1.8900000000000000E-002    -3.7956508213881582E-004
   1.9200000000000002E-002    -1.3440340812486372E-003
   1.9500000000000003E-002    -2.9783138523414854E-003
   1.9799999999999998E-002    -5.6062228804088787E-003
   2.0100000000000000E-002    -9.6573777252637605E-003
   2.0400000000000001E-002    -1.5687582547605161E-002
   2.0700000000000003E-002    -2.4398984174694105E-002
   2.0999999999999998E-002    -3.6650448655171086E-002
   2.1299999999999999E-002    -5.3481237558327788E-002
   2.1600000000000001E-002    -7.6104247377115186E-002
   2.1900000000000003E-002   -0.10584406537173852     
   2.2200000000000004E-002   -0.14407902837254838     
   2.2500000000000006E-002   -0.19219455988219902     
   2.2800000000000001E-002   -0.25147775344251855     
   2.3100000000000002E-002   -0.32294489123317760     
   2.3400000000000004E-002   -0.40720266797080029     
   2.3699999999999999E-002   -0.50432991101715174     
   2.4000000000000000E-002   -0.61365123314684311     
   2.4300000000000002E-002   -0.73348882983513519     
   2.4599999999999997E-002   -0.86110950866410718     
   2.4900000000000005E-002   -0.99270274075465181     
   2.5200000000000000E-002    -1.1233293908082089     
   2.5499999999999995E-002    -1.2470400306377840     
   2.5800000000000003E-002    -1.3569788887603593     
   2.6099999999999998E-002    -1.4458027331071364     
   2.6400000000000007E-002    -1.5060005177368438     
   2.6700000000000002E-002    -1.5304430082863902     
   2.6999999999999996E-002    -1.5127116529410145     
   2.7300000000000005E-002    -1.4477167169551635     
   2.7600000000000000E-002    -1.3321877283147820     
   2.7900000000000008E-002    -1.1649018831446440     
   2.8200000000000003E-002   -0.94706446204736494     
   2.8499999999999998E-002   -0.68215683119595028     
   2.8800000000000006E-002   -0.37629174282856326     
   2.9100000000000001E-002    -3.7665057325933837E-002
   2.9400000000000003E-002    0.32388478565638046     
   2.9700000000000004E-002    0.69693161389492886     
   3.0000000000000006E-002     1.0695622984316628     
   3.0300000000000001E-002     1.4291418529464934     
   3.0600000000000002E-002     1.7639754993550696     
   3.0900000000000004E-002     2.0628802327131694     
   3.1199999999999999E-002     2.3166251693955218     
   3.1500000000000007E-002     2.5179449185937983     
   3.1800000000000002E-002     2.6624765053473993     
   3.2099999999999997E-002     2.7485983669832592     
   3.2400000000000005E-002     2.7784521153007944     
   3.2700000000000000E-002     2.7572608497241049     
   3.3000000000000002E-002     2.6942365329404367     
   3.3300000000000003E-002     2.6010643109145661     
   3.3599999999999998E-002     2.4922578324152482     
   3.3900000000000000E-002     2.3831201689679489     
   3.4200000000000001E-002     2.2891858699307477     
   3.4500000000000003E-002     2.2241239336355534     
   3.4799999999999998E-002     2.1984179900357361     
   3.5099999999999999E-002     2.2177163026933044     
   3.5400000000000001E-002     2.2816371341675250     
   3.5699999999999996E-002     2.3830080349986247     
   3.6000000000000004E-002     2.5080754279366033     
   3.6299999999999999E-002     2.6369020123309639     
   3.6600000000000008E-002     2.7452951646246788     
   3.6900000000000002E-002     2.8061220290166773     
   3.7199999999999997E-002     2.7928801509700634     
   3.7500000000000006E-002     2.6815868640432825     
   3.7800000000000000E-002     2.4536411588826255     
   3.8100000000000009E-002     2.0979626777946798     
   3.8400000000000004E-002     1.6123620041877800     
   3.8699999999999998E-002     1.0041745345010753     
   3.9000000000000007E-002    0.28975624232323227     
   3.9300000000000002E-002   -0.50690714528054448     
   3.9600000000000003E-002    -1.3556302648045353     
   3.9900000000000005E-002    -2.2235405251687155     
   4.0200000000000000E-002    -3.0758476403097603     
   4.0500000000000001E-002    -3.8805015018503752     
   4.0800000000000003E-002    -4.6076950288216381     
   4.1100000000000005E-002    -5.2333089226368372     
   4.1399999999999999E-002    -5.7374821477598061     
   4.1700000000000008E-002    -6.1068220690797546     
   4.2000000000000003E-002    -6.3318581086705592     
   4.2299999999999997E-002    -6.4076841686338071     
   4.2600000000000006E-002    -6.3327366346937879     
   4.2900000000000001E-002    -6.1082407815102471     
   4.3200000000000002E-002    -5.7383190004269267     
   4.3500000000000004E-002    -5.2292680250575998     
   4.3799999999999999E-002    -4.5916750857857451     
   4.4100000000000000E-002    -3.8390931761062639     
   4.4400000000000002E-002    -2.9915549827275925     
   4.4700000000000004E-002    -2.0731620083501170     
   4.4999999999999998E-002    -1.1152457956707238     
   4.5300000000000000E-002   -0.15309640096506172     
   4.5600000000000002E-002    0.77206514997668130     
   4.5899999999999996E-002     1.6178215689749180     
   4.6200000000000005E-002     2.3407440574864644     
   4.6500000000000000E-002     2.9011150070564469     
   4.6799999999999994E-002     3.2654986838758813     
   4.7100000000000003E-002     3.4096043340066764     
   4.7399999999999998E-002     3.3234096406572995     
   4.7700000000000006E-002     3.0106091142619213     
   4.8000000000000001E-002     2.4948558447929408     
   4.8300000000000010E-002     1.8146166406078414     
   4.8600000000000004E-002     1.0297880856581294     
   4.8899999999999999E-002    0.21126053158458546     
   4.9200000000000008E-002   -0.55465273433572237     
   4.9500000000000002E-002    -1.1790709257349938     
   4.9800000000000011E-002    -1.5716130105245441     
   5.0100000000000006E-002    -1.6531965923417147     
   5.0400000000000000E-002    -1.3604263223694488     
   5.0700000000000009E-002   -0.65865421586902073     
   5.1000000000000004E-002    0.45497746583493992     
   5.1299999999999998E-002     1.9415365112800584     
   5.1600000000000007E-002     3.7217645900898333     
   5.1900000000000002E-002     5.6732898288057498     
   5.2200000000000010E-002     7.6393881198432325     
   5.2500000000000005E-002     9.4353873175394085     
   5.2800000000000000E-002     10.865232015982491     
   5.3099999999999994E-002     11.735428183903565     
   5.3400000000000003E-002     11.875796258887988     
   5.3699999999999998E-002     11.155301256957500     
   5.4000000000000006E-002     9.5007619166906920     
   5.4300000000000001E-002     6.9065491064189928     
   5.4599999999999996E-002     3.4446253886388831     
   5.4900000000000004E-002   -0.73936746759208916     
   5.5199999999999999E-002    -5.4281969928027713     
   5.5499999999999994E-002    -10.351399632210956     
   5.5800000000000002E-002    -15.201500684469750     
   5.6099999999999997E-002    -19.659223075839009     
   5.6400000000000006E-002    -23.417814345731358     
   5.6700000000000000E-002    -26.208360447553218     
   5.6999999999999995E-002    -27.821757020220645     
   5.7300000000000004E-002    -28.123272941811550     
   5.7599999999999998E-002    -27.066266783802007     
   5.7900000000000007E-002    -24.689934474836036     
   5.8200000000000002E-002    -21.119553397261370     
   5.8499999999999996E-002    -16.548730400902741     
   5.8800000000000005E-002    -11.229020243798118     
   5.9100000000000000E-002    -5.4430108351633066     
   5.9400000000000008E-002    0.51225120751280429     
   5.9700000000000003E-002     6.3503774312341363     
   6.0000000000000012E-002     11.811626376717413     
   6.0300000000000006E-002     16.678565143443961     
   6.0600000000000001E-002     20.785879466301935     
   6.0900000000000010E-002     24.022573787820761     
   6.1200000000000004E-002     26.335114213222823     
   6.1500000000000013E-002     27.718142965704146     
   6.1800000000000008E-002     28.211714822862916     
   6.2100000000000002E-002     27.884639961979644     
   6.2399999999999997E-002     26.832466525006936     
   6.2700000000000006E-002     25.158867417296932     
   6.3000000000000000E-002     22.975638839218146     
   6.3300000000000009E-002     20.389018223974510     
   6.3600000000000004E-002     17.500355821151842     
   6.3899999999999998E-002     14.399193277247520     
   6.4199999999999993E-002     11.167667971562764     
   6.4500000000000002E-002     7.8769258131900415     
   6.4800000000000010E-002     4.5894305406809224     
   6.5100000000000005E-002     1.3644208477957420     
   6.5400000000000000E-002    -1.7473560647557349     
   6.5700000000000008E-002    -4.6948099017255061     
   6.5999999999999989E-002    -7.4318465866966790     
   6.6299999999999998E-002    -9.9125024326780817     
   6.6600000000000006E-002    -12.095607464244551     
   6.6900000000000001E-002    -13.940687530579453     
   6.7199999999999996E-002    -15.415694195108699     
   6.7500000000000004E-002    -16.492052195098665     
   6.7800000000000013E-002    -17.152748415398605     
   6.8099999999999994E-002    -17.388503393598000     
   6.8400000000000002E-002    -17.204485428128351     
   6.8700000000000011E-002    -16.617318282995967     
   6.8999999999999992E-002    -15.659021386701482     
   6.9300000000000000E-002    -14.373619169591507     
   6.9600000000000009E-002    -12.819441991551898     
   6.9900000000000004E-002    -11.063586852682029     
   7.0199999999999999E-002    -9.1809423602901603     
   7.0500000000000007E-002    -7.2497598379414114     
   7.0800000000000016E-002    -5.3474737884925787     
   7.1099999999999997E-002    -3.5448612306102802     
   7.1400000000000005E-002    -1.9046730028116343     
   7.1700000000000000E-002   -0.47316510403524603     
   7.1999999999999995E-002    0.71517059478545342     
   7.2300000000000003E-002     1.6504054344454282     
   7.2600000000000012E-002     2.3320698357977605     
   7.2900000000000006E-002     2.7865868042514848     
   7.3200000000000001E-002     3.0433582300187965     
   7.3499999999999996E-002     3.1534679018216139     
   7.3800000000000004E-002     3.1649698469861534     
   7.4099999999999999E-002     3.1347423685707554     
   7.4400000000000008E-002     3.1115769844360699     
   7.4700000000000003E-002     3.1402201246626760     
   7.5000000000000011E-002     3.2526161098200390     
   7.5299999999999992E-002     3.4685562702532025     
   7.5600000000000001E-002     3.7927636010748387     
   7.5900000000000009E-002     4.2140043629560751     
   7.6200000000000004E-002     4.7095974712320867     
   7.6499999999999999E-002     5.2414624134156611     
   7.6800000000000007E-002     5.7680510069251625     
   7.7099999999999988E-002     6.2377604569691982     
   7.7399999999999997E-002     6.6034342488723610     
   7.7700000000000005E-002     6.8191408848791468     
   7.8000000000000014E-002     6.8480678854165831     
   7.8299999999999995E-002     6.6657206357740790     
   7.8600000000000003E-002     6.2590401780361447     
   7.8900000000000012E-002     5.6353476546027608     
   7.9199999999999993E-002     4.8105816137890187     
   7.9500000000000001E-002     3.8229014460653659     
   7.9800000000000010E-002     2.7146774336127635     
   8.0100000000000018E-002     1.5436015229911249     
   8.0399999999999999E-002    0.36678863778667647     
   8.0700000000000008E-002   -0.75453037710567195     
   8.1000000000000003E-002    -1.7655556401907546     
   8.1299999999999997E-002    -2.6181218692356936     
   8.1600000000000006E-002    -3.2758892384358234     
   8.1900000000000014E-002    -3.7156227766027570     
   8.2199999999999995E-002    -3.9296042449553568     
   8.2500000000000004E-002    -3.9246342872410480     
   8.2799999999999999E-002    -3.7215657341840682     
   8.3100000000000007E-002    -3.3544771210769397     
   8.3400000000000002E-002    -2.8657865174789769     
   8.3700000000000011E-002    -2.3053106000337760     
   8.4000000000000005E-002    -1.7242164665378641     
   8.4300000000000000E-002    -1.1722777531434634     
   8.4599999999999995E-002   -0.69606637029029095     
   8.4900000000000003E-002   -0.32974588427124818     
   8.5199999999999998E-002   -0.10224350011135597     
   8.5500000000000007E-002    -2.3153424462328598E-002
   8.5800000000000001E-002    -9.5748292474235885E-002
   8.6100000000000010E-002   -0.30212257192147973     
   8.6399999999999991E-002   -0.62090013503566865     
   8.6699999999999999E-002    -1.0130869776997571     
   8.7000000000000008E-002    -1.4404524167043604     
   8.7300000000000003E-002    -1.8559214547121528     
   8.7599999999999997E-002    -2.2182242546304280     
   8.7900000000000006E-002    -2.4866606647629084     
   8.8200000000000014E-002    -2.6331802143052343     
   8.8499999999999995E-002    -2.6361030207803040     
   8.8800000000000004E-002    -2.4905345353338184     
   8.9100000000000013E-002    -2.2010049867025341     
   8.9399999999999993E-002    -1.7866061431506566     
   8.9700000000000002E-002    -1.2761284174292022     
   9.0000000000000011E-002   -0.70530890103763255     
   9.0299999999999991E-002   -0.11566921704866218     
   9.0600000000000000E-002    0.45267831190555619     
   9.0900000000000009E-002    0.96111184581251052     
   9.1200000000000017E-002     1.3800533986781716     
   9.1499999999999998E-002     1.6868238568301237     
   9.1800000000000007E-002     1.8713136962257408     
   9.2100000000000001E-002     1.9330808419842427     
   9.2399999999999996E-002     1.8829599805033865     
   9.2700000000000005E-002     1.7406084216867796     
   9.3000000000000013E-002     1.5301156165123260     
   9.3300000000000008E-002     1.2810183050364472     
   9.3600000000000003E-002     1.0204113303270788     
   9.3899999999999997E-002    0.77508659418752401     
   9.4200000000000006E-002    0.56445924530498814     
   9.4500000000000001E-002    0.40405601511219125     
   9.4800000000000009E-002    0.29885310027244660     
   9.5100000000000004E-002    0.25077356009281182     
   9.5399999999999999E-002    0.25277148357062629     
   9.5699999999999993E-002    0.29538868206509061     
   9.6000000000000002E-002    0.36409681382736636     
   9.6300000000000011E-002    0.44519348163847461     
   9.6600000000000005E-002    0.52469417142710562     
   9.6900000000000000E-002    0.59037477284048911     
   9.7200000000000009E-002    0.63329683368529555     
   9.7499999999999989E-002    0.64557546826296164     
   9.7799999999999998E-002    0.62606680971969020     
   9.8100000000000007E-002    0.57166117748957213     
   9.8400000000000015E-002    0.48604139286184989     
   9.8699999999999996E-002    0.37073520415397354     
   9.9000000000000005E-002    0.23209486961649972     
   9.9300000000000013E-002     7.5221500782521211E-002
   9.9599999999999994E-002    -9.3360564724034534E-002
   9.9900000000000003E-002   -0.26584509100287379     
  0.10020000000000001        -0.43476832253827435     
  0.10049999999999999        -0.59066156203584264     
  0.10080000000000000        -0.72525821053107009     
  0.10110000000000001        -0.82980311094526193     
  0.10140000000000000        -0.89652849990789107     
  0.10170000000000000        -0.91882206680219269     
  0.10200000000000001        -0.89256453671523062     
  0.10230000000000002        -0.81672750166597829     
  0.10260000000000000        -0.69322718886128509     
  0.10290000000000001        -0.52755762926763916     
  0.10320000000000000        -0.32932899305326657     
  0.10350000000000001        -0.11017932827168142     
  0.10380000000000000         0.11516083568958241     
  0.10410000000000001         0.33087786153261156     
  0.10440000000000001         0.52228225368896375     
  0.10470000000000000         0.67498595333337086     
  0.10500000000000000         0.77707896426112733     
  0.10530000000000000         0.82108153939029194     
  0.10560000000000000         0.80171876230370698     
  0.10590000000000001         0.72135262477093942     
  0.10620000000000000         0.58238717698333176     
  0.10650000000000001         0.39649894254007378     
  0.10679999999999999         0.17254944040268150     
  0.10710000000000000         -7.2067499372199695E-002
  0.10740000000000001        -0.32358296561837996     
  0.10770000000000000        -0.56393408813643120     
  0.10800000000000000        -0.77929620409728173     
  0.10830000000000001        -0.95454068441530993     
  0.10859999999999999         -1.0795910447099288     
  0.10890000000000000         -1.1462130098124987     
  0.10920000000000001         -1.1508407648834922     
  0.10950000000000001         -1.0932440113037902     
  0.10979999999999999        -0.97791953024531941     
  0.11009999999999999        -0.81201607181000934     
  0.11040000000000001        -0.60707741014678440     
  0.11070000000000001        -0.37593472510741321     
  0.11100000000000000        -0.13293554260140539     
  0.11130000000000000         0.10629814843630014     
  0.11160000000000002         0.32866608055685109     
  0.11190000000000001         0.52066183057749882     
  0.11220000000000001         0.67319384800545023     
  0.11250000000000000         0.77892722536330439     
  0.11280000000000000         0.83495164121392662     
  0.11309999999999999         0.84163484512129827     
  0.11340000000000001         0.80308312954366201     
  0.11369999999999998         0.72533519310764127     
  0.11400000000000000         0.61868185334187409     
  0.11430000000000000         0.49194308255787755     
  0.11460000000000002         0.35816933702674092     
  0.11489999999999999         0.22561229773215352     
  0.11520000000000001         0.10666636069577784     
  0.11550000000000001          6.2507799249211793E-003
  0.11580000000000000         -6.7376480743624567E-002
  0.11609999999999999        -0.11299488653295953     
  0.11640000000000002        -0.12845259746425208     
  0.11670000000000001        -0.11618474262310619     
  0.11700000000000001         -7.9330033811540135E-002
  0.11730000000000000         -2.3698207320071996E-002
  0.11760000000000000          4.4352953474637191E-002
  0.11789999999999999         0.11677784730741481     
  0.11820000000000001         0.18663172216853940     
  0.11850000000000001         0.24623868762337153     
  0.11880000000000000         0.28925779941794172     
  0.11910000000000000         0.31007483900146759     
  0.11940000000000002         0.30560284300439822     
  0.11970000000000001         0.27414151084720784     
  0.12000000000000001         0.21637914930868973     
  0.12030000000000000         0.13510383030559669     
  0.12060000000000000          3.5471702471938649E-002
  0.12089999999999999         -7.6942363862846475E-002
  0.12119999999999999        -0.19303405148604291     
  0.12150000000000001        -0.30645033440474023     
  0.12180000000000001        -0.40757350140151871     
  0.12210000000000000        -0.49064061560484085     
  0.12239999999999999        -0.54842666370600845     
  0.12270000000000002        -0.57823837208128026     
  0.12300000000000001        -0.57807363276344681     
  0.12330000000000001        -0.54856398983959931     
  0.12360000000000000        -0.49236023963155340     
  0.12390000000000000        -0.41402515937061901     
  0.12419999999999999        -0.31937937080416345     
  0.12450000000000001        -0.21508574796121538     
  0.12480000000000001        -0.10767281673630436     
  0.12509999999999999         -4.5000918710123017E-003
  0.12540000000000001          8.9566656405682066E-002
  0.12570000000000003         0.16856496161576029     
  0.12600000000000000         0.22986296556060726     
  0.12630000000000002         0.27040535321893078     
  0.12659999999999999         0.28951269920787759     
  0.12690000000000001         0.28756974316917105     
  0.12719999999999998         0.26612980836869227     
  0.12750000000000000         0.22836214798295629     
  0.12780000000000002         0.17829501629714639     
  0.12809999999999999         0.11996112844681711     
  0.12840000000000001          5.8704090291087363E-002
  0.12869999999999998          3.3905055887373248E-004
  0.12900000000000000         -5.1194121294597883E-002
  0.12930000000000003         -9.0834344131640155E-002
  0.12959999999999999        -0.11577777296240521     
  0.12990000000000002        -0.12358791576013739     
  0.13019999999999998        -0.11459258903127945     
  0.13050000000000000         -8.8955685573883003E-002
  0.13080000000000003         -5.0047008572449370E-002
  0.13109999999999999         -1.0103225869939614E-003
  0.13140000000000002          5.3611655265757951E-002
  0.13169999999999998         0.10895740654480290     
  0.13200000000000001         0.16032585251443798     
  0.13229999999999997         0.20324383151661340     
  0.13260000000000000         0.23476619641718699     
  0.13290000000000002         0.25252700201667899     
  0.13319999999999999         0.25496581129838614     
  0.13350000000000001         0.24233520303392808     
  0.13380000000000003         0.21552044427271833     
  0.13410000000000000         0.17645772861218936     
  0.13440000000000002         0.12757963583812160     
  0.13469999999999999          7.1943479406244570E-002
  0.13500000000000001          1.3271872484446501E-002
  0.13529999999999998         -4.5191116026506495E-002
  0.13560000000000000         -9.9382592818317850E-002
  0.13590000000000002        -0.14684673479460564     
  0.13619999999999999        -0.18358324018135530     
  0.13650000000000001        -0.20860775870360460     
  0.13680000000000003        -0.21919598696558396     
  0.13710000000000000        -0.21624844160401668     
  0.13740000000000002        -0.19922694867836466     
  0.13769999999999999        -0.17094495912902907     
  0.13800000000000001        -0.13262897211873070     
  0.13829999999999998         -8.8891357508500801E-002
  0.13860000000000000         -4.2415729061632046E-002
  0.13890000000000002          2.2889187873950112E-003
  0.13919999999999999          4.2322649182385041E-002
  0.13950000000000001          7.4283892257019701E-002
  0.13979999999999998          9.5903831587105248E-002
  0.14010000000000000         0.10678387143659362     
  0.14040000000000002         0.10569821028428583     
  0.14069999999999999          9.4523673619091975E-002
  0.14100000000000001          7.3452866466543476E-002
  0.14130000000000004          4.6158494860422172E-002
  0.14160000000000000          1.3441374192211142E-002
  0.14189999999999997         -2.0097977116460275E-002
  0.14219999999999999         -5.3900285593404984E-002
  0.14250000000000002         -8.3594794542261042E-002
  0.14279999999999998        -0.10877802377526624     
  0.14310000000000000        -0.12606343590732383     
  0.14339999999999997        -0.13571309191307668     
  0.14369999999999999        -0.13549505069899803     
  0.14400000000000002        -0.12644298580388402     
  0.14429999999999998        -0.10772890281911185     
  0.14460000000000001         -8.1492618655374494E-002
  0.14490000000000003         -4.8685211292444741E-002
  0.14520000000000000         -1.1986769485872295E-002
  0.14550000000000002          2.6970762582126051E-002
  0.14579999999999999          6.4630643826947054E-002
  0.14610000000000001          9.8637717516964596E-002
  0.14640000000000003         0.12635934977306373     
  0.14670000000000000         0.14603791778540032     
  0.14699999999999996         0.15625990109697474     
  0.14729999999999999         0.15649471993767339     
  0.14760000000000001         0.14712247814665425     
  0.14789999999999998         0.12924092419434685     
  0.14820000000000000         0.10430324027434235     