  -1.4999999999999999E-002     0.0000000000000000     
  -1.4700000000000000E-002    -2.3119352071469487E-035
  -1.4400000000000000E-002     3.0927702582383890E-028
  -1.4100000000000000E-002     6.2527888633442365E-024
  -1.3800000000000000E-002     1.5458727417513545E-021
  -1.3500000000000000E-002     1.9446240291921373E-020
  -1.3200000000000000E-002    -6.3160961918573112E-019
  -1.2899999999999998E-002    -2.1629781086096028E-018
  -1.2600000000000000E-002     3.8111991635689119E-017
  -1.2299999999999998E-002     2.8207982574281867E-017
  -1.2000000000000000E-002    -7.0371601143086170E-016
  -1.1699999999999999E-002    -8.6048010233281911E-017
  -1.1399999999999999E-002     5.8487859989559955E-015
  -1.1099999999999999E-002     2.1779967603884265E-015
  -1.0799999999999999E-002    -2.7874122032088635E-014
  -1.0499999999999999E-002    -3.8900708195176156E-014
  -1.0199999999999999E-002     9.4936194437064814E-014
  -9.8999999999999991E-003     2.5539654506162090E-013
  -9.5999999999999992E-003    -1.7503809038803347E-013
  -9.2999999999999992E-003    -8.7443683917145611E-013
  -8.9999999999999993E-003    -3.7439563667801265E-013
  -8.6999999999999994E-003     1.5608007993124413E-012
  -8.3999999999999995E-003     3.3225284028205549E-012
  -8.0999999999999996E-003     1.0281795606170537E-012
  -7.7999999999999988E-003    -8.1578462731113196E-012
  -7.4999999999999997E-003    -1.7656689374870614E-011
  -7.1999999999999998E-003     2.1794601507473328E-012
  -6.8999999999999981E-003     5.8981495703728484E-011
  -6.5999999999999982E-003     4.1398934754606176E-011
  -6.3000000000000000E-003    -8.6391348284313985E-011
  -6.0000000000000001E-003    -1.2234259929662849E-010
  -5.6999999999999985E-003    -2.4117709837577325E-011
  -5.3999999999999986E-003     8.7632112923866591E-011
  -5.1000000000000004E-003     2.9636614315364413E-010
  -4.7999999999999987E-003     4.8337624757176497E-010
  -4.5000000000000005E-003    -2.3674538589966376E-010
  -4.1999999999999989E-003    -1.9412037162287557E-009
  -3.8999999999999990E-003    -9.4784828924482176E-010
  -3.5999999999999990E-003     3.4826338594493730E-009
  -3.2999999999999991E-003     2.3214942159752872E-009
  -2.9999999999999992E-003    -2.7102583069708007E-009
  -2.6999999999999993E-003     9.0485078700588022E-010
  -2.3999999999999994E-003    -1.5308990912186323E-009
  -2.0999999999999977E-003    -1.3211882816789674E-008
  -1.7999999999999995E-003     4.8020292531007643E-009
  -1.4999999999999979E-003     2.6438615916890361E-008
  -1.1999999999999997E-003    -5.3033858565078337E-010
  -8.9999999999999976E-004    -1.6616463388927810E-008
  -5.9999999999999810E-004    -6.9658566706391960E-009
  -2.9999999999999992E-004    -2.7541984320055265E-008
   0.0000000000000000          3.8245466853929000E-009
   3.0000000000000165E-004     6.9494422001480967E-008
   5.9999999999999984E-004     1.1236336652412957E-009
   9.0000000000000149E-004    -5.6830641435835267E-008
   1.2000000000000031E-003     3.4961546052286364E-008
   1.5000000000000013E-003     1.4039004622509021E-008
   1.8000000000000030E-003    -1.2254475231144016E-007
   2.1000000000000012E-003    -4.4098683563878229E-008
   2.3999999999999994E-003     1.9456110361015830E-007
   2.7000000000000010E-003     1.9104230901622312E-007
   2.9999999999999992E-003    -2.1200018252430687E-007
   3.3000000000000008E-003    -4.0203421643242980E-007
   3.6000000000000025E-003     2.1894502840759011E-007
   3.9000000000000007E-003     6.6090231070132381E-007
   4.2000000000000023E-003    -9.4045189020967311E-008
   4.5000000000000005E-003    -8.6389437382783296E-007
   4.7999999999999987E-003    -4.6283601749908281E-007
   5.1000000000000004E-003     5.2767411907279388E-007
   5.4000000000000020E-003     1.0962399244759260E-006
   5.7000000000000037E-003     4.2363048832587000E-007
   5.9999999999999984E-003    -5.3855257100254451E-007
   6.3000000000000000E-003     1.2729850383060526E-006
   6.6000000000000017E-003     6.4445533618956846E-006
   6.9000000000000034E-003     1.2527826300490732E-005
   7.2000000000000015E-003     1.8705503919185532E-005
   7.5000000000000032E-003     2.5707130990939564E-005
   7.8000000000000014E-003     3.2912439333883264E-005
   8.0999999999999996E-003     3.6616942334103052E-005
   8.4000000000000012E-003     3.0735618234306417E-005
   8.7000000000000029E-003     1.2969328012585376E-005
   9.0000000000000011E-003    -1.4140882852498979E-005
   9.2999999999999992E-003    -5.1160199001985692E-005
   9.6000000000000009E-003    -1.0637634492638831E-004
   9.8999999999999991E-003    -2.0318745446919141E-004
   1.0200000000000001E-002    -3.8975094683960088E-004
   1.0500000000000002E-002    -7.3157609117524666E-004
   1.0800000000000004E-002    -1.3036797164902956E-003
   1.1099999999999999E-002    -2.2079626617964631E-003
   1.1400000000000000E-002    -3.6025465692557735E-003
   1.1700000000000002E-002    -5.7221900474178668E-003
   1.2000000000000004E-002    -8.8780060731321053E-003
   1.2300000000000002E-002    -1.3447669949290990E-002
   1.2600000000000000E-002    -1.9892976598916989E-002
   1.2900000000000002E-002    -2.8794247114852890E-002
   1.3200000000000000E-002    -4.0859112528833438E-002
   1.3500000000000002E-002    -5.6893828143294876E-002
   1.3800000000000003E-002    -7.7747057967021777E-002
   1.4100000000000001E-002   -0.10424153985009013     
   1.4400000000000000E-002   -0.13711327942955046     
   1.4700000000000001E-002   -0.17691249465537789     
   1.4999999999999999E-002   -0.22382816206007944     
   1.5300000000000001E-002   -0.27752293423754848     
   1.5600000000000003E-002   -0.33697907673027105     
   1.5899999999999997E-002   -0.40029932890195713     
   1.6199999999999999E-002   -0.46449669324828674     
   1.6500000000000001E-002   -0.52536627050342288     
   1.6800000000000002E-002   -0.57752373444151484     
   1.7100000000000004E-002   -0.61446705248630185     
   1.7400000000000006E-002   -0.62872120580113111     
   1.7700000000000000E-002   -0.61213746422189208     
   1.8000000000000002E-002   -0.55649592963998973     
   1.8300000000000004E-002   -0.45417045564289948     
   1.8600000000000005E-002   -0.29895885085215190     
   1.8900000000000000E-002    -8.6801450195534605E-002
   1.9200000000000002E-002    0.18321798149607071     
   1.9500000000000003E-002    0.50816305850086763     
   1.9799999999999998E-002    0.88063035459432704     
   2.0100000000000000E-002     1.2885578262743334     
   2.0400000000000001E-002     1.7152534304297791     
   2.0700000000000003E-002     2.1399985320057855     
   2.0999999999999998E-002     2.5387991609708136     
   2.1299999999999999E-002     2.8858741615582106     
   2.1600000000000001E-002     3.1551877469565661     
   2.1900000000000003E-002     3.3223330061680665     
   2.2200000000000004E-002     3.3663758333795588     
   2.2500000000000006E-002     3.2715903768752677     
   2.2800000000000001E-002     3.0288590329911176     
   2.3100000000000002E-002     2.6366096695831422     
   2.3400000000000004E-002     2.1015354117567218     
   2.3699999999999999E-002     1.4383911515747070     
   2.4000000000000000E-002    0.66949447837350429     
   2.4300000000000002E-002   -0.17684712400779187     
   2.4599999999999997E-002    -1.0675220967467098     
   2.4900000000000005E-002    -1.9669664776477720     
   2.5200000000000000E-002    -2.8385731039485749     
   2.5499999999999995E-002    -3.6476253680521338     
   2.5800000000000003E-002    -4.3620888714430217     
   2.6099999999999998E-002    -4.9555899882404342     
   2.6400000000000007E-002    -5.4076759797450134     
   2.6700000000000002E-002    -5.7061951273446949     
   2.6999999999999996E-002    -5.8472268757490582     
   2.7300000000000005E-002    -5.8367307360469169     
   2.7600000000000000E-002    -5.6900117511326549     
   2.7900000000000008E-002    -5.4325549608681865     
   2.8200000000000003E-002    -5.0983440740865769     
   2.8499999999999998E-002    -4.7293159669555047     
   2.8800000000000006E-002    -4.3721539528725284     
   2.9100000000000001E-002    -4.0754615685888309     
   2.9400000000000003E-002    -3.8842069441435729     
   2.9700000000000004E-002    -3.8354865815274386     
   3.0000000000000006E-002    -3.9504000489597821     
   3.0300000000000001E-002    -4.2300736359097844     
   3.0600000000000002E-002    -4.6477954004189650     
   3.0900000000000004E-002    -5.1476995755792849     
   3.1199999999999999E-002    -5.6412212848722811     
   3.1500000000000007E-002    -6.0121376650686189     
   3.1800000000000002E-002    -6.1199443500301260     
   3.2099999999999997E-002    -5.8130404957529969     
   3.2400000000000005E-002    -4.9411017512992172     
   3.2700000000000000E-002    -3.3733455070111016     
   3.3000000000000002E-002    -1.0160016126221658     
   3.3300000000000003E-002     2.1695748433076716     
   3.3599999999999998E-002     6.1527827155909414     
   3.3900000000000000E-002     10.824531075353757     
   3.4200000000000001E-002     15.993954397821163     
   3.4500000000000003E-002     21.395489660648828     
   3.4799999999999998E-002     26.700814439349667     
   3.5099999999999999E-002     31.542918601914604     
   3.5400000000000001E-002     35.541593163115976     
   3.5699999999999996E-002     38.336961475130643     
   3.6000000000000004E-002     39.619123241004509     
   3.6299999999999999E-002     39.159745931607333     
   3.6600000000000008E-002     36.833375592580502     
   3.6900000000000002E-002     32.634877641234844     
   3.7199999999999997E-002     26.682275001171313     
   3.7500000000000006E-002     19.213719232780917     
   3.7800000000000000E-002     10.570232841885323     
   3.8100000000000009E-002     1.1727290657430851     
   3.8400000000000004E-002    -8.5079520984005690     
   3.8699999999999998E-002    -17.985688021827766     
   3.9000000000000007E-002    -26.790503689819147     
   3.9300000000000002E-002    -34.502870123451537     
   3.9600000000000003E-002    -40.774385284411423     
   3.9900000000000005E-002    -45.351804761983814     
   4.0200000000000000E-002    -48.082925943188243     
   4.0500000000000001E-002    -48.923982804511056     
   4.0800000000000003E-002    -47.928301000975317     
   4.1100000000000005E-002    -45.243394882196938     
   4.1399999999999999E-002    -41.086969230073464     
   4.1700000000000008E-002    -35.735295876565438     
   4.2000000000000003E-002    -29.497254686902572     
   4.2299999999999997E-002    -22.699629809017296     
   4.2600000000000006E-002    -15.665169440815117     
   4.2900000000000001E-002    -8.6984189978726096     
   4.3200000000000002E-002    -2.0719698443392693     
   4.3500000000000004E-002     3.9836866101276538     
   4.3799999999999999E-002     9.2859453294471450     
   4.4100000000000000E-002     13.707031831124210     
   4.4400000000000002E-002     17.171240583549643     
   4.4700000000000004E-002     19.655867461202941     
   4.4999999999999998E-002     21.186753224422379     
   4.5300000000000000E-002     21.831892947455746     
   4.5600000000000002E-002     21.693968748283872     
   4.5899999999999996E-002     20.902478160513944     
   4.6200000000000005E-002     19.601422197325395     
   4.6500000000000000E-002     17.942719276535119     
   4.6799999999999994E-002     16.073105549359251     
   4.7100000000000003E-002     14.129192960241465     
   4.7399999999999998E-002     12.226369430609706     
   4.7700000000000006E-002     10.458282921440453     
   4.8000000000000001E-002     8.8892578144225585     
   4.8300000000000010E-002     7.5576895160956488     
   4.8600000000000004E-002     6.4736345225553871     
   4.8899999999999999E-002     5.6248362110146388     
   4.9200000000000008E-002     4.9795977837223999     
   4.9500000000000002E-002     4.4926363979819914     
   4.9800000000000011E-002     4.1106745590745577     
   5.0100000000000006E-002     3.7766598905659023     
   5.0400000000000000E-002     3.4375869333772942     
   5.0700000000000009E-002     3.0448080431257893     
   5.1000000000000004E-002     2.5623553915931887     
   5.1299999999999998E-002     1.9630306627091025     
   5.1600000000000007E-002     1.2372017457136284     
   5.1900000000000002E-002    0.38407405071321699     
   5.2200000000000010E-002   -0.57752641327953014     
   5.2500000000000005E-002    -1.6239510260177368     
   5.2800000000000000E-002    -2.7139352513058883     
   5.3099999999999994E-002    -3.8074793048627704     
   5.3400000000000003E-002    -4.8518511931107042     
   5.3699999999999998E-002    -5.8026378248858048     
   5.4000000000000006E-002    -6.6099679912897340     
   5.4300000000000001E-002    -7.2382853748313423     
   5.4599999999999996E-002    -7.6537955705855039     
   5.4900000000000004E-002    -7.8407839328228519     
   5.5199999999999999E-002    -7.7902015220763170     
   5.5499999999999994E-002    -7.5117352858807056     
   5.5800000000000002E-002    -7.0230520414650774     
   5.6099999999999997E-002    -6.3565476300609829     
   5.6400000000000006E-002    -5.5506708637767304     
   5.6700000000000000E-002    -4.6518380273026505     
   5.6999999999999995E-002    -3.7082442463681513     
   5.7300000000000004E-002    -2.7680782093846119     
   5.7599999999999998E-002    -1.8767323124367974     
   5.7900000000000007E-002    -1.0719619271916243     
   5.8200000000000002E-002   -0.38598983281119731     
   5.8499999999999996E-002    0.16160610922417842     
   5.8800000000000005E-002    0.55809386913859571     
   5.9100000000000000E-002    0.80581483694283607     
   5.9400000000000008E-002    0.91165892212136623     
   5.9700000000000003E-002    0.89736560880444260     
   6.0000000000000012E-002    0.78536788049331030     
   6.0300000000000006E-002    0.61027654697027112     
   6.0600000000000001E-002    0.40167568903828832     
   6.0900000000000010E-002    0.19743450891054168     
   6.1200000000000004E-002     2.4398874062029341E-002
   6.1500000000000013E-002    -8.6497354837033330E-002
   6.1800000000000008E-002   -0.12014427538212243     
   6.2100000000000002E-002    -6.0188910618503240E-002
   6.2399999999999997E-002     9.1736119255374393E-002
   6.2700000000000006E-002    0.33378089882963702     
   6.3000000000000000E-002    0.64769997944645685     
   6.3300000000000009E-002     1.0166401102558691     
   6.3600000000000004E-002     1.4108572605562457     
   6.3899999999999998E-002     1.8052089983676651     
   6.4199999999999993E-002     2.1676069230597186     
   6.4500000000000002E-002     2.4736245736055409     
   6.4800000000000010E-002     2.6977060995630850     
   6.5100000000000005E-002     2.8241435308075760     
   6.5400000000000000E-002     2.8399945524476888     
   6.5700000000000008E-002     2.7428697334952252     
   6.5999999999999989E-002     2.5353644986146739     
   6.6299999999999998E-002     2.2285803326223830     
   6.6600000000000006E-002     1.8391381106000810     
   6.6900000000000001E-002     1.3891281493151366     
   6.7199999999999996E-002    0.90474901586364431     
   6.7500000000000004E-002    0.41417335340374056     
   6.7800000000000013E-002    -5.2954433121185744E-002
   6.8099999999999994E-002   -0.46930583276934335     
   6.8400000000000002E-002   -0.80937502221777635     
   6.8700000000000011E-002    -1.0532385558320809     
   6.8999999999999992E-002    -1.1866590290769521     
   6.9300000000000000E-002    -1.2036693611276499     
   6.9600000000000009E-002    -1.1063040969872739     
   6.9900000000000004E-002   -0.90593765111615154     
   7.0199999999999999E-002   -0.62254932248361217     
   7.0500000000000007E-002   -0.28272218771080282     
   7.0800000000000016E-002     8.0067995064794353E-002
   7.1099999999999997E-002    0.43046851750743531     
   7.1400000000000005E-002    0.73187032435846533     
   7.1700000000000000E-002    0.95219997615956486     
   7.1999999999999995E-002     1.0640101883800215     
   7.2300000000000003E-002     1.0511179417464696     
   7.2600000000000012E-002    0.90661225608466844     
   7.2900000000000006E-002    0.63875242829120027     
   7.3200000000000001E-002    0.26543764439474182     
   7.3499999999999996E-002   -0.18114920688785124     
   7.3800000000000004E-002   -0.66312929786271946     
   7.4099999999999999E-002    -1.1341673613442804     
   7.4400000000000008E-002    -1.5509155452295311     
   7.4700000000000003E-002    -1.8694619731708619     
   7.5000000000000011E-002    -2.0578769126308414     
   7.5299999999999992E-002    -2.0916853839155518     
   7.5600000000000001E-002    -1.9644043089390830     
   7.5900000000000009E-002    -1.6803612233095040     
   7.6200000000000004E-002    -1.2624259535241922     
   7.6499999999999999E-002   -0.74230537037180999     
   7.6800000000000007E-002   -0.16426319636532763     
   7.7099999999999988E-002    0.42525904142551946     
   7.7399999999999997E-002    0.97674272579118437     
   7.7700000000000005E-002     1.4471988096042046     
   7.8000000000000014E-002     1.7994463012426010     
   7.8299999999999995E-002     2.0091825382784951     
   7.8600000000000003E-002     2.0637088697934232     
   7.8900000000000012E-002     1.9644428134808376     
   7.9199999999999993E-002     1.7243897457698436     
   7.9500000000000001E-002     1.3674641239940535     
   7.9800000000000010E-002    0.92471543947681500     
   8.0100000000000018E-002    0.43156172726312858     
   8.0399999999999999E-002    -7.5703176595281627E-002
   8.0700000000000008E-002   -0.56264188252930125     
   8.1000000000000003E-002   -0.99916289485509546     
   8.1299999999999997E-002    -1.3613503555452342     
   8.1600000000000006E-002    -1.6320297218447566     
   8.1900000000000014E-002    -1.8013213446869942     
   8.2199999999999995E-002    -1.8664327462931058     
   8.2500000000000004E-002    -1.8300832098937219     
   8.2799999999999999E-002    -1.7011552584395049     
   8.3100000000000007E-002    -1.4915517015485036     
   8.3400000000000002E-002    -1.2178563402824560     
   8.3700000000000011E-002   -0.89670930198269427     
   8.4000000000000005E-002   -0.54830332995326803     
   8.4300000000000000E-002   -0.19060298166176762     
   8.4599999999999995E-002    0.15590401615951083     
   8.4900000000000003E-002    0.47559918967606973     
   8.5199999999999998E-002    0.75169304208194132     
   8.5500000000000007E-002    0.97372893652471659     
   8.5800000000000001E-002     1.1314152960220616     
   8.6100000000000010E-002     1.2220935150344003     
   8.6399999999999991E-002     1.2435069614500445     
   8.6699999999999999E-002     1.2015142954217333     
   8.7000000000000008E-002     1.1016144031147794     
   8.7300000000000003E-002    0.95629874986792018     
   8.7599999999999997E-002    0.77569315177040776     
   8.7900000000000006E-002    0.57582219927113354     
   8.8200000000000014E-002    0.36781306650726336     
   8.8499999999999995E-002    0.16702074534766023     
   8.8800000000000004E-002    -1.8211976481603175E-002
   8.9100000000000013E-002   -0.17578881236902724     
   8.9399999999999993E-002   -0.30214907037551986     
   8.9700000000000002E-002   -0.39028938294989002     
   9.0000000000000011E-002   -0.44199051373144854     
   9.0299999999999991E-002   -0.45512341423121383     
   9.0600000000000000E-002   -0.43603121129125810     
   9.0900000000000009E-002   -0.38685511219680901     
   9.1200000000000017E-002   -0.31731955581163018     
   9.1499999999999998E-002   -0.23198098933859207     
   9.1800000000000007E-002   -0.14206793023194100     
   9.2100000000000001E-002    -5.2816367082499704E-002
   9.2399999999999996E-002     2.4814353505664893E-002
   9.2700000000000005E-002     8.7461430754049455E-002
   9.3000000000000013E-002    0.12655248299607516     
   9.3300000000000008E-002    0.14266496038251986     
   9.3600000000000003E-002    0.13112298228395128     
   9.3899999999999997E-002     9.7284001047060892E-002
   9.4200000000000006E-002     4.0676878781171391E-002
   9.4500000000000001E-002    -2.8879107039430557E-002
   9.4800000000000009E-002   -0.10900677450511123     
   9.5100000000000004E-002   -0.18744390493817761     
   9.5399999999999999E-002   -0.26158870379918014     
   9.5699999999999993E-002   -0.31956155460082108     
   9.6000000000000002E-002   -0.36063702458566216     
   9.6300000000000011E-002   -0.37564422299335848     
   9.6600000000000005E-002   -0.36795489583172558     
   9.6900000000000000E-002   -0.33190821038841045     
   9.7200000000000009E-002   -0.27480832932851917     
   9.7499999999999989E-002   -0.19429809687594840     
   9.7799999999999998E-002   -0.10085057170157365     
   9.8100000000000007E-002     5.9347737254382433E-003
   9.8400000000000015E-002    0.11414386060819100     
   9.8699999999999996E-002    0.22371193237356105     
   9.9000000000000005E-002    0.32260964692377958     
   9.9300000000000013E-002    0.41162298900816413     
   9.9599999999999994E-002    0.48043390182967516     
   9.9900000000000003E-002    0.53119500780824380     
  0.10020000000000001         0.55605843068836147     
  0.10049999999999999         0.55947067769584413     
  0.10080000000000000         0.53687437698302443     
  0.10110000000000001         0.49497859833216556     
  0.10140000000000000         0.43244053799529691     
  0.10170000000000000         0.35800696977515439     
  0.10200000000000001         0.27280099383280593     
  0.10230000000000002         0.18642108964239301     
  0.10260000000000000         0.10074425933608691     
  0.10290000000000001          2.4312203120826145E-002
  0.10320000000000000         -4.1724731978593020E-002
  0.10350000000000001         -9.1661553907687376E-002
  0.10380000000000000        -0.12686235253353184     
  0.10410000000000001        -0.14531095944902209     
  0.10440000000000001        -0.15090746339164049     
  0.10470000000000000        -0.14465870589060487     
  0.10500000000000000        -0.13207340819427929     
  0.10530000000000000        -0.11618448561911862     
  0.10560000000000000        -0.10197436521037237     
  0.10590000000000001         -9.2016432872102941E-002
  0.10620000000000000         -8.9693177855036887E-002
  0.10650000000000001         -9.5965039626756593E-002
  0.10679999999999999        -0.11180563776541007     
  0.10710000000000000        -0.13575970243873650     
  0.10740000000000001        -0.16715569046490272     
  0.10770000000000000        -0.20275432763100631     
  0.10800000000000000        -0.24105840487500724     
  0.10830000000000001        -0.27802581804600518     
  0.10859999999999999        -0.31237535045722320     
  0.10890000000000000        -0.33973850287496038     
  0.10920000000000001        -0.35961990121914444     
  0.10950000000000001        -0.36845673715051314     
  0.10979999999999999        -0.36660991695780881     
  0.11009999999999999        -0.35125978305463040     
  0.11040000000000001        -0.32406733828840012     
  0.11070000000000001        -0.28367803710722134     
  0.11100000000000000        -0.23313749831545935     
  0.11130000000000000        -0.17259914414246283     
  0.11160000000000002        -0.10652567151850043     
  0.11190000000000001         -3.6472601427392740E-002
  0.11220000000000001          3.2347375102091985E-002
  0.11250000000000000          9.7970698580249857E-002
  0.11280000000000000         0.15506770384449561     
  0.11309999999999999         0.20278795938698943     
  0.11340000000000001         0.23720417444162906     
  0.11369999999999998         0.25910968703096277     
  0.11400000000000000         0.26641086885269410     
  0.11430000000000000         0.26174161963052633     
  0.11460000000000002         0.24478883599548273     
  0.11489999999999999         0.21946326841186234     
  0.11520000000000001         0.18648325705648586     
  0.11550000000000001         0.14988344062615117     
  0.11580000000000000         0.11078562317552298     
  0.11609999999999999          7.2957280454911941E-002
  0.11640000000000002          3.7229673683642432E-002
  0.11670000000000001          6.9134471565201958E-003
  0.11700000000000001         -1.7226225475987386E-002
  0.11730000000000000         -3.2538888456041908E-002
  0.11760000000000000         -3.8582289337213187E-002
  0.11789999999999999         -3.3509557570728828E-002
  0.11820000000000001         -1.7628789639398543E-002
  0.11850000000000001          9.5197684418538916E-003
  0.11880000000000000          4.6202795781473349E-002
  0.11910000000000000          9.1036614308564995E-002
  0.11940000000000002         0.14085420090133810     
  0.11970000000000001         0.19235480667523736     
  0.12000000000000001         0.24149439785789428     
  0.12030000000000000         0.28438786903824209     
  0.12060000000000000         0.31697077930414391     
  0.12089999999999999         0.33597047590542689     
  0.12119999999999999         0.33903498923931685     
  0.12150000000000001         0.32470862482116175     
  0.12180000000000001         0.29259751512628851     
  0.12210000000000000         0.24386862976891424     
  0.12239999999999999         0.18012731556535827     
  0.12270000000000002         0.10426660334897818     
  0.12300000000000001          1.9467149770765097E-002
  0.12330000000000001         -7.0031333009999128E-002
  0.12360000000000000        -0.16034833291752412     
  0.12390000000000000        -0.24710245010835086     
  0.12419999999999999        -0.32603479845096611     
  0.12450000000000001        -0.39368809977235641     
  0.12480000000000001        -0.44615842846696352     
  0.12509999999999999        -0.48126496973530164     
  0.12540000000000001        -0.49636103876179788     
  0.12570000000000003        -0.49171840300890257     
  0.12600000000000000        -0.46652298210063292     
  0.12630000000000002        -0.42387424763404058     
  0.12659999999999999        -0.36490871107198691     
  0.12690000000000001        -0.29524679279244426     
  0.12719999999999998        -0.21801271493469754     
  0.12750000000000000        -0.13977654891935890     
  0.12780000000000002         -6.3930573882804903E-002
  0.12809999999999999          3.3285169282653397E-003
  0.12840000000000001          5.9834047004932056E-002
  0.12869999999999998         0.10139008302423951     
  0.12900000000000000         0.12794022818409154     
  0.12930000000000003         0.13812743726040888     
  0.12959999999999999         0.13419204047094502     
  0.12990000000000002         0.11676407370219309     
  0.13019999999999998          8.9583304010272868E-002
  0.13050000000000000          5.4729020793376514E-002
  0.13080000000000003          1.5990656645231412E-002
  0.13109999999999999         -2.3982348894037490E-002
  0.13140000000000002         -6.2053392466322639E-002
  0.13169999999999998         -9.5873449367352814E-002
  0.13200000000000001        -0.12341704005286926     
  0.13229999999999997        -0.14252389090631459     
  0.13260000000000000        -0.15290202862553964     
  0.13290000000000002        -0.15261386994213760     
  0.13319999999999999        -0.14293887343753053     
  0.13350000000000001        -0.12251361245634067     
  0.13380000000000003         -9.4348829673101181E-002
  0.13410000000000000         -5.7440652230104826E-002
  0.13440000000000002         -1.6333783854834465E-002
  0.13469999999999999          2.9811700202499403E-002
  0.13500000000000001          7.5372661818043848E-002
  0.13529999999999998         0.12146826611720027     
  0.13560000000000000         0.16239774919402572     
  0.13590000000000002         0.20047214005409650     
  0.13619999999999999         0.23052687443443232     
  0.13650000000000001         0.25597358862883696     
  0.13680000000000003         0.27247105225869728     
  0.13710000000000000         0.28453440716249523     
  0.13740000000000002         0.28850765288324065     
  0.13769999999999999         0.28899894430865802     
  0.13800000000000001         0.28261871377679926     
  0.13829999999999998         0.27350334534600934     
  0.13860000000000000         0.25847796736093931     
  0.13890000000000002         0.24079766439312236     
  0.13919999999999999         0.21765236020329548     
  0.13950000000000001         0.19185700368322509     
  0.13979999999999998         0.16143757812939630     
  0.14010000000000000         0.12911844822958152     
  0.14040000000000002          9.4047826180845756E-002
  0.14069999999999999          5.8994869504148853E-002
  0.14100000000000001          2.3975337959757443E-002
  0.14130000000000004         -8.1923263168424149E-003
  0.14160000000000000         -3.7059275235897735E-002
  0.14189999999999997         -6.0443623822671697E-002
  0.14219999999999999         -7.8356344026690131E-002
  0.14250000000000002         -8.9440327402450989E-002
  0.14279999999999998         -9.4156649442303827E-002
  0.14310000000000000         -9.2384215851964727E-002
  0.14339999999999997         -8.5233371789126919E-002
  0.14369999999999999         -7.3177825214987197E-002
  0.14400000000000002         -5.7743525858036805E-002
  0.14429999999999998         -3.9787733851462899E-002
  0.14460000000000001         -2.0978963946371311E-002
  0.14490000000000003         -2.2560801474888225E-003
  0.14520000000000000          1.4638201982491588E-002
  0.14550000000000002          2.9381738437225163E-002
  0.14579999999999999          4.0024856022395784E-002
  0.14610000000000001          4.7067409647024619E-002
  0.14640000000000003          4.8392737572215946E-002
  0.14670000000000000          4.5753656178835922E-002
  0.14699999999999996          3.7397084555274289E-002
  0.14729999999999999          2.6303657633822624E-002
  0.14760000000000001          1.0811061145580040E-002
  0.14789999999999998         -4.5916593021985844E-003
  0.14820000000000000         -2.1686184255636880E-002