  -1.4999999999999999E-002     0.0000000000000000     
  -1.4700000000000000E-002     0.0000000000000000     
  -1.4400000000000000E-002     0.0000000000000000     
  -1.4100000000000000E-002     0.0000000000000000     
  -1.3800000000000000E-002     0.0000000000000000     
  -1.3500000000000000E-002     0.0000000000000000     
  -1.3200000000000000E-002     0.0000000000000000     
  -1.2899999999999998E-002     0.0000000000000000     
  -1.2600000000000000E-002     0.0000000000000000     
  -1.2299999999999998E-002     0.0000000000000000     
  -1.2000000000000000E-002     0.0000000000000000     
  -1.1699999999999999E-002     0.0000000000000000     
  -1.1399999999999999E-002     0.0000000000000000     
  -1.1099999999999999E-002     0.0000000000000000     
  -1.0799999999999999E-002     0.0000000000000000     
  -1.0499999999999999E-002     0.0000000000000000     
  -1.0199999999999999E-002     0.0000000000000000     
  -9.8999999999999991E-003     0.0000000000000000     
  -9.5999999999999992E-003     0.0000000000000000     
  -9.2999999999999992E-003     0.0000000000000000     
  -8.9999999999999993E-003     0.0000000000000000     
  -8.6999999999999994E-003     0.0000000000000000     
  -8.3999999999999995E-003     0.0000000000000000     
  -8.0999999999999996E-003     0.0000000000000000     
  -7.7999999999999988E-003     0.0000000000000000     
  -7.4999999999999997E-003     0.0000000000000000     
  -7.1999999999999998E-003     0.0000000000000000     
  -6.8999999999999981E-003     0.0000000000000000     
  -6.5999999999999982E-003     0.0000000000000000     
  -6.3000000000000000E-003     0.0000000000000000     
  -6.0000000000000001E-003     0.0000000000000000     
  -5.6999999999999985E-003     0.0000000000000000     
  -5.3999999999999986E-003     0.0000000000000000     
  -5.1000000000000004E-003     0.0000000000000000     
  -4.7999999999999987E-003     0.0000000000000000     
  -4.5000000000000005E-003     0.0000000000000000     
  -4.1999999999999989E-003     0.0000000000000000     
  -3.8999999999999990E-003     0.0000000000000000     
  -3.5999999999999990E-003     0.0000000000000000     
  -3.2999999999999991E-003     0.0000000000000000     
  -2.9999999999999992E-003     0.0000000000000000     
  -2.6999999999999993E-003     0.0000000000000000     
  -2.3999999999999994E-003     0.0000000000000000     
  -2.0999999999999977E-003     0.0000000000000000     
  -1.7999999999999995E-003     0.0000000000000000     
  -1.4999999999999979E-003     0.0000000000000000     
  -1.1999999999999997E-003     0.0000000000000000     
  -8.9999999999999976E-004     0.0000000000000000     
  -5.9999999999999810E-004     0.0000000000000000     
  -2.9999999999999992E-004     0.0000000000000000     
   0.0000000000000000          0.0000000000000000     
   3.0000000000000165E-004     0.0000000000000000     
   5.9999999999999984E-004     0.0000000000000000     
   9.0000000000000149E-004     0.0000000000000000     
   1.2000000000000031E-003     0.0000000000000000     
   1.5000000000000013E-003     0.0000000000000000     
   1.8000000000000030E-003     0.0000000000000000     
   2.1000000000000012E-003     0.0000000000000000     
   2.3999999999999994E-003     0.0000000000000000     
   2.7000000000000010E-003     0.0000000000000000     
   2.9999999999999992E-003     0.0000000000000000     
   3.3000000000000008E-003     0.0000000000000000     
   3.6000000000000025E-003     0.0000000000000000     
   3.9000000000000007E-003     0.0000000000000000     
   4.2000000000000023E-003     0.0000000000000000     
   4.5000000000000005E-003     0.0000000000000000     
   4.7999999999999987E-003     0.0000000000000000     
   5.1000000000000004E-003     0.0000000000000000     
   5.4000000000000020E-003     0.0000000000000000     
   5.7000000000000037E-003     0.0000000000000000     
   5.9999999999999984E-003     0.0000000000000000     
   6.3000000000000000E-003     0.0000000000000000     
   6.6000000000000017E-003     0.0000000000000000     
   6.9000000000000034E-003     0.0000000000000000     
   7.2000000000000015E-003     0.0000000000000000     
   7.5000000000000032E-003     0.0000000000000000     
   7.8000000000000014E-003     0.0000000000000000     
   8.0999999999999996E-003     0.0000000000000000     
   8.4000000000000012E-003     0.0000000000000000     
   8.7000000000000029E-003     0.0000000000000000     
   9.0000000000000011E-003     0.0000000000000000     
   9.2999999999999992E-003     0.0000000000000000     
   9.6000000000000009E-003     0.0000000000000000     
   9.8999999999999991E-003     0.0000000000000000     
   1.0200000000000001E-002     0.0000000000000000     
   1.0500000000000002E-002     0.0000000000000000     
   1.0800000000000004E-002     0.0000000000000000     
   1.1099999999999999E-002     0.0000000000000000     
   1.1400000000000000E-002     0.0000000000000000     
   1.1700000000000002E-002     0.0000000000000000     
   1.2000000000000004E-002     0.0000000000000000     
   1.2300000000000002E-002     0.0000000000000000     
   1.2600000000000000E-002     0.0000000000000000     
   1.2900000000000002E-002     0.0000000000000000     
   1.3200000000000000E-002     0.0000000000000000     
   1.3500000000000002E-002     0.0000000000000000     
   1.3800000000000003E-002     0.0000000000000000     
   1.4100000000000001E-002     0.0000000000000000     
   1.4400000000000000E-002     0.0000000000000000     
   1.4700000000000001E-002     0.0000000000000000     
   1.4999999999999999E-002     0.0000000000000000     
   1.5300000000000001E-002     0.0000000000000000     
   1.5600000000000003E-002     0.0000000000000000     
   1.5899999999999997E-002     0.0000000000000000     
   1.6199999999999999E-002     0.0000000000000000     
   1.6500000000000001E-002     0.0000000000000000     
   1.6800000000000002E-002     0.0000000000000000     
   1.7100000000000004E-002     0.0000000000000000     
   1.7400000000000006E-002     0.0000000000000000     
   1.7700000000000000E-002     0.0000000000000000     
   1.8000000000000002E-002     0.0000000000000000     
   1.8300000000000004E-002     0.0000000000000000     
   1.8600000000000005E-002     0.0000000000000000     
   1.8900000000000000E-002     0.0000000000000000     
   1.9200000000000002E-002     0.0000000000000000     
   1.9500000000000003E-002     0.0000000000000000     
   1.9799999999999998E-002     0.0000000000000000     
   2.0100000000000000E-002     0.0000000000000000     
   2.0400000000000001E-002     0.0000000000000000     
   2.0700000000000003E-002     0.0000000000000000     
   2.0999999999999998E-002     0.0000000000000000     
   2.1299999999999999E-002     0.0000000000000000     
   2.1600000000000001E-002     0.0000000000000000     
   2.1900000000000003E-002     0.0000000000000000     
   2.2200000000000004E-002     0.0000000000000000     
   2.2500000000000006E-002     0.0000000000000000     
   2.2800000000000001E-002     0.0000000000000000     
   2.3100000000000002E-002     0.0000000000000000     
   2.3400000000000004E-002     0.0000000000000000     
   2.3699999999999999E-002     0.0000000000000000     
   2.4000000000000000E-002     0.0000000000000000     
   2.4300000000000002E-002     0.0000000000000000     
   2.4599999999999997E-002     0.0000000000000000     
   2.4900000000000005E-002     0.0000000000000000     
   2.5200000000000000E-002     0.0000000000000000     
   2.5499999999999995E-002     0.0000000000000000     
   2.5800000000000003E-002    -8.1063591923076241E-059
   2.6099999999999998E-002     7.9371083169254536E-058
   2.6400000000000007E-002    -5.5056154317576336E-057
   2.6700000000000002E-002    -1.1833818569265293E-051
   2.6999999999999996E-002     2.7830510620961106E-044
   2.7300000000000005E-002    -3.5588239540500519E-043
   2.7600000000000000E-002    -8.5698687913941789E-037
   2.7900000000000008E-002     9.2795979428461996E-036
   2.8200000000000003E-002    -8.7757684064431378E-035
   2.8499999999999998E-002     5.4004174886752760E-034
   2.8800000000000006E-002    -2.6362509674520579E-033
   2.9100000000000001E-002     1.1158442126859898E-032
   2.9400000000000003E-002    -3.5464345507228643E-032
   2.9700000000000004E-002     5.5419639363757423E-032
   3.0000000000000006E-002     1.5500440848843080E-031
   3.0300000000000001E-002    -1.5387253781669816E-030
   3.0600000000000002E-002     6.3589985247376544E-030
   3.0900000000000004E-002    -1.5393063559745596E-029
   3.1199999999999999E-002     6.9933111802086325E-030
   3.1500000000000007E-002     1.3500894267196872E-028
   3.1800000000000002E-002    -7.4248361449164893E-028
   3.2099999999999997E-002     2.1674781050931034E-027
   3.2400000000000005E-002    -2.5810212303974368E-027
   3.2700000000000000E-002    -1.0242876235641175E-026
   3.3000000000000002E-002     7.4464718572132570E-026
   3.3300000000000003E-002    -2.4464102791755954E-025
   3.3599999999999998E-002     4.0727791312824430E-025
   3.3900000000000000E-002     4.1422962592345130E-025
   3.4200000000000001E-002    -5.3538407421070370E-024
   3.4500000000000003E-002     1.9242046305992749E-023
   3.4799999999999998E-002    -3.6871329148194429E-023
   3.5099999999999999E-002     2.8702275616816496E-024
   3.5400000000000001E-002     2.4905676710079966E-022
   3.5699999999999996E-002    -9.3342665165411905E-022
   3.6000000000000004E-002     1.7043622356909068E-021
   3.6299999999999999E-002    -8.3536636534931893E-023
   3.6600000000000008E-002    -9.7190094896655477E-021
   3.6900000000000002E-002     3.0972715686565286E-020
   3.7199999999999997E-002    -4.0382157302668272E-020
   3.7500000000000006E-002    -4.7216558387591412E-020
   3.7800000000000000E-002     3.4177068429366223E-019
   3.8100000000000009E-002    -6.8267599126562084E-019
   3.8400000000000004E-002     6.6041569880021333E-020
   3.8699999999999998E-002     3.2210711587229538E-018
   3.9000000000000007E-002    -8.1919253669952019E-018
   3.9300000000000002E-002     3.6317408322244168E-018
   3.9600000000000003E-002     3.1477931207675651E-017
   3.9900000000000005E-002    -8.7095339245278210E-017
   4.0200000000000000E-002     3.4020679769895471E-017
   4.0500000000000001E-002     3.4887275476795196E-016
   4.0800000000000003E-002    -8.5399152028980503E-016
   4.1100000000000005E-002    -5.0392087107641143E-017
   4.1399999999999999E-002     4.2073262726734050E-015
   4.1700000000000008E-002    -7.2045107917843267E-015
   4.2000000000000003E-002    -8.0306902909292532E-015
   4.2299999999999997E-002     4.8041392584970784E-014
   4.2600000000000006E-002    -3.7645630641025570E-014
   4.2900000000000001E-002    -1.7278946279430180E-013
   4.3200000000000002E-002     4.3313837194224223E-013
   4.3500000000000004E-002     2.0567137344418114E-013
   4.3799999999999999E-002    -2.2946277859915047E-012
   4.4100000000000000E-002     1.9661928521361266E-012
   4.4400000000000002E-002     8.0609064604569449E-012
   4.4700000000000004E-002    -1.7796628808628830E-011
   4.4999999999999998E-002    -1.7037297127012601E-011
   4.5300000000000000E-002     9.3272626862355843E-011
   4.5600000000000002E-002    -7.8343761767514925E-012
   4.5899999999999996E-002    -3.8474531114494384E-010
   4.6200000000000005E-002     2.9171172651891112E-010
   4.6500000000000000E-002     1.3901736973458435E-009
   4.6799999999999994E-002    -1.8146174547454031E-009
   4.7100000000000003E-002    -4.7641442890708540E-009
   4.7399999999999998E-002     8.1720757091509383E-009
   4.7700000000000006E-002     1.6781426509636110E-008
   4.8000000000000001E-002    -3.0668375370260115E-008
   4.8300000000000010E-002    -6.5356862194911529E-008
   4.8600000000000004E-002     8.8201829142541894E-008
   4.8899999999999999E-002     2.4909435803322550E-007
   4.9200000000000008E-002    -1.8689538096758467E-007
   4.9500000000000002E-002    -9.4525228960658445E-007
   4.9800000000000011E-002     1.6017514158532732E-007
   5.0100000000000006E-002     5.2461469727318629E-006
   5.0400000000000000E-002     1.3252299384400473E-005
   5.0700000000000009E-002     2.1152371718597407E-005
   5.1000000000000004E-002     2.8929769824864337E-005
   5.1299999999999998E-002     4.0888519840588746E-005
   5.1600000000000007E-002     6.1642359325591407E-005
   5.1900000000000002E-002     9.4400892553449258E-005
   5.2200000000000010E-002     1.4447456211926323E-004
   5.2500000000000005E-002     2.2108816681968446E-004
   5.2800000000000000E-002     3.3457345491593230E-004
   5.3099999999999994E-002     4.9541288422637352E-004
   5.3400000000000003E-002     7.1814780651236669E-004
   5.3699999999999998E-002     1.0247106641268335E-003
   5.4000000000000006E-002     1.4434771661451875E-003
   5.4300000000000001E-002     2.0060608244791773E-003
   5.4599999999999996E-002     2.7451232404412263E-003
   5.4900000000000004E-002     3.6948270737806959E-003
   5.5199999999999999E-002     4.8918433830141767E-003
   5.5499999999999994E-002     6.3712963015027267E-003
   5.5800000000000002E-002     8.1584470292026690E-003
   5.6099999999999997E-002     1.0264062128998917E-002
   5.6400000000000006E-002     1.2679861682815850E-002
   5.6700000000000000E-002     1.5365738289442444E-002
   5.6999999999999995E-002     1.8237573973587561E-002
   5.7300000000000004E-002     2.1168749856544180E-002
   5.7599999999999998E-002     2.3994757127994690E-002
   5.7900000000000007E-002     2.6505180221748397E-002
   5.8200000000000002E-002     2.8435853221475682E-002
   5.8499999999999996E-002     2.9488950344488542E-002
   5.8800000000000005E-002     2.9363846243017373E-002
   5.9100000000000000E-002     2.7790049429121649E-002
   5.9400000000000008E-002     2.4540386086866321E-002
   5.9700000000000003E-002     1.9477139645702250E-002
   6.0000000000000012E-002     1.2596523293791309E-002
   6.0300000000000006E-002     4.0623663856342610E-003
   6.0600000000000001E-002    -5.7747631688923086E-003
   6.0900000000000010E-002    -1.6379700938351234E-002
   6.1200000000000004E-002    -2.7032290167821053E-002
   6.1500000000000013E-002    -3.6886309797770647E-002
   6.1800000000000008E-002    -4.5027806449044618E-002
   6.2100000000000002E-002    -5.0568954028375003E-002
   6.2399999999999997E-002    -5.2741139425125122E-002
   6.2700000000000006E-002    -5.1015274487090971E-002
   6.3000000000000000E-002    -4.5242444334382972E-002
   6.3300000000000009E-002    -3.5730979911172522E-002
   6.3600000000000004E-002    -2.3302793681825470E-002
   6.3899999999999998E-002    -9.2529882149798657E-003
   6.4199999999999993E-002     4.6231294364525617E-003
   6.4500000000000002E-002     1.6177755913586833E-002
   6.4800000000000010E-002     2.3044611661704312E-002
   6.5100000000000005E-002     2.2859851540659119E-002
   6.5400000000000000E-002     1.3504691564834588E-002
   6.5700000000000008E-002    -6.6988754791694836E-003
   6.5999999999999989E-002    -3.8691806368798175E-002
   6.6299999999999998E-002    -8.2571507860346019E-002
   6.6600000000000006E-002   -0.13736517329597536     
   6.6900000000000001E-002   -0.20105861674702613     
   6.7199999999999996E-002   -0.27054800120138017     
   6.7500000000000004E-002   -0.34178898792373258     
   6.7800000000000013E-002   -0.40994957768656720     
   6.8099999999999994E-002   -0.46962130492519094     
   6.8400000000000002E-002   -0.51530531346934627     
   6.8700000000000011E-002   -0.54154381470931978     
   6.8999999999999992E-002   -0.54342207789050245     
   6.9300000000000000E-002   -0.51700577906100265     
   6.9600000000000009E-002   -0.45945544219598100     
   6.9900000000000004E-002   -0.36967607004795988     
   7.0199999999999999E-002   -0.24827215772916628     
   7.0500000000000007E-002    -9.7893190914282405E-002
   7.0800000000000016E-002     7.6813903594563360E-002
   7.1099999999999997E-002    0.26912241418324040     
   7.1400000000000005E-002    0.47067334102390523     
   7.1700000000000000E-002    0.67163591141245738     
   7.1999999999999995E-002    0.86108611406919089     
   7.2300000000000003E-002     1.0280024838954327     
   7.2600000000000012E-002     1.1614789802285452     
   7.2900000000000006E-002     1.2517720316299761     
   7.3200000000000001E-002     1.2909364579667364     
   7.3499999999999996E-002     1.2734779028642074     
   7.3800000000000004E-002     1.1969178857018841     
   7.4099999999999999E-002     1.0620925402507404     
   7.4400000000000008E-002    0.87363857110321619     
   7.4700000000000003E-002    0.63932812580166531     
   7.5000000000000011E-002    0.37032634619676624     
   7.5299999999999992E-002     8.0186948469606861E-002
   7.5600000000000001E-002   -0.21580544719641145     
   7.5900000000000009E-002   -0.50147174865122124     
   7.6200000000000004E-002   -0.76124190375630141     
   7.6499999999999999E-002   -0.98061381939921222     
   7.6800000000000007E-002    -1.1478749442624818     
   7.7099999999999988E-002    -1.2542790120094542     
   7.7399999999999997E-002    -1.2952904666722571     
   7.7700000000000005E-002    -1.2704867112698777     
   7.8000000000000014E-002    -1.1836433424127846     
   7.8299999999999995E-002    -1.0428512136309045     
   7.8600000000000003E-002   -0.85919869629533119     
   7.8900000000000012E-002   -0.64658106340455934     
   7.9199999999999993E-002   -0.42003516615389608     
   7.9500000000000001E-002   -0.19514706760523912     
   7.9800000000000010E-002     1.3657427540088691E-002
   8.0100000000000018E-002    0.19394149918687062     
   8.0399999999999999E-002    0.33588973597314364     
   8.0700000000000008E-002    0.43359444408729886     
   8.1000000000000003E-002    0.48459670871362581     
   8.1299999999999997E-002    0.49062184582664520     
   8.1600000000000006E-002    0.45653463769450064     
   8.1900000000000014E-002    0.39035828664293004     
   8.2199999999999995E-002    0.30208741856552851     
   8.2500000000000004E-002    0.20276711669896447     
   8.2799999999999999E-002    0.10386343676003498     
   8.3100000000000007E-002     1.5795087848850274E-002
   8.3400000000000002E-002    -5.2295822282490904E-002
   8.3700000000000011E-002    -9.3685912361612361E-002
   8.4000000000000005E-002   -0.10394386802249495     
   8.4300000000000000E-002    -8.1348490009471253E-002
   8.4599999999999995E-002    -2.6991966424371606E-002
   8.4900000000000003E-002     5.6227013130836966E-002
   8.5199999999999998E-002    0.16296520174814039     
   8.5500000000000007E-002    0.28702311665235164     
   8.5800000000000001E-002    0.42104129458292405     
   8.6100000000000010E-002    0.55753988945928756     
   8.6399999999999991E-002    0.68904078387554113     
   8.6699999999999999E-002    0.80862778318218120     
   8.7000000000000008E-002    0.91025644034491082     
   8.7300000000000003E-002    0.98848121593647253     
   8.7599999999999997E-002     1.0393481167390566     
   8.7900000000000006E-002     1.0596320547831857     
   8.8200000000000014E-002     1.0473505199223867     
   8.8499999999999995E-002     1.0017986273024950     
   8.8800000000000004E-002    0.92306971755712552     
   8.9100000000000013E-002    0.81287253597550690     
   8.9399999999999993E-002    0.67365713115796444     
   8.9700000000000002E-002    0.50946809478086597     
   9.0000000000000011E-002    0.32500799461854912     
   9.0299999999999991E-002    0.12644708805772603     
   9.0600000000000000E-002    -7.9704724914687441E-002
   9.0900000000000009E-002   -0.28624893183651479     
   9.1200000000000017E-002   -0.48579565937564873     
   9.1499999999999998E-002   -0.67144416460931677     
   9.1800000000000007E-002   -0.83685629794397964     
   9.2100000000000001E-002   -0.97715425319766003     
   9.2399999999999996E-002    -1.0887274786779642     
   9.2700000000000005E-002    -1.1699314221942121     
   9.3000000000000013E-002    -1.2211206117788718     
   9.3300000000000008E-002    -1.2442766634156379     
   9.3600000000000003E-002    -1.2433700805490167     
   9.3899999999999997E-002    -1.2230352437727361     
   9.4200000000000006E-002    -1.1893217859385043     
   9.4500000000000001E-002    -1.1475832774033787     
   9.4800000000000009E-002    -1.1032221639348909     
   9.5100000000000004E-002    -1.0601929755722723     
   9.5399999999999999E-002    -1.0209580994502852     
   9.5699999999999993E-002   -0.98612651623970182     
   9.6000000000000002E-002   -0.95424172687338393     
   9.6300000000000011E-002   -0.92244139679013692     
   9.6600000000000005E-002   -0.88605824382288068     
   9.6900000000000000E-002   -0.83998498405062139     
   9.7200000000000009E-002   -0.77889075659914864     
   9.7499999999999989E-002   -0.69816073129218847     
   9.7799999999999998E-002   -0.59460975494688650     
   9.8100000000000007E-002   -0.46683193286861840     
   9.8400000000000015E-002   -0.31613895470218095     
   9.8699999999999996E-002   -0.14591873404858738     
   9.9000000000000005E-002     3.7539455415662663E-002
   9.9300000000000013E-002    0.22646032112481004     
   9.9599999999999994E-002    0.41141743262862318     
   9.9900000000000003E-002    0.58249984826901380     
  0.10020000000000001         0.73046564363577482     
  0.10049999999999999         0.84700774872714746     
  0.10080000000000000         0.92627757656106924     
  0.10110000000000001         0.96495866498914817     
  0.10140000000000000         0.96319871423123660     
  0.10170000000000000         0.92423562764738709     
  0.10200000000000001         0.85433987397633560     
  0.10230000000000002         0.76274981584933255     
  0.10260000000000000         0.65977675982836859     
  0.10290000000000001         0.55758643148397247     
  0.10320000000000000         0.46730278717472445     
  0.10350000000000001         0.39959231699899794     
  0.10380000000000000         0.36257087953270878     
  0.10410000000000001         0.36177026302892140     
  0.10440000000000001         0.39923231442734253     
  0.10470000000000000         0.47346578525837490     
  0.10500000000000000         0.57964761656680697     
  0.10530000000000000         0.70944817844647179     
  0.10560000000000000         0.85258462610240426     
  0.10590000000000001         0.99678120378449009     
  0.10620000000000000          1.1292520591022102     
  0.10650000000000001          1.2378493475000196     
  0.10679999999999999          1.3111504345525413     
  0.10710000000000000          1.3405531771087424     
  0.10740000000000001          1.3195183493561629     
  0.10770000000000000          1.2451803977958771     
  0.10800000000000000          1.1175259707291174     
  0.10830000000000001         0.93985311198691679     
  0.10859999999999999         0.71804772055955624     
  0.10890000000000000         0.46041021993298076     
  0.10920000000000001         0.17710010246827268     
  0.10950000000000001        -0.12097881114903906     
  0.10979999999999999        -0.42184606176805184     
  0.11009999999999999        -0.71377865227662096     
  0.11040000000000001        -0.98528467261057617     
  0.11070000000000001         -1.2252935133783527     
  0.11100000000000000         -1.4244427742946166     
  0.11130000000000000         -1.5740654627932067     
  0.11160000000000002         -1.6675318727368009     
  0.11190000000000001         -1.7000320281142784     
  0.11220000000000001         -1.6694069288764755     
  0.11250000000000000         -1.5758431372375299     
  0.11280000000000000         -1.4226398893044050     
  0.11309999999999999         -1.2164897136219532     
  0.11340000000000001        -0.96667817965362668     
  0.11369999999999998        -0.68589511642996492     
  0.11400000000000000        -0.38895111641559482     
  0.11430000000000000         -9.2292107537986487E-002
  0.11460000000000002         0.18692954800012679     
  0.11489999999999999         0.43208363945537320     
  0.11520000000000001         0.62798489213911513     
  0.11550000000000001         0.76281942628069610     
  0.11580000000000000         0.82820995785013696     
  0.11609999999999999         0.82079853963149185     
  0.11640000000000002         0.74200531199263220     
  0.11670000000000001         0.59875222200128064     
  0.11700000000000001         0.40241121043717221     
  0.11730000000000000         0.16824884528638906     
  0.11760000000000000         -8.5419133066390665E-002
  0.11789999999999999        -0.33927261598560343     
  0.11820000000000001        -0.57402861382224302     
  0.11850000000000001        -0.77212894628460427     
  0.11880000000000000        -0.91887421364829258     
  0.11910000000000000         -1.0040036550305158     
  0.11940000000000002         -1.0222348086758701     
  0.11970000000000001        -0.97311253378180318     
  0.12000000000000001        -0.86182547444412883     
  0.12030000000000000        -0.69773328888976249     
  0.12060000000000000        -0.49403122374878150     
  0.12089999999999999        -0.26618143959309204     
  0.12119999999999999         -3.0867876629098193E-002
  0.12150000000000001         0.19567105499601503     
  0.12180000000000001         0.39908126390940740     
  0.12210000000000000         0.56743556640398940     
  0.12239999999999999         0.69275486748927984     
  0.12270000000000002         0.77091437694691756     
  0.12300000000000001         0.80196159984811943     
  0.12330000000000001         0.78959113042835471     
  0.12360000000000000         0.74084793996687703     
  0.12390000000000000         0.66494112512747283     
  0.12419999999999999         0.57201223780244692     
  0.12450000000000001         0.47287773290978613     
  0.12480000000000001         0.37702321312272691     
  0.12509999999999999         0.29253395903942220     
  0.12540000000000001         0.22526472613084148     
  0.12570000000000003         0.17843407573198430     
  0.12600000000000000         0.15288589005612277     
  0.12630000000000002         0.14695222222382509     
  0.12659999999999999         0.15754915725209018     
  0.12690000000000001         0.18019894067392506     
  0.12719999999999998         0.21008828837386453     
  0.12750000000000000         0.24237412910089567     
  0.12780000000000002         0.27329882199837136     
  0.12809999999999999         0.29984109701134842     
  0.12840000000000001         0.31991343579592868     
  0.12869999999999998         0.33296327359421390     
  0.12900000000000000         0.33859111069352804     
  0.12930000000000003         0.33679906331684140     
  0.12959999999999999         0.32737803871956461     
  0.12990000000000002         0.30939906899154396     
  0.13019999999999998         0.28089877728918650     
  0.13050000000000000         0.23905936898265001     
  0.13080000000000003         0.18016172280034504     
  0.13109999999999999          9.9935292545269228E-002
  0.13140000000000002         -5.1732297336505055E-003
  0.13169999999999998        -0.13800777084114002     
  0.13200000000000001        -0.29925788695170841     
  0.13229999999999997        -0.48695720703860867     
  0.13260000000000000        -0.69621707731044546     
  0.13290000000000002        -0.91859223495566689     
  0.13319999999999999         -1.1426252364854204     
  0.13350000000000001         -1.3541487728762021     
  0.13380000000000003         -1.5376164026110493     
  0.13410000000000000         -1.6767092081314710     
  0.13440000000000002         -1.7565111265550906     
  0.13469999999999999         -1.7642348156073786     
  0.13500000000000001         -1.6910508005619715     
  0.13529999999999998         -1.5329891734665237     
  0.13560000000000000         -1.2913421631915012     
  0.13590000000000002        -0.97356386710052301     
  0.13619999999999999        -0.59221435511944620     
  0.13650000000000001        -0.16481506866044188     
  0.13680000000000003         0.28730175765144250     
  0.13710000000000000         0.74086626127508881     
  0.13740000000000002          1.1718985096977890     
  0.13769999999999999          1.5574890697734474     
  0.13800000000000001          1.8773157971522874     
  0.13829999999999998          2.1154463699445030     
  0.13860000000000000          2.2605147783736115     
  0.13890000000000002          2.3070781646792398     
  0.13919999999999999          2.2559583577597264     
  0.13950000000000001          2.1133919111639718     
  0.13979999999999998          1.8913764055164506     
  0.14010000000000000          1.6061243047421387     
  0.14040000000000002          1.2775546469776122     
  0.14069999999999999         0.92738170288372301     
  0.14100000000000001         0.57859504391115824     
  0.14130000000000004         0.25326233672583015     
  0.14160000000000000         -2.8267977448336069E-002
  0.14189999999999997        -0.24885511110163799     
  0.14219999999999999        -0.39577902648328939     
  0.14250000000000002        -0.46089417888824841     
  0.14279999999999998        -0.44231925175696046     
  0.14310000000000000        -0.34369620810538970     
  0.14339999999999997        -0.17428199233897254     
  0.14369999999999999          5.1165273934833166E-002
  0.14400000000000002         0.31375637520065403     
  0.14429999999999998         0.59154037655006009     
  0.14460000000000001         0.86085169607006717     
  0.14490000000000003          1.0976735948930896     
  0.14520000000000000          1.2802015005914840     
  0.14550000000000002          1.3891609391328470     
  0.14579999999999999          1.4096836503177803     
  0.14610000000000001          1.3324510434248025     
  0.14640000000000003          1.1537646501228513     
  0.14670000000000000         0.87593385259581136     
  0.14699999999999996         0.50711197089035043     
  0.14729999999999999          6.0508285742698807E-002
  0.14760000000000001        -0.44655494810733182     
  0.14789999999999998        -0.99338020605292665     
  0.14820000000000000         -1.5571827726317029     