  -1.4999999999999999E-002     0.0000000000000000     
  -1.4700000000000000E-002     0.0000000000000000     
  -1.4400000000000000E-002     0.0000000000000000     
  -1.4100000000000000E-002     0.0000000000000000     
  -1.3800000000000000E-002     0.0000000000000000     
  -1.3500000000000000E-002     0.0000000000000000     
  -1.3200000000000000E-002     0.0000000000000000     
  -1.2899999999999998E-002    -1.1990179870590385E-065
  -1.2600000000000000E-002     5.0425491816313346E-064
  -1.2299999999999998E-002    -5.4301101225903091E-036
  -1.2000000000000000E-002    -2.2218400980054873E-033
  -1.1699999999999999E-002     5.4170069476220481E-033
  -1.1399999999999999E-002     2.9811345642706287E-031
  -1.1099999999999999E-002    -1.0933328052632326E-030
  -1.0799999999999999E-002    -1.7072226053011876E-029
  -1.0499999999999999E-002     7.8591975482277515E-029
  -1.0199999999999999E-002     4.3371448340346376E-028
  -9.8999999999999991E-003    -2.5061160412192635E-027
  -9.5999999999999992E-003    -5.4136172154983350E-027
  -9.2999999999999992E-003     4.2471643880583859E-026
  -8.9999999999999993E-003     3.6549900028597897E-026
  -8.6999999999999994E-003    -4.3961510950733818E-025
  -8.3999999999999995E-003    -2.0520505486438666E-025
  -8.0999999999999996E-003     3.1963730275060235E-024
  -7.7999999999999988E-003     1.9322547990335866E-024
  -7.4999999999999997E-003    -1.8496752124926722E-023
  -7.1999999999999998E-003    -1.8775115368875474E-023
  -6.8999999999999981E-003     8.7909486899695426E-023
  -6.5999999999999982E-003     1.3683692011732903E-022
  -6.3000000000000000E-003    -3.4091827992500871E-022
  -6.0000000000000001E-003    -6.8188771048533515E-022
  -5.6999999999999985E-003     8.5387794984869555E-022
  -5.3999999999999986E-003     2.4649976385071673E-021
  -5.1000000000000004E-003     4.7620186662844646E-023
  -4.7999999999999987E-003    -7.1901155552884230E-021
  -4.5000000000000005E-003    -7.8771357812587035E-021
  -4.1999999999999989E-003     4.8788894114297045E-021
  -3.8999999999999990E-003     3.9589006603055152E-020
  -3.5999999999999990E-003     7.9786148766905555E-020
  -3.2999999999999991E-003    -1.6278864504878269E-019
  -2.9999999999999992E-003    -3.9936057566265035E-019
  -2.6999999999999993E-003     3.9136941673769109E-019
  -2.3999999999999994E-003     1.1094604841735869E-018
  -2.0999999999999977E-003    -5.0311266196664000E-019
  -1.7999999999999995E-003    -1.5295451700187861E-018
  -1.4999999999999979E-003     7.1152715181093265E-019
  -1.1999999999999997E-003    -5.0773903196090140E-018
  -8.9999999999999976E-004     1.0185797850541702E-018
  -5.9999999999999810E-004     3.4498911991530612E-017
  -2.9999999999999992E-004    -1.8682872949361604E-017
   0.0000000000000000         -7.4501560959661166E-017
   3.0000000000000165E-004     5.7216088500277364E-017
   5.9999999999999984E-004    -4.1784986600513355E-018
   9.0000000000000149E-004     7.2569345107066417E-018
   1.2000000000000031E-003     4.1788585176909940E-016
   1.5000000000000013E-003    -5.8272462319559594E-016
   1.8000000000000030E-003    -8.5587695575616575E-016
   2.1000000000000012E-003     2.0536186770127793E-015
   2.3999999999999994E-003    -9.9615662075481290E-016
   2.7000000000000010E-003    -3.0704887672170050E-015
   2.9999999999999992E-003     1.0141744951507115E-014
   3.3000000000000008E-003    -2.3919062102056518E-015
   3.6000000000000025E-003    -2.9588301503002572E-014
   3.9000000000000007E-003     2.5804457179117400E-014
   4.2000000000000023E-003     4.7164978507672708E-014
   4.5000000000000005E-003    -7.8272225161936496E-014
   4.7999999999999987E-003    -2.2026513001436230E-014
   5.1000000000000004E-003     1.5939943289908066E-013
   5.4000000000000020E-003    -1.0420710213949450E-013
   5.7000000000000037E-003    -2.4885318947153296E-013
   5.9999999999999984E-003     3.4846264487251885E-013
   6.3000000000000000E-003     3.0366773805528276E-013
   6.6000000000000017E-003    -6.0827990195139899E-013
   6.9000000000000034E-003    -2.5544188616215345E-013
   7.2000000000000015E-003     6.7820330307484134E-013
   7.5000000000000032E-003     3.6807181724165746E-014
   7.8000000000000014E-003    -4.7417561648953349E-013
   8.0999999999999996E-003     2.6193178610079718E-013
   8.4000000000000012E-003     3.5812866137803163E-013
   8.7000000000000029E-003    -9.9764425935920722E-014
   9.0000000000000011E-003    -1.1057933309138213E-012
   9.2999999999999992E-003    -1.5279342314230829E-012
   9.6000000000000009E-003     3.1284662536080590E-012
   9.8999999999999991E-003     5.1713368527037669E-012
   1.0200000000000001E-002    -5.5675221825286871E-012
   1.0500000000000002E-002    -9.4727368558309000E-012
   1.0800000000000004E-002     7.0494209133143938E-012
   1.1099999999999999E-002     1.1566165974887736E-011
   1.1400000000000000E-002    -8.8897926906859958E-012
   1.1700000000000002E-002    -1.1088217874344697E-011
   1.2000000000000004E-002     1.7306250201841433E-011
   1.2300000000000002E-002     1.3393748694806711E-011
   1.2600000000000000E-002    -3.7249594066314351E-011
   1.2900000000000002E-002    -2.2262996108690906E-011
   1.3200000000000000E-002     5.1669834269813755E-011
   1.3500000000000002E-002     2.1249353091335683E-011
   1.3800000000000003E-002     1.6172980404387410E-011
   1.4100000000000001E-002     3.8435608817874459E-011
   1.4400000000000000E-002    -3.5594088506038080E-010
   1.4700000000000001E-002    -2.3405950791881333E-010
   1.4999999999999999E-002     1.2820381250237011E-009
   1.5300000000000001E-002     6.7946895964860825E-010
   1.5600000000000003E-002    -2.7887026210901254E-009
   1.5899999999999997E-002    -1.2376727832050400E-009
   1.6199999999999999E-002     1.6323504170038065E-009
   1.6500000000000001E-002    -4.9346621035156101E-009
   1.6800000000000002E-002     9.8974395633104788E-009
   1.7100000000000004E-002     5.1995174889785346E-008
   1.7400000000000006E-002    -3.6734970921543281E-008
   1.7700000000000000E-002    -2.8338905778962356E-007
   1.8000000000000002E-002     1.0623354044520140E-007
   1.8300000000000004E-002     2.6494405170510031E-006
   1.8600000000000005E-002     8.3730140790050289E-006
   1.8900000000000000E-002     1.7198186630212065E-005
   1.9200000000000002E-002     2.8449499493667475E-005
   1.9500000000000003E-002     4.0482189859574530E-005
   1.9799999999999998E-002     5.0395073643918445E-005
   2.0100000000000000E-002     5.8456052179566024E-005
   2.0400000000000001E-002     7.4413370302253928E-005
   2.0700000000000003E-002     1.1342971169096217E-004
   2.0999999999999998E-002     1.8037034649976587E-004
   2.1299999999999999E-002     2.6270490279297785E-004
   2.1600000000000001E-002     3.4645023682277411E-004
   2.1900000000000003E-002     4.3610076992283867E-004
   2.2200000000000004E-002     5.4831824082667946E-004
   2.2500000000000006E-002     6.8256343729213508E-004
   2.2800000000000001E-002     8.0311416867655304E-004
   2.3100000000000002E-002     8.4934838158984684E-004
   2.3400000000000004E-002     7.4965424406181382E-004
   2.3699999999999999E-002     4.0999736929264730E-004
   2.4000000000000000E-002    -3.1385203632030878E-004
   2.4300000000000002E-002    -1.6320539496396970E-003
   2.4599999999999997E-002    -3.8248443138649514E-003
   2.4900000000000005E-002    -7.2569628295837572E-003
   2.5200000000000000E-002    -1.2397831217859444E-002
   2.5499999999999995E-002    -1.9823599356574396E-002
   2.5800000000000003E-002    -3.0203757289155312E-002
   2.6099999999999998E-002    -4.4290549124988324E-002
   2.6400000000000007E-002    -6.2903402720257351E-002
   2.6700000000000002E-002    -8.6886984755704638E-002
   2.6999999999999996E-002   -0.11704769384884138     
   2.7300000000000005E-002   -0.15407599013305451     
   2.7600000000000000E-002   -0.19845186975366397     
   2.7900000000000008E-002   -0.25033830665513057     
   2.8200000000000003E-002   -0.30949645006746207     
   2.8499999999999998E-002   -0.37522403802245730     
   2.8800000000000006E-002   -0.44629887726880002     
   2.9100000000000001E-002   -0.52092788130630485     
   2.9400000000000003E-002   -0.59674021584695514     
   2.9700000000000004E-002   -0.67088427558846753     
   3.0000000000000006E-002   -0.74012466097491769     
   3.0300000000000001E-002   -0.80102051529667284     
   3.0600000000000002E-002   -0.85013318726728293     
   3.0900000000000004E-002   -0.88421279354903504     
   3.1199999999999999E-002   -0.90041196100857201     
   3.1500000000000007E-002   -0.89645027591151250     
   3.1800000000000002E-002   -0.87074219547767040     
   3.2099999999999997E-002   -0.82244389709317889     
   3.2400000000000005E-002   -0.75145584129247434     
   3.2700000000000000E-002   -0.65830541019219158     
   3.3000000000000002E-002   -0.54406733526640982     
   3.3300000000000003E-002   -0.41022642783291746     
   3.3599999999999998E-002   -0.25849548683086204     
   3.3900000000000000E-002    -9.0750888547554850E-002
   3.4200000000000001E-002     9.1022122995160201E-002
   3.4500000000000003E-002    0.28458309170436646     
   3.4799999999999998E-002    0.48742009228698513     
   3.5099999999999999E-002    0.69651406087634882     
   3.5400000000000001E-002    0.90812090272987067     
   3.5699999999999996E-002     1.1178730883826002     
   3.6000000000000004E-002     1.3205492517742956     
   3.6299999999999999E-002     1.5101221719130615     
   3.6600000000000008E-002     1.6803251362344600     
   3.6900000000000002E-002     1.8248786765488560     
   3.7199999999999997E-002     1.9379039867903427     
   3.7500000000000006E-002     2.0148509674431980     
   3.7800000000000000E-002     2.0525122920908880     
   3.8100000000000009E-002     2.0495659289630463     
   3.8400000000000004E-002     2.0070447064657091     
   3.8699999999999998E-002     1.9276922253086606     
   3.9000000000000007E-002     1.8159286456485340     
   3.9300000000000002E-002     1.6773185369045469     
   3.9600000000000003E-002     1.5176337735186483     
   3.9900000000000005E-002     1.3426002154202226     
   4.0200000000000000E-002     1.1571449013736648     
   4.0500000000000001E-002    0.96494376889631372     
   4.0800000000000003E-002    0.76878083195241997     
   4.1100000000000005E-002    0.57043725651945509     
   4.1399999999999999E-002    0.37167868176964336     
   4.1700000000000008E-002    0.17488828087836480     
   4.2000000000000003E-002    -1.6419108106676666E-002
   4.2299999999999997E-002   -0.19644955926183982     
   4.2600000000000006E-002   -0.35751451644708471     
   4.2900000000000001E-002   -0.48971505990689068     
   4.3200000000000002E-002   -0.58175715258623517     
   4.3500000000000004E-002   -0.62245896340872708     
   4.3799999999999999E-002   -0.60167351712564376     
   4.4100000000000000E-002   -0.51251379537562280     
   4.4400000000000002E-002   -0.35305367428125911     
   4.4700000000000004E-002   -0.12762270112176413     
   4.4999999999999998E-002    0.15213181052666255     
   4.5300000000000000E-002    0.46685596483288427     
   4.5600000000000002E-002    0.79013191119505710     
   4.5899999999999996E-002     1.0899793299325995     
   4.6200000000000005E-002     1.3309219252165931     
   4.6500000000000000E-002     1.4767589962359193     
   4.6799999999999994E-002     1.4938821077705691     
   4.7100000000000003E-002     1.3543468153838942     
   4.7399999999999998E-002     1.0391255291594896     
   4.7700000000000006E-002    0.54117202693589739     
   4.8000000000000001E-002   -0.13383144664576221     
   4.8300000000000010E-002   -0.96529171102499278     
   4.8600000000000004E-002    -1.9185542843736505     
   4.8899999999999999E-002    -2.9466839234740494     
   4.9200000000000008E-002    -3.9916739270639350     
   4.9500000000000002E-002    -4.9891850182505140     
   4.9800000000000011E-002    -5.8722668793708639     
   5.0100000000000006E-002    -6.5758152678344519     
   5.0400000000000000E-002    -7.0421820053196758     
   5.0700000000000009E-002    -7.2248063305441086     
   5.1000000000000004E-002    -7.0931039106401945     
   5.1299999999999998E-002    -6.6348619937291611     
   5.1600000000000007E-002    -5.8581405585702591     
   5.1900000000000002E-002    -4.7919160447375289     
   5.2200000000000010E-002    -3.4835140609471065     
   5.2500000000000005E-002    -1.9973121500479081     
   5.2800000000000000E-002   -0.41003045592079668     
   5.3099999999999994E-002     1.1956966673769647     
   5.3400000000000003E-002     2.7343479146526830     
   5.3699999999999998E-002     4.1260941053970779     
   5.4000000000000006E-002     5.3011867239295816     
   5.4300000000000001E-002     6.2036534364604714     
   5.4599999999999996E-002     6.7972527146581587     
   5.4900000000000004E-002     7.0657253664602271     
   5.5199999999999999E-002     7.0138783870317631     
   5.5499999999999994E-002     6.6671138438533477     
   5.5800000000000002E-002     6.0681968743711368     
   5.6099999999999997E-002     5.2741691195895219     
   5.6400000000000006E-002     4.3513500404020826     
   5.6700000000000000E-002     3.3707514136784962     
   5.6999999999999995E-002     2.4018827409440915     
   5.7300000000000004E-002     1.5079169545224351     
   5.7599999999999998E-002    0.74209810584129643     
   5.7900000000000007E-002    0.14229412637417135     
   5.8200000000000002E-002   -0.27007623430390948     
   5.8499999999999996E-002   -0.49101860001945002     
   5.8800000000000005E-002   -0.53588298339120699     
   5.9100000000000000E-002   -0.43550489123091957     
   5.9400000000000008E-002   -0.23492425758485372     
   5.9700000000000003E-002     1.0245189280555698E-002
   6.0000000000000012E-002    0.24005071545934689     
   6.0300000000000006E-002    0.39308946661355731     
   6.0600000000000001E-002    0.41344451361198542     
   6.0900000000000010E-002    0.25559249659408406     
   6.1200000000000004E-002   -0.11104089918555279     
   6.1500000000000013E-002   -0.69790825304170534     
   6.1800000000000008E-002    -1.4945764071591807     
   6.2100000000000002E-002    -2.4672397923909446     
   6.2399999999999997E-002    -3.5590316460307481     
   6.2700000000000006E-002    -4.6926158972856644     
   6.3000000000000000E-002    -5.7735671076493915     
   6.3300000000000009E-002    -6.6970271176145886     
   6.3600000000000004E-002    -7.3555235070073417     
   6.3899999999999998E-002    -7.6468862834764080     
   6.4199999999999993E-002    -7.4857682689113130     
   6.4500000000000002E-002    -6.8131026877560910     
   6.4800000000000010E-002    -5.6037254088075130     
   6.5100000000000005E-002    -3.8765411149096303     
   6.5400000000000000E-002    -1.6967922130719244     
   6.5700000000000008E-002    0.82303070405085532     
   6.5999999999999989E-002     3.5248201768064771     
   6.6299999999999998E-002     6.2148906124547407     
   6.6600000000000006E-002     8.6765119498220091     
   6.6900000000000001E-002     10.684278729382349     
   6.7199999999999996E-002     12.026094731411602     
   6.7500000000000004E-002     12.522056919650854     
   6.7800000000000013E-002     12.042428387839552     
   6.8099999999999994E-002     10.526388551826892     
   6.8400000000000002E-002     7.9914764327069170     
   6.8700000000000011E-002     4.5385550090209863     
   6.8999999999999992E-002    0.35035638710003253     
   6.9300000000000000E-002    -4.3196223061616434     
   6.9600000000000009E-002    -9.1643885349160108     
   6.9900000000000004E-002    -13.846019719515219     
   7.0199999999999999E-002    -18.022596430378179     
   7.0500000000000007E-002    -21.376762550745134     
   7.0800000000000016E-002    -23.640472648501270     
   7.1099999999999997E-002    -24.618925388049355     
   7.1400000000000005E-002    -24.205562920074378     
   7.1700000000000000E-002    -22.391020161882942     
   7.1999999999999995E-002    -19.262144419988843     
   7.2300000000000003E-002    -14.994181936524749     
   7.2600000000000012E-002    -9.8344366791228968     
   7.2900000000000006E-002    -4.0805494540547933     
   7.3200000000000001E-002     1.9426145103072701     
   7.3499999999999996E-002     7.9100745915590478     
   7.3800000000000004E-002     13.519550239598093     
   7.4099999999999999E-002     18.510896621059338     
   7.4400000000000008E-002     22.682401602887616     
   7.4700000000000003E-002     25.896350798788237     
   7.5000000000000011E-002     28.083009637138325     
   7.5299999999999992E-002     29.235019569692284     
   7.5600000000000001E-002     29.399038162519272     
   7.5900000000000009E-002     28.663774297452399     
   7.6200000000000004E-002     27.145721203607660     
   7.6499999999999999E-002     24.976306649684918     
   7.6800000000000007E-002     22.289851851621393     
   7.7099999999999988E-002     19.213016204493353     
   7.7399999999999997E-002     15.861444164734088     
   7.7700000000000005E-002     12.334002195344203     
   7.8000000000000014E-002     8.7129714081577170     
   7.8299999999999995E-002     5.0694477459894376     
   7.8600000000000003E-002     1.4621632398432451     
   7.8900000000000012E-002    -2.0557731814567766     
   7.9199999999999993E-002    -5.4324380059145412     
   7.9500000000000001E-002    -8.6181040343198116     
   7.9800000000000010E-002    -11.559855456721678     
   8.0100000000000018E-002    -14.203510221958773     
   8.0399999999999999E-002    -16.496765017715862     
   8.0700000000000008E-002    -18.388269251747165     
   8.1000000000000003E-002    -19.832971350584682     
   8.1299999999999997E-002    -20.796685906253440     
   8.1600000000000006E-002    -21.256326371759133     
   8.1900000000000014E-002    -21.204566621823151     
   8.2199999999999995E-002    -20.652160288864511     
   8.2500000000000004E-002    -19.627067196968177     
   8.2799999999999999E-002    -18.173638923696263     
   8.3100000000000007E-002    -16.353938686345952     
   8.3400000000000002E-002    -14.241875290227394     
   8.3700000000000011E-002    -11.920202869566902     
   8.4000000000000005E-002    -9.4785486897187567     
   8.4300000000000000E-002    -7.0053936986898258     
   8.4599999999999995E-002    -4.5859157936205470     
   8.4900000000000003E-002    -2.2979171546590629     
   8.5199999999999998E-002   -0.20574606052462868     
   8.5500000000000007E-002     1.6395116005791532     
   8.5800000000000001E-002     3.2040010473708738     
   8.6100000000000010E-002     4.4711223278396881     
   8.6399999999999991E-002     5.4408316928876443     
   8.6699999999999999E-002     6.1291046184996123     
   8.7000000000000008E-002     6.5641765402414416     
   8.7300000000000003E-002     6.7856659502171475     
   8.7599999999999997E-002     6.8398990084941609     
   8.7900000000000006E-002     6.7754315651317603     
   8.8200000000000014E-002     6.6422013445882326     
   8.8499999999999995E-002     6.4854187074097220     
   8.8800000000000004E-002     6.3428777655779882     
   8.9100000000000013E-002     6.2451757287758713     
   8.9399999999999993E-002     6.2094973305330292     
   8.9700000000000002E-002     6.2420695871664966     
   9.0000000000000011E-002     6.3379562809472398     
   9.0299999999999991E-002     6.4784811308960331     
   9.0600000000000000E-002     6.6375620991486164     
   9.0900000000000009E-002     6.7817495371396790     
   9.1200000000000017E-002     6.8711002270983794     
   9.1499999999999998E-002     6.8683832020854156     
   9.1800000000000007E-002     6.7379086321914574     
   9.2100000000000001E-002     6.4494307367623271     
   9.2399999999999996E-002     5.9846208500678149     
   9.2700000000000005E-002     5.3348162712536249     
   9.3000000000000013E-002     4.5049484498863190     
   9.3300000000000008E-002     3.5139013292699439     
   9.3600000000000003E-002     2.3911484513276968     
   9.3899999999999997E-002     1.1780389876386075     
   9.4200000000000006E-002    -7.6409320646760551E-002
   9.4500000000000001E-002    -1.3196816688209601     
   9.4800000000000009E-002    -2.4974212596757628     
   9.5100000000000004E-002    -3.5578767935608653     
   9.5399999999999999E-002    -4.4564532688132248     
   9.5699999999999993E-002    -5.1557187307357983     
   9.6000000000000002E-002    -5.6302250960213236     
   9.6300000000000011E-002    -5.8676475549950862     
   9.6600000000000005E-002    -5.8678444867213670     
   9.6900000000000000E-002    -5.6444591554433838     
   9.7200000000000009E-002    -5.2245773417685131     
   9.7499999999999989E-002    -4.6442579470844327     
   9.7799999999999998E-002    -3.9491817317541975     
   9.8100000000000007E-002    -3.1904136626671034     
   9.8400000000000015E-002    -2.4209282009444579     
   9.8699999999999996E-002    -1.6934938144663130     
   9.9000000000000005E-002    -1.0553793697949760     
   9.9300000000000013E-002   -0.54557309859829262     
   9.9599999999999994E-002   -0.19396503147157845     
   9.9900000000000003E-002    -1.5568691349969846E-002
  0.10020000000000001         -1.3026907578306759E-002
  0.10049999999999999        -0.17414339687770392     
  0.10080000000000000        -0.47272635535854857     
  0.10110000000000001        -0.87206011631266245     
  0.10140000000000000         -1.3269392666200279     
  0.10170000000000000         -1.7870747128368596     
  0.10200000000000001         -2.2022222440551000     
  0.10230000000000002         -2.5252312493920068     
  0.10260000000000000         -2.7170683168785787     
  0.10290000000000001         -2.7493015547070114     
  0.10320000000000000         -2.6073619192324085     
  0.10350000000000001         -2.2911633414291384     
  0.10380000000000000         -1.8143703050783837     
  0.10410000000000001         -1.2046659486347544     
  0.10440000000000001        -0.49996484541875486     
  0.10470000000000000         0.25565799360104419     
  0.10500000000000000          1.0137393440428093     
  0.10530000000000000          1.7279419605682078     
  0.10560000000000000          2.3565868794625375     
  0.10590000000000001          2.8660272801892619     
  0.10620000000000000          3.2326647313468615     
  0.10650000000000001          3.4452697190193367     
  0.10679999999999999          3.5031987520518597     
  0.10710000000000000          3.4159633014523845     
  0.10740000000000001          3.2024783051679768     
  0.10770000000000000          2.8870569739862297     
  0.10800000000000000          2.4973649218047660     
  0.10830000000000001          2.0629178906870007     
  0.10859999999999999          1.6109125245798770     
  0.10890000000000000          1.1664297410473730     
  0.10920000000000001         0.75083130670834286     
  0.10950000000000001         0.38070429860392119     
  0.10979999999999999          6.8510765294552647E-002
  0.11009999999999999        -0.17727926511931064     
  0.11040000000000001        -0.35282123367783796     
  0.11070000000000001        -0.45756671766223439     
  0.11100000000000000        -0.49414350609091462     
  0.11130000000000000        -0.46889576708320357     
  0.11160000000000002        -0.39168785932786432     
  0.11190000000000001        -0.27427304209663184     
  0.11220000000000001        -0.13200110436218784     
  0.11250000000000000          1.7828824537311945E-002
  0.11280000000000000         0.15835286334073925     
  0.11309999999999999         0.27108373768891209     
  0.11340000000000001         0.34088709844986215     
  0.11369999999999998         0.35617253909526370     
  0.11400000000000000         0.30882753867799045     
  0.11430000000000000         0.19807908375348662     
  0.11460000000000002          2.9216671974425790E-002
  0.11489999999999999        -0.18728459538573577     
  0.11520000000000001        -0.43391657393770927     
  0.11550000000000001        -0.68979640874066772     
  0.11580000000000000        -0.93250549755040857     
  0.11609999999999999         -1.1386408221749420     
  0.11640000000000002         -1.2873486847098343     
  0.11670000000000001         -1.3626460403687755     
  0.11700000000000001         -1.3530773528831765     
  0.11730000000000000         -1.2549290140989766     
  0.11760000000000000         -1.0719434799440211     
  0.11789999999999999        -0.81371721647324768     
  0.11820000000000001        -0.49725566654067488     
  0.11850000000000001        -0.14406075786396033     
  0.11880000000000000         0.22227946418073646     
  0.11910000000000000         0.57525423986317870     
  0.11940000000000002         0.89045831411854093     
  0.11970000000000001          1.1459015223357678     
  0.12000000000000001          1.3228418396851787     
  0.12030000000000000          1.4094609768173436     
  0.12060000000000000          1.3988425297234639     
  0.12089999999999999          1.2912032206639896     
  0.12119999999999999          1.0940684936371332     
  0.12150000000000001         0.81899032396458671     
  0.12180000000000001         0.48458723550325122     
  0.12210000000000000         0.11233148806877137     
  0.12239999999999999        -0.27471911562884532     
  0.12270000000000002        -0.65113942490396293     
  0.12300000000000001        -0.99345592425938967     
  0.12330000000000001         -1.2807963789770151     
  0.12360000000000000         -1.4949082971828198     
  0.12390000000000000         -1.6236338219771986     
  0.12419999999999999         -1.6593157830687979     
  0.12450000000000001         -1.6005109135712876     
  0.12480000000000001         -1.4522988405706780     
  0.12509999999999999         -1.2243116742324243     
  0.12540000000000001        -0.93196371192468785     
  0.12570000000000003        -0.59413734718320033     
  0.12600000000000000        -0.23154477620278535     
  0.12630000000000002         0.13272052433921910     
  0.12659999999999999         0.47703096492624741     
  0.12690000000000001         0.78133683980226687     
  0.12719999999999998          1.0284279487240982     
  0.12750000000000000          1.2064432956176525     
  0.12780000000000002          1.3078118389468429     
  0.12809999999999999          1.3299053714252538     
  0.12840000000000001          1.2766469518053838     
  0.12869999999999998          1.1557189033309332     
  0.12900000000000000         0.97865061177047241     
  0.12930000000000003         0.76103870536484719     
  0.12959999999999999         0.51872949572152571     
  0.12990000000000002         0.26863803579931261     
  0.13019999999999998          2.7307076755150244E-002
  0.13050000000000000        -0.19117641633407512     
  0.13080000000000003        -0.37493154291519487     
  0.13109999999999999        -0.51479923351720003     
  0.13140000000000002        -0.60604881681920852     
  0.13169999999999998        -0.64652507819751692     
  0.13200000000000001        -0.63732754446132489     
  0.13229999999999997        -0.58385276073225856     
  0.13260000000000000        -0.49290623600048589     
  0.13290000000000002        -0.37394138603891458     
  0.13319999999999999        -0.23839750451932556     
  0.13350000000000001         -9.7304631765713898E-002
  0.13380000000000003          3.7443129079362564E-002
  0.13410000000000000         0.15502221912963834     
  0.13440000000000002         0.24650970023154947     
  0.13469999999999999         0.30506720969968354     
  0.13500000000000001         0.32674103749916478     
  0.13529999999999998         0.31040438760862510     
  0.13560000000000000         0.25803807130577594     
  0.13590000000000002         0.17485098334809587     
  0.13619999999999999          6.7906929650803347E-002
  0.13650000000000001         -5.3567767644256137E-002
  0.13680000000000003        -0.17967635329879020     
  0.13710000000000000        -0.30057591022639124     
  0.13740000000000002        -0.40627139514635785     
  0.13769999999999999        -0.48909586280272133     
  0.13800000000000001        -0.54263788008509550     
  0.13829999999999998        -0.56234967219347098     
  0.13860000000000000        -0.54679738995456972     
  0.13890000000000002        -0.49659466321086360     
  0.13919999999999999        -0.41459047474142269     
  0.13950000000000001        -0.30536424914504851     
  0.13979999999999998        -0.17634175679315578     
  0.14010000000000000         -3.4525384535640941E-002
  0.14040000000000002         0.11132606576514201     
  0.14069999999999999         0.25149169112282638     
  0.14100000000000001         0.37836926590810116     
  0.14130000000000004         0.48399042396902586     
  0.14160000000000000         0.56138079579199562     
  0.14189999999999997         0.60734068525877971     
  0.14219999999999999         0.61865936874224048     
  0.14250000000000002         0.59521590834504090     
  0.14279999999999998         0.54036938372651566     
  0.14310000000000000         0.45742090840382177     
  0.14339999999999997         0.35297083263972567     
  0.14369999999999999         0.23478346618541102     
  0.14400000000000002         0.11002026209169641     
  0.14429999999999998         -1.2400430770574802E-002
  0.14460000000000001        -0.12492784033174574     
  0.14490000000000003        -0.22087195259448286     
  0.14520000000000000        -0.29434227521364270     
  0.14550000000000002        -0.34173258591907901     
  0.14579999999999999        -0.36059146488018923     
  0.14610000000000001        -0.35029285474647126     
  0.14640000000000003        -0.31264536933950693     
  0.14670000000000000        -0.25033085979258024     
  0.14699999999999996        -0.16826375882100256     
  0.14729999999999999         -7.3019159257655356E-002
  0.14760000000000001          2.9541521140715239E-002
  0.14789999999999998         0.13076946008931772     
  0.14820000000000000         0.22304828127803969     