  -1.4999999999999999E-002     0.0000000000000000     
  -1.4700000000000000E-002     0.0000000000000000     
  -1.4400000000000000E-002     0.0000000000000000     
  -1.4100000000000000E-002     0.0000000000000000     
  -1.3800000000000000E-002     0.0000000000000000     
  -1.3500000000000000E-002     0.0000000000000000     
  -1.3200000000000000E-002     0.0000000000000000     
  -1.2899999999999998E-002     0.0000000000000000     
  -1.2600000000000000E-002     0.0000000000000000     
  -1.2299999999999998E-002     0.0000000000000000     
  -1.2000000000000000E-002     0.0000000000000000     
  -1.1699999999999999E-002     0.0000000000000000     
  -1.1399999999999999E-002     0.0000000000000000     
  -1.1099999999999999E-002     0.0000000000000000     
  -1.0799999999999999E-002     0.0000000000000000     
  -1.0499999999999999E-002     0.0000000000000000     
  -1.0199999999999999E-002     0.0000000000000000     
  -9.8999999999999991E-003     0.0000000000000000     
  -9.5999999999999992E-003     0.0000000000000000     
  -9.2999999999999992E-003     0.0000000000000000     
  -8.9999999999999993E-003     0.0000000000000000     
  -8.6999999999999994E-003     0.0000000000000000     
  -8.3999999999999995E-003     0.0000000000000000     
  -8.0999999999999996E-003     0.0000000000000000     
  -7.7999999999999988E-003     0.0000000000000000     
  -7.4999999999999997E-003     0.0000000000000000     
  -7.1999999999999998E-003     0.0000000000000000     
  -6.8999999999999981E-003     0.0000000000000000     
  -6.5999999999999982E-003     0.0000000000000000     
  -6.3000000000000000E-003     0.0000000000000000     
  -6.0000000000000001E-003     0.0000000000000000     
  -5.6999999999999985E-003     0.0000000000000000     
  -5.3999999999999986E-003     0.0000000000000000     
  -5.1000000000000004E-003     0.0000000000000000     
  -4.7999999999999987E-003     0.0000000000000000     
  -4.5000000000000005E-003     0.0000000000000000     
  -4.1999999999999989E-003     0.0000000000000000     
  -3.8999999999999990E-003     0.0000000000000000     
  -3.5999999999999990E-003     0.0000000000000000     
  -3.2999999999999991E-003     0.0000000000000000     
  -2.9999999999999992E-003     0.0000000000000000     
  -2.6999999999999993E-003     0.0000000000000000     
  -2.3999999999999994E-003     0.0000000000000000     
  -2.0999999999999977E-003     0.0000000000000000     
  -1.7999999999999995E-003     0.0000000000000000     
  -1.4999999999999979E-003     0.0000000000000000     
  -1.1999999999999997E-003     0.0000000000000000     
  -8.9999999999999976E-004     0.0000000000000000     
  -5.9999999999999810E-004     0.0000000000000000     
  -2.9999999999999992E-004     0.0000000000000000     
   0.0000000000000000          0.0000000000000000     
   3.0000000000000165E-004     0.0000000000000000     
   5.9999999999999984E-004     0.0000000000000000     
   9.0000000000000149E-004     0.0000000000000000     
   1.2000000000000031E-003     0.0000000000000000     
   1.5000000000000013E-003     0.0000000000000000     
   1.8000000000000030E-003     0.0000000000000000     
   2.1000000000000012E-003     0.0000000000000000     
   2.3999999999999994E-003     0.0000000000000000     
   2.7000000000000010E-003     0.0000000000000000     
   2.9999999999999992E-003     0.0000000000000000     
   3.3000000000000008E-003     0.0000000000000000     
   3.6000000000000025E-003     0.0000000000000000     
   3.9000000000000007E-003     0.0000000000000000     
   4.2000000000000023E-003     0.0000000000000000     
   4.5000000000000005E-003     0.0000000000000000     
   4.7999999999999987E-003     0.0000000000000000     
   5.1000000000000004E-003     0.0000000000000000     
   5.4000000000000020E-003     0.0000000000000000     
   5.7000000000000037E-003     0.0000000000000000     
   5.9999999999999984E-003     0.0000000000000000     
   6.3000000000000000E-003     0.0000000000000000     
   6.6000000000000017E-003     0.0000000000000000     
   6.9000000000000034E-003     0.0000000000000000     
   7.2000000000000015E-003     0.0000000000000000     
   7.5000000000000032E-003     0.0000000000000000     
   7.8000000000000014E-003     0.0000000000000000     
   8.0999999999999996E-003     0.0000000000000000     
   8.4000000000000012E-003     0.0000000000000000     
   8.7000000000000029E-003     0.0000000000000000     
   9.0000000000000011E-003     0.0000000000000000     
   9.2999999999999992E-003     0.0000000000000000     
   9.6000000000000009E-003     0.0000000000000000     
   9.8999999999999991E-003     0.0000000000000000     
   1.0200000000000001E-002     0.0000000000000000     
   1.0500000000000002E-002     0.0000000000000000     
   1.0800000000000004E-002     0.0000000000000000     
   1.1099999999999999E-002     0.0000000000000000     
   1.1400000000000000E-002     0.0000000000000000     
   1.1700000000000002E-002     0.0000000000000000     
   1.2000000000000004E-002     0.0000000000000000     
   1.2300000000000002E-002     0.0000000000000000     
   1.2600000000000000E-002     0.0000000000000000     
   1.2900000000000002E-002     0.0000000000000000     
   1.3200000000000000E-002     0.0000000000000000     
   1.3500000000000002E-002     0.0000000000000000     
   1.3800000000000003E-002     0.0000000000000000     
   1.4100000000000001E-002     0.0000000000000000     
   1.4400000000000000E-002     0.0000000000000000     
   1.4700000000000001E-002     0.0000000000000000     
   1.4999999999999999E-002     0.0000000000000000     
   1.5300000000000001E-002     0.0000000000000000     
   1.5600000000000003E-002     0.0000000000000000     
   1.5899999999999997E-002     0.0000000000000000     
   1.6199999999999999E-002     0.0000000000000000     
   1.6500000000000001E-002     0.0000000000000000     
   1.6800000000000002E-002     0.0000000000000000     
   1.7100000000000004E-002     0.0000000000000000     
   1.7400000000000006E-002     0.0000000000000000     
   1.7700000000000000E-002     0.0000000000000000     
   1.8000000000000002E-002     0.0000000000000000     
   1.8300000000000004E-002     0.0000000000000000     
   1.8600000000000005E-002     0.0000000000000000     
   1.8900000000000000E-002     0.0000000000000000     
   1.9200000000000002E-002     0.0000000000000000     
   1.9500000000000003E-002     0.0000000000000000     
   1.9799999999999998E-002     0.0000000000000000     
   2.0100000000000000E-002     0.0000000000000000     
   2.0400000000000001E-002     0.0000000000000000     
   2.0700000000000003E-002     0.0000000000000000     
   2.0999999999999998E-002     0.0000000000000000     
   2.1299999999999999E-002     0.0000000000000000     
   2.1600000000000001E-002     0.0000000000000000     
   2.1900000000000003E-002     0.0000000000000000     
   2.2200000000000004E-002     0.0000000000000000     
   2.2500000000000006E-002     0.0000000000000000     
   2.2800000000000001E-002     0.0000000000000000     
   2.3100000000000002E-002     0.0000000000000000     
   2.3400000000000004E-002     0.0000000000000000     
   2.3699999999999999E-002     0.0000000000000000     
   2.4000000000000000E-002     0.0000000000000000     
   2.4300000000000002E-002     0.0000000000000000     
   2.4599999999999997E-002     0.0000000000000000     
   2.4900000000000005E-002     0.0000000000000000     
   2.5200000000000000E-002     0.0000000000000000     
   2.5499999999999995E-002     0.0000000000000000     
   2.5800000000000003E-002     0.0000000000000000     
   2.6099999999999998E-002     0.0000000000000000     
   2.6400000000000007E-002     0.0000000000000000     
   2.6700000000000002E-002     0.0000000000000000     
   2.6999999999999996E-002     0.0000000000000000     
   2.7300000000000005E-002     0.0000000000000000     
   2.7600000000000000E-002     0.0000000000000000     
   2.7900000000000008E-002     0.0000000000000000     
   2.8200000000000003E-002     0.0000000000000000     
   2.8499999999999998E-002     0.0000000000000000     
   2.8800000000000006E-002     0.0000000000000000     
   2.9100000000000001E-002     0.0000000000000000     
   2.9400000000000003E-002     0.0000000000000000     
   2.9700000000000004E-002     0.0000000000000000     
   3.0000000000000006E-002     0.0000000000000000     
   3.0300000000000001E-002     0.0000000000000000     
   3.0600000000000002E-002     0.0000000000000000     
   3.0900000000000004E-002     0.0000000000000000     
   3.1199999999999999E-002     1.6552861297978903E-043
   3.1500000000000007E-002    -1.2596748036977234E-042
   3.1800000000000002E-002    -2.0303165439776763E-043
   3.2099999999999997E-002    -1.0010014557081561E-040
   3.2400000000000005E-002    -5.4002315564471349E-038
   3.2700000000000000E-002    -1.2999414699877651E-036
   3.3000000000000002E-002     1.6237857149579390E-035
   3.3300000000000003E-002     1.9286694982772013E-035
   3.3599999999999998E-002    -5.7372171825316109E-035
   3.3900000000000000E-002     1.4070132344336902E-033
   3.4200000000000001E-002    -7.3899305536294479E-033
   3.4500000000000003E-002     2.8040995557458404E-032
   3.4799999999999998E-002    -9.9498010504709571E-032
   3.5099999999999999E-002     3.5332855682667989E-031
   3.5400000000000001E-002    -1.2277403238619090E-030
   3.5699999999999996E-002     4.0908315020971434E-030
   3.6000000000000004E-002    -1.2839500835362926E-029
   3.6299999999999999E-002     3.7115127209964759E-029
   3.6600000000000008E-002    -9.5379930172263529E-029
   3.6900000000000002E-002     2.0122667119025582E-028
   3.7199999999999997E-002    -2.5428928571255542E-028
   3.7500000000000006E-002    -4.5468541858752434E-028
   3.7800000000000000E-002     5.0404920587067183E-027
   3.8100000000000009E-002    -2.4652783843600389E-026
   3.8400000000000004E-002     9.4050056972425884E-026
   3.8699999999999998E-002    -3.0940237971884708E-025
   3.9000000000000007E-002     9.0431895602166104E-025
   3.9300000000000002E-002    -2.3452979970457523E-024
   3.9600000000000003E-002     5.1895345908746568E-024
   3.9900000000000005E-002    -8.4133524255075244E-024
   4.0200000000000000E-002     1.4585750066839966E-024
   4.0500000000000001E-002     6.3337815697069760E-023
   4.0800000000000003E-002    -3.4235942558079133E-022
   4.1100000000000005E-002     1.2144042888098834E-021
   4.1399999999999999E-002    -3.2030547123478279E-021
   4.1700000000000008E-002     5.6372306359006607E-021
   4.2000000000000003E-002    -1.2734299167356366E-021
   4.2299999999999997E-002    -3.6091205514819865E-020
   4.2600000000000006E-002     1.6072958924827623E-019
   4.2900000000000001E-002    -3.9672099204490137E-019
   4.3200000000000002E-002     4.4807609269320759E-019
   4.3500000000000004E-002     9.4016799482358992E-019
   4.3799999999999999E-002    -6.1735491084508388E-018
   4.4100000000000000E-002     1.5021939931426680E-017
   4.4400000000000002E-002    -1.1050049675850055E-017
   4.4700000000000004E-002    -5.5296594608880104E-017
   4.4999999999999998E-002     2.2819326225344401E-016
   4.5300000000000000E-002    -3.2767178627895374E-016
   4.5600000000000002E-002    -4.0415577250111108E-016
   4.5899999999999996E-002     2.8643406760038099E-015
   4.6200000000000005E-002    -4.8282354018157809E-015
   4.6500000000000000E-002    -4.1450941428173912E-015
   4.6799999999999994E-002     3.4853607814620873E-014
   4.7100000000000003E-002    -5.1827558002416082E-014
   4.7399999999999998E-002    -7.6030068274879939E-014
   4.7700000000000006E-002     4.0574735723381865E-013
   4.8000000000000001E-002    -3.3877718069231162E-013
   4.8300000000000010E-002    -1.4301840588239585E-012
   4.8600000000000004E-002     3.8478058724921540E-012
   4.8899999999999999E-002     1.2740472636213322E-012
   4.9200000000000008E-002    -1.9668079198272748E-011
   4.9500000000000002E-002     1.7985465552328532E-011
   4.9800000000000011E-002     6.9067261808945186E-011
   5.0100000000000006E-002    -1.4810233510004276E-010
   5.0400000000000000E-002    -1.7183053658891322E-010
   5.0700000000000009E-002     7.6564057304553324E-010
   5.1000000000000004E-002     2.3004475179860997E-010
   5.1299999999999998E-002    -3.2852527513473553E-009
   5.1600000000000007E-002     4.0810252144393508E-010
   5.1900000000000002E-002     1.2964937736682901E-008
   5.2200000000000010E-002    -3.6710160145240520E-009
   5.2500000000000005E-002    -4.9823077688938837E-008
   5.2800000000000000E-002     6.7559456325695487E-009
   5.3099999999999994E-002     1.7980864351627068E-007
   5.3400000000000003E-002     3.6937395975485876E-008
   5.3699999999999998E-002    -6.2953629255720708E-007
   5.4000000000000006E-002    -5.2551397111596384E-007
   5.4300000000000001E-002     2.4248134751519593E-006
   5.4599999999999996E-002     8.2817476601302884E-006
   5.4900000000000004E-002     1.5048441357910743E-005
   5.5199999999999999E-002     2.2979355359381564E-005
   5.5499999999999994E-002     3.6163369470923060E-005
   5.5800000000000002E-002     5.7738889456315331E-005
   5.6099999999999997E-002     8.8027472468636740E-005
   5.6400000000000006E-002     1.3124328425754073E-004
   5.6700000000000000E-002     1.9873467941303446E-004
   5.6999999999999995E-002     3.0099428485408629E-004
   5.7300000000000004E-002     4.4410454119173424E-004
   5.7599999999999998E-002     6.4165120179016653E-004
   5.7900000000000007E-002     9.2285998453486666E-004
   5.8200000000000002E-002     1.3207229055915608E-003
   5.8499999999999996E-002     1.8595855029797477E-003
   5.8800000000000005E-002     2.5633576792300767E-003
   5.9100000000000000E-002     3.4689572662732326E-003
   5.9400000000000008E-002     4.6211672686355667E-003
   5.9700000000000003E-002     6.0552088203063631E-003
   6.0000000000000012E-002     7.7854515217523224E-003
   6.0300000000000006E-002     9.8026233386454883E-003
   6.0600000000000001E-002     1.2070612692159963E-002
   6.0900000000000010E-002     1.4512966167869217E-002
   6.1200000000000004E-002     1.6987097750923264E-002
   6.1500000000000013E-002     1.9263393153264741E-002
   6.1800000000000008E-002     2.1025332156550024E-002
   6.2100000000000002E-002     2.1874570631558350E-002
   6.2399999999999997E-002     2.1316212792287979E-002
   6.2700000000000006E-002     1.8748691374684313E-002
   6.3000000000000000E-002     1.3499600153478401E-002
   6.3300000000000009E-002     4.8947677085872197E-003
   6.3600000000000004E-002    -7.6868452419657247E-003
   6.3899999999999998E-002    -2.4757092622552167E-002
   6.4199999999999993E-002    -4.6628505948052540E-002
   6.4500000000000002E-002    -7.3290338725056733E-002
   6.4800000000000010E-002   -0.10429138837143750     
   6.5100000000000005E-002   -0.13865077914104468     
   6.5400000000000000E-002   -0.17479441312034324     
   6.5700000000000008E-002   -0.21052949888181482     
   6.5999999999999989E-002   -0.24306466497892121     
   6.6299999999999998E-002   -0.26909599113546229     
   6.6600000000000006E-002   -0.28496372925803015     
   6.6900000000000001E-002   -0.28690668954183857     
   6.7199999999999996E-002   -0.27134665869988706     
   6.7500000000000004E-002   -0.23525141339759337     
   6.7800000000000013E-002   -0.17649828251006100     
   6.8099999999999994E-002    -9.4228578550951056E-002
   6.8400000000000002E-002     1.0843910256189575E-002
   6.8700000000000011E-002    0.13624762473020979     
   6.8999999999999992E-002    0.27765887007479484     
   6.9300000000000000E-002    0.42896230311415029     
   6.9600000000000009E-002    0.58249670381868635     
   6.9900000000000004E-002    0.72944475650603657     
   7.0199999999999999E-002    0.86039974299551492     
   7.0500000000000007E-002    0.96597910722173186     
   7.0800000000000016E-002     1.0375488283604937     
   7.1099999999999997E-002     1.0678886160818215     
   7.1400000000000005E-002     1.0518493696679281     
   7.1700000000000000E-002    0.98681447035547665     
   7.1999999999999995E-002    0.87302243338399887     
   7.2300000000000003E-002    0.71370742192646874     
   7.2600000000000012E-002    0.51488463020642827     
   7.2900000000000006E-002    0.28516318038595406     
   7.3200000000000001E-002     3.5012649841110015E-002
   7.3499999999999996E-002   -0.22371407140526836     
   7.3800000000000004E-002   -0.47867666115304941     
   7.4099999999999999E-002   -0.71776664985948191     
   7.4400000000000008E-002   -0.92989040030042147     
   7.4700000000000003E-002    -1.1055479435947069     
   7.5000000000000011E-002    -1.2374175952069819     
   7.5299999999999992E-002    -1.3206112666683156     
   7.5600000000000001E-002    -1.3529299441576974     
   7.5900000000000009E-002    -1.3347547070388921     
   7.6200000000000004E-002    -1.2689858659229094     
   7.6499999999999999E-002    -1.1606684090367245     
   7.6800000000000007E-002    -1.0166659899124122     
   7.7099999999999988E-002   -0.84520730605390848     
   7.7399999999999997E-002   -0.65542807967864702     
   7.7700000000000005E-002   -0.45692370472095711     
   7.8000000000000014E-002   -0.25926883946910639     
   7.8299999999999995E-002    -7.1622736755903166E-002
   7.8600000000000003E-002     9.7716580998237365E-002
   7.8900000000000012E-002    0.24154704412830336     
   7.9199999999999993E-002    0.35425801929256068     
   7.9500000000000001E-002    0.43187129815974157     
   7.9800000000000010E-002    0.47246871893722042     
   8.0100000000000018E-002    0.47609230633994726     
   8.0399999999999999E-002    0.44498118250944357     
   8.0700000000000008E-002    0.38325392565409805     
   8.1000000000000003E-002    0.29694706449903518     
   8.1299999999999997E-002    0.19346425074297707     
   8.1600000000000006E-002     8.1405344827226625E-002
   8.1900000000000014E-002    -3.0255817247222594E-002
   8.2199999999999995E-002   -0.13240038581244712     
   8.2500000000000004E-002   -0.21675732341638346     
   8.2799999999999999E-002   -0.27606290753857732     
   8.3100000000000007E-002   -0.30496539674145534     
   8.3400000000000002E-002   -0.30001356922051642     
   8.3700000000000011E-002   -0.26025031087500539     
   8.4000000000000005E-002   -0.18692951663002505     
   8.4300000000000000E-002    -8.3766004263613913E-002
   8.4599999999999995E-002     4.3727721442002626E-002
   8.4900000000000003E-002    0.18826696800994669     
   8.5199999999999998E-002    0.34172724871500304     
   8.5500000000000007E-002    0.49529754394807679     
   8.5800000000000001E-002    0.64046974836675996     
   8.6100000000000010E-002    0.76919782974335593     
   8.6399999999999991E-002    0.87469988904591878     
   8.6699999999999999E-002    0.95145945030562729     
   8.7000000000000008E-002    0.99584432402022283     
   8.7300000000000003E-002     1.0058161054328476     
   8.7599999999999997E-002    0.98119516538385998     
   8.7900000000000006E-002    0.92323539906465490     
   8.8200000000000014E-002    0.83482888537930156     
   8.8499999999999995E-002    0.71987267069087335     
   8.8800000000000004E-002    0.58328795562213109     
   8.9100000000000013E-002    0.43052641819431248     
   8.9399999999999993E-002    0.26767616176295511     
   8.9700000000000002E-002    0.10090070843928592     
   9.0000000000000011E-002    -6.3441911615518667E-002
   9.0299999999999991E-002   -0.21920802913029919     
   9.0600000000000000E-002   -0.36040149545776978     
   9.0900000000000009E-002   -0.48151687235961010     
   9.1200000000000017E-002   -0.57762199888623278     
   9.1499999999999998E-002   -0.64469277394173219     
   9.1800000000000007E-002   -0.67974071096559752     
   9.2100000000000001E-002   -0.68114646375261201     
   9.2399999999999996E-002   -0.64878149733907331     
   9.2700000000000005E-002   -0.58423967635882057     
   9.3000000000000013E-002   -0.49087912852307392     
   9.3300000000000008E-002   -0.37382708794627395     
   9.3600000000000003E-002   -0.23972358910441283     
   9.3899999999999997E-002    -9.6557154405759155E-002
   9.4200000000000006E-002     4.6810977438658710E-002
   9.4500000000000001E-002    0.18106486184716966     
   9.4800000000000009E-002    0.29714480206023530     
   9.5100000000000004E-002    0.38669755256073801     
   9.5399999999999999E-002    0.44271520061655983     
   9.5699999999999993E-002    0.45992887371313856     
   9.6000000000000002E-002    0.43532385997338213     
   9.6300000000000011E-002    0.36832295963852213     
   9.6600000000000005E-002    0.26089944889793937     
   9.6900000000000000E-002    0.11746266967254718     
   9.7200000000000009E-002    -5.5323586637366293E-002
   9.7499999999999989E-002   -0.24890108229844876     
   9.7799999999999998E-002   -0.45329284124463021     
   9.8100000000000007E-002   -0.65765412340159268     
   9.8400000000000015E-002   -0.85099553062791977     
   9.8699999999999996E-002    -1.0226555529254004     
   9.9000000000000005E-002    -1.1630561831494988     
   9.9300000000000013E-002    -1.2641170343022670     
   9.9599999999999994E-002    -1.3198420188499600     
   9.9900000000000003E-002    -1.3264081018640637     
  0.10020000000000001         -1.2826093117221742     
  0.10049999999999999         -1.1895654575200638     
  0.10080000000000000         -1.0509066174543409     
  0.10110000000000001        -0.87211910757822464     
  0.10140000000000000        -0.66053803235404440     
  0.10170000000000000        -0.42444056017838472     
  0.10200000000000001        -0.17295412555211445     
  0.10230000000000002          8.4760474045434020E-002
  0.10260000000000000         0.33969979275641027     
  0.10290000000000001         0.58361288579252513     
  0.10320000000000000         0.80911291724884071     
  0.10350000000000001          1.0099089871268034     
  0.10380000000000000          1.1808467773417002     
  0.10410000000000001          1.3180241436332978     
  0.10440000000000001          1.4186060695537182     
  0.10470000000000000          1.4809807608549166     
  0.10500000000000000          1.5044865616298930     
  0.10530000000000000          1.4896372990184110     
  0.10560000000000000          1.4379434304736300     
  0.10590000000000001          1.3521067420749364     
  0.10620000000000000          1.2357750156187413     
  0.10650000000000001          1.0936920108087991     
  0.10679999999999999         0.93148642795022241     
  0.10710000000000000         0.75549255983551489     
  0.10740000000000001         0.57237920279192900     
  0.10770000000000000         0.38879650189680171     
  0.10800000000000000         0.21100746423717665     
  0.10830000000000001          4.4342323144791154E-002
  0.10859999999999999        -0.10724199506701390     
  0.10890000000000000        -0.24136654527132179     
  0.10920000000000001        -0.35738682871148275     
  0.10950000000000001        -0.45636418123809186     
  0.10979999999999999        -0.54097461946867076     
  0.11009999999999999        -0.61488466782565820     
  0.11040000000000001        -0.68222330755561933     
  0.11070000000000001        -0.74699227924405243     
  0.11100000000000000        -0.81227033998535259     
  0.11130000000000000        -0.87984919152906438     
  0.11160000000000002        -0.94941243186088742     
  0.11190000000000001         -1.0187230931360982     
  0.11220000000000001         -1.0832749347024671     
  0.11250000000000000         -1.1371250663207380     
  0.11280000000000000         -1.1728683568668092     
  0.11309999999999999         -1.1829842202698764     
  0.11340000000000001         -1.1601459176474718     
  0.11369999999999998         -1.0987314506390951     
  0.11400000000000000        -0.99497386429221590     
  0.11430000000000000        -0.84802680836150490     
  0.11460000000000002        -0.65982508078928781     
  0.11489999999999999        -0.43565193803285007     
  0.11520000000000001        -0.18332815218848411     
  0.11550000000000001          8.6969402064160040E-002
  0.11580000000000000         0.36374398307925665     
  0.11609999999999999         0.63479749747138881     
  0.11640000000000002         0.88835794552574576     
  0.11670000000000001          1.1137097200150139     
  0.11700000000000001          1.3019865893192861     
  0.11730000000000000          1.4466100107733109     
  0.11760000000000000          1.5435259384257152     
  0.11789999999999999          1.5911927976496545     
  0.11820000000000001          1.5904523789424228     
  0.11850000000000001          1.5441779810632339     
  0.11880000000000000          1.4567944141239244     
  0.11910000000000000          1.3339189822714279     
  0.11940000000000002          1.1818854769793874     
  0.11970000000000001          1.0073639865494832     
  0.12000000000000001         0.81694703865885876     
  0.12030000000000000         0.61698311330630951     
  0.12060000000000000         0.41351242272775146     
  0.12089999999999999         0.21195348760572391     
  0.12119999999999999          1.7270163116303958E-002
  0.12150000000000001        -0.16631169413889069     
  0.12180000000000001        -0.33492304348160434     
  0.12210000000000000        -0.48556623788326442     
  0.12239999999999999        -0.61552328639527532     
  0.12270000000000002        -0.72296659859763746     
  0.12300000000000001        -0.80632074593495640     
  0.12330000000000001        -0.86485627134980569     
  0.12360000000000000        -0.89826233065819150     
  0.12390000000000000        -0.90694436989873328     
  0.12419999999999999        -0.89175246328309921     
  0.12450000000000001        -0.85429057164437416     
  0.12480000000000001        -0.79669793546070777     
  0.12509999999999999        -0.72192258898393824     
  0.12540000000000001        -0.63354036644191170     
  0.12570000000000003        -0.53585252151903995     
  0.12600000000000000        -0.43380599973844380     
  0.12630000000000002        -0.33289905328618352     
  0.12659999999999999        -0.23893666381024137     
  0.12690000000000001        -0.15783475251676726     
  0.12719999999999998         -9.5283679849323774E-002
  0.12750000000000000         -5.6269620146374988E-002
  0.12780000000000002         -4.4761717935421032E-002
  0.12809999999999999         -6.3224717809984926E-002
  0.12840000000000001        -0.11240057414583432     
  0.12869999999999998        -0.19087422171857762     
  0.12900000000000000        -0.29518480719851659     
  0.12930000000000003        -0.41967879331306718     
  0.12959999999999999        -0.55694660967503307     
  0.12990000000000002        -0.69801198586237545     
  0.13019999999999998        -0.83313140224358928     
  0.13050000000000000        -0.95222239177151446     
  0.13080000000000003         -1.0457396705993980     
  0.13109999999999999         -1.1051649260557594     
  0.13140000000000002         -1.1238038028561048     
  0.13169999999999998         -1.0971743762650115     
  0.13200000000000001         -1.0233812033083136     
  0.13229999999999997        -0.90319332674137065     
  0.13260000000000000        -0.73993480486353314     
  0.13290000000000002        -0.53928655026019889     
  0.13319999999999999        -0.30897594095426067     
  0.13350000000000001         -5.8115383798274842E-002
  0.13380000000000003         0.20327412608464962     
  0.13410000000000000         0.46489673121891134     
  0.13440000000000002         0.71660605297340019     
  0.13469999999999999         0.94880605356574244     
  0.13500000000000001          1.1530973623446348     
  0.13529999999999998          1.3222567695030969     
  0.13560000000000000          1.4506087540993997     
  0.13590000000000002          1.5339449905211515     
  0.13619999999999999          1.5698441809215158     
  0.13650000000000001          1.5574806622876656     
  0.13680000000000003          1.4978300316413722     
  0.13710000000000000          1.3935352677364108     
  0.13740000000000002          1.2489338289001266     
  0.13769999999999999          1.0701631889691436     
  0.13800000000000001         0.86490060102051203     
  0.13829999999999998         0.64241016290216302     
  0.13860000000000000         0.41305290645992004     
  0.13890000000000002         0.18821055923880725     
  0.13919999999999999         -2.0552800667051709E-002
  0.13950000000000001        -0.20162827469815439     
  0.13979999999999998        -0.34456136719442743     
  0.14010000000000000        -0.44027036836470418     
  0.14040000000000002        -0.48239824659625513     
  0.14069999999999999        -0.46724763529437607     
  0.14100000000000001        -0.39487403410696675     
  0.14130000000000004        -0.26879211187072977     
  0.14160000000000000         -9.6643802878381313E-002
  0.14189999999999997         0.11066424894681634     
  0.14219999999999999         0.33909707638467845     
  0.14250000000000002         0.57273407647927987     
  0.14279999999999998         0.79441017527941415     
  0.14310000000000000         0.98721436754355996     
  0.14339999999999997          1.1355031850651962     
  0.14369999999999999          1.2261120825681147     
  0.14400000000000002          1.2493867002123502     
  0.14429999999999998          1.1998363380151915     
  0.14460000000000001          1.0767255159721079     
  0.14490000000000003         0.88399348404630118     
  0.14520000000000000         0.63016686285341250     
  0.14550000000000002         0.32767454149835695     
  0.14579999999999999         -7.8118414094070984E-003
  0.14610000000000001        -0.35858602460981792     
  0.14640000000000003        -0.70594067067232602     
  0.14670000000000000         -1.0313189014016777     
  0.14699999999999996         -1.3175921851866996     
  0.14729999999999999         -1.5498252335907889     
  0.14760000000000001         -1.7165300286822456     
  0.14789999999999998         -1.8097607942057621     
  0.14820000000000000         -1.8261184977034823     