  -1.4999999999999999E-002     0.0000000000000000     
  -1.4700000000000000E-002     0.0000000000000000     
  -1.4400000000000000E-002     0.0000000000000000     
  -1.4100000000000000E-002     0.0000000000000000     
  -1.3800000000000000E-002     0.0000000000000000     
  -1.3500000000000000E-002     0.0000000000000000     
  -1.3200000000000000E-002     0.0000000000000000     
  -1.2899999999999998E-002     0.0000000000000000     
  -1.2600000000000000E-002     0.0000000000000000     
  -1.2299999999999998E-002     0.0000000000000000     
  -1.2000000000000000E-002     0.0000000000000000     
  -1.1699999999999999E-002     0.0000000000000000     
  -1.1399999999999999E-002     0.0000000000000000     
  -1.1099999999999999E-002     0.0000000000000000     
  -1.0799999999999999E-002     0.0000000000000000     
  -1.0499999999999999E-002     0.0000000000000000     
  -1.0199999999999999E-002     0.0000000000000000     
  -9.8999999999999991E-003     0.0000000000000000     
  -9.5999999999999992E-003     0.0000000000000000     
  -9.2999999999999992E-003     0.0000000000000000     
  -8.9999999999999993E-003     0.0000000000000000     
  -8.6999999999999994E-003     0.0000000000000000     
  -8.3999999999999995E-003     0.0000000000000000     
  -8.0999999999999996E-003     0.0000000000000000     
  -7.7999999999999988E-003     0.0000000000000000     
  -7.4999999999999997E-003     0.0000000000000000     
  -7.1999999999999998E-003     0.0000000000000000     
  -6.8999999999999981E-003     0.0000000000000000     
  -6.5999999999999982E-003     0.0000000000000000     
  -6.3000000000000000E-003     0.0000000000000000     
  -6.0000000000000001E-003     0.0000000000000000     
  -5.6999999999999985E-003     0.0000000000000000     
  -5.3999999999999986E-003     0.0000000000000000     
  -5.1000000000000004E-003     0.0000000000000000     
  -4.7999999999999987E-003     0.0000000000000000     
  -4.5000000000000005E-003     0.0000000000000000     
  -4.1999999999999989E-003     0.0000000000000000     
  -3.8999999999999990E-003     0.0000000000000000     
  -3.5999999999999990E-003     0.0000000000000000     
  -3.2999999999999991E-003     0.0000000000000000     
  -2.9999999999999992E-003     0.0000000000000000     
  -2.6999999999999993E-003     0.0000000000000000     
  -2.3999999999999994E-003     0.0000000000000000     
  -2.0999999999999977E-003     0.0000000000000000     
  -1.7999999999999995E-003     1.9242900093859310E-043
  -1.4999999999999979E-003    -1.1294231883388842E-042
  -1.1999999999999997E-003     4.7199963480511311E-038
  -8.9999999999999976E-004    -5.9220487662938090E-037
  -5.9999999999999810E-004    -1.6269344019251872E-037
  -2.9999999999999992E-004     1.2138738266255769E-036
   0.0000000000000000         -2.3546332922249914E-035
   3.0000000000000165E-004     2.2054488784446596E-035
   5.9999999999999984E-004    -2.5273649649059383E-034
   9.0000000000000149E-004     8.1187803129385252E-034
   1.2000000000000031E-003    -5.6725101139326578E-033
   1.5000000000000013E-003     1.9296880471136494E-032
   1.8000000000000030E-003    -4.2795798986993283E-032
   2.1000000000000012E-003     6.2387248357338141E-032
   2.3999999999999994E-003    -3.0583692546974683E-032
   2.7000000000000010E-003    -1.4571606692574276E-031
   2.9999999999999992E-003     5.6448671853809076E-031
   3.3000000000000008E-003    -1.1893155493192992E-030
   3.6000000000000025E-003     1.6086583529597281E-030
   3.9000000000000007E-003    -8.2863294165422121E-031
   4.2000000000000023E-003    -2.5365842759467726E-030
   4.5000000000000005E-003     9.2364266520834881E-030
   4.7999999999999987E-003    -1.7488747648200387E-029
   5.1000000000000004E-003     2.1120716223105575E-029
   5.4000000000000020E-003    -9.7387742502186986E-030
   5.7000000000000037E-003    -2.6691549699589168E-029
   5.9999999999999984E-003     8.8215231081569078E-029
   6.3000000000000000E-003    -1.5377129774613507E-028
   6.6000000000000017E-003     1.7588800333371141E-028
   6.9000000000000034E-003    -9.0462660734710616E-029
   7.2000000000000015E-003    -1.4936140239949911E-028
   7.5000000000000032E-003     5.2225289938130105E-028
   7.8000000000000014E-003    -9.0668649970046150E-028
   8.0999999999999996E-003     1.0925540407444816E-027
   8.4000000000000012E-003    -8.1624799832515157E-028
   8.7000000000000029E-003    -1.8096159393000220E-028
   9.0000000000000011E-003     2.0170191031282320E-027
   9.2999999999999992E-003    -4.3773554819183101E-027
   9.6000000000000009E-003     6.0915573249780518E-027
   9.8999999999999991E-003    -5.2824518568957823E-027
   1.0200000000000001E-002     9.5576141022312446E-028
   1.0500000000000002E-002     5.7785362641457481E-027
   1.0800000000000004E-002    -1.3641392278324802E-026
   1.1099999999999999E-002     2.2588340635903388E-026
   1.1400000000000000E-002    -2.9456265303735988E-026
   1.1700000000000002E-002     2.3879446648374559E-026
   1.2000000000000004E-002     6.5564229898259034E-027
   1.2300000000000002E-002    -6.0083633206407616E-026
   1.2600000000000000E-002     1.0223033008386899E-025
   1.2900000000000002E-002    -8.0520596241768774E-026
   1.3200000000000000E-002    -1.7024057313245246E-026
   1.3500000000000002E-002     9.8729327549059853E-026
   1.3800000000000003E-002     8.2442360869545547E-026
   1.4100000000000001E-002    -6.2689286656920874E-025
   1.4400000000000000E-002     4.6012192291459690E-025
   1.4700000000000001E-002     2.3158493443799679E-024
   1.4999999999999999E-002    -5.6408085676472365E-024
   1.5300000000000001E-002     4.0925788722484350E-025
   1.5600000000000003E-002     1.6711497528313051E-023
   1.5899999999999997E-002    -2.1529478848398185E-023
   1.6199999999999999E-002    -2.1876415713118338E-023
   1.6500000000000001E-002     8.2691973959659610E-023
   1.6800000000000002E-002    -3.0353558898810249E-023
   1.7100000000000004E-002    -1.8172362095927874E-022
   1.7400000000000006E-002     2.6618377518566068E-022
   1.7700000000000000E-002     1.5702285795716611E-022
   1.8000000000000002E-002    -7.7625943972611346E-022
   1.8300000000000004E-002     4.6165792097765054E-022
   1.8600000000000005E-002     1.1889462388688174E-021
   1.8900000000000000E-002    -2.2442387042260011E-021
   1.9200000000000002E-002     8.3388228928767648E-023
   1.9500000000000003E-002     4.2667476857253838E-021
   1.9799999999999998E-002    -5.7850247431249447E-021
   2.0100000000000000E-002     1.0601322341446154E-021
   2.0400000000000001E-002     1.1686694211072174E-020
   2.0700000000000003E-002    -3.3556358104242379E-020
   2.0999999999999998E-002     1.9997701766548911E-020
   2.1299999999999999E-002     1.4952619758278478E-019
   2.1600000000000001E-002    -3.1114379637247037E-019
   2.1900000000000003E-002    -6.0836767570215689E-019
   2.2200000000000004E-002     2.8398564281193794E-018
   2.2500000000000006E-002     1.5645095082596869E-019
   2.2800000000000001E-002    -1.7521941511917454E-017
   2.3100000000000002E-002     2.2846636748182696E-017
   2.3400000000000004E-002     6.0059680564622686E-017
   2.3699999999999999E-002    -1.7230918106443594E-016
   2.4000000000000000E-002    -9.5355606087615041E-017
   2.4300000000000002E-002     7.4730649799376712E-016
   2.4599999999999997E-002     1.0178015889096562E-016
   2.4900000000000005E-002    -3.2949876316060801E-015
   2.5200000000000000E-002    -2.4851070429521820E-016
   2.5499999999999995E-002     1.9314285861224612E-014
   2.5800000000000003E-002    -1.1285268098634471E-014
   2.6099999999999998E-002    -9.9764663564274902E-014
   2.6400000000000007E-002     1.6141097276320805E-013
   2.6700000000000002E-002     3.1982666942385716E-013
   2.6999999999999996E-002    -1.0966157189047611E-012
   2.7300000000000005E-002    -1.8015099471582037E-013
   2.7600000000000000E-002     4.7076112836209013E-012
   2.7900000000000008E-002    -4.4508260251842610E-012
   2.8200000000000003E-002    -1.3001406258213712E-011
   2.8499999999999998E-002     3.0680579280049256E-011
   2.8800000000000006E-002     1.4496985154769754E-011
   2.9100000000000001E-002    -1.2792198575676261E-010
   2.9400000000000003E-002     7.6540705864847278E-011
   2.9700000000000004E-002     4.0408403026261534E-010
   3.0000000000000006E-002    -6.2703457816377700E-010
   3.0300000000000001E-002    -1.0516143816164579E-009
   3.0600000000000002E-002     2.9221673526124507E-009
   3.0900000000000004E-002     2.5031448367368363E-009
   3.1199999999999999E-002    -1.1038590354985383E-008
   3.1500000000000007E-002    -7.2104268682287505E-009
   3.1800000000000002E-002     3.4963876815669363E-008
   3.2099999999999997E-002     2.5052671921837895E-008
   3.2400000000000005E-002    -1.0183148880883231E-007
   3.2700000000000000E-002    -1.1484638379876581E-007
   3.3000000000000002E-002     2.9438419059176138E-007
   3.3300000000000003E-002     1.0799754383154074E-006
   3.3599999999999998E-002     2.3989569940608376E-006
   3.3900000000000000E-002     5.4944356214007268E-006
   3.4200000000000001E-002     1.1555248008689247E-005
   3.4500000000000003E-002     1.9667071207405200E-005
   3.4799999999999998E-002     2.8197244654219401E-005
   3.5099999999999999E-002     3.8648166202296263E-005
   3.5400000000000001E-002     5.5413495635178406E-005
   3.5699999999999996E-002     8.1618553588535259E-005
   3.6000000000000004E-002     1.1939009614277048E-004
   3.6299999999999999E-002     1.7507755806495654E-004
   3.6600000000000008E-002     2.5917800096774481E-004
   3.6900000000000002E-002     3.7914569040191880E-004
   3.7199999999999997E-002     5.3723321845171106E-004
   3.7500000000000006E-002     7.3843517339273904E-004
   3.7800000000000000E-002     9.9664875326427077E-004
   3.8100000000000009E-002     1.3289604595615409E-003
   3.8400000000000004E-002     1.7440232408417770E-003
   3.8699999999999998E-002     2.2363491736311072E-003
   3.9000000000000007E-002     2.7900020090883856E-003
   3.9300000000000002E-002     3.3842855697230729E-003
   3.9600000000000003E-002     3.9892281687509386E-003
   3.9900000000000005E-002     4.5468505937103490E-003
   4.0200000000000000E-002     4.9554830813848504E-003
   4.0500000000000001E-002     5.0754999293772009E-003
   4.0800000000000003E-002     4.7445677679707962E-003
   4.1100000000000005E-002     3.7741830701552969E-003
   4.1399999999999999E-002     1.9300285600653160E-003
   4.1700000000000008E-002    -1.0662975641404897E-003
   4.2000000000000003E-002    -5.5036476758368634E-003
   4.2299999999999997E-002    -1.1646001451831534E-002
   4.2600000000000006E-002    -1.9715109183888954E-002
   4.2900000000000001E-002    -2.9868651774975968E-002
   4.3200000000000002E-002    -4.2160167702001608E-002
   4.3500000000000004E-002    -5.6507164199082395E-002
   4.3799999999999999E-002    -7.2681227782415703E-002
   4.4100000000000000E-002    -9.0296122172877510E-002
   4.4400000000000002E-002   -0.10879318033932323     
   4.4700000000000004E-002   -0.12746000344875064     
   4.4999999999999998E-002   -0.14551066336123969     
   4.5300000000000000E-002   -0.16216448392826829     
   4.5600000000000002E-002   -0.17669809920645133     
   4.5899999999999996E-002   -0.18849403231989997     
   4.6200000000000005E-002   -0.19715018905946655     
   4.6500000000000000E-002   -0.20257036900579772     
   4.6799999999999994E-002   -0.20495148093767879     
   4.7100000000000003E-002   -0.20475896842769176     
   4.7399999999999998E-002   -0.20259838062915592     
   4.7700000000000006E-002   -0.19912604625411581     
   4.8000000000000001E-002   -0.19483866620436099     
   4.8300000000000010E-002   -0.18987509372465838     
   4.8600000000000004E-002   -0.18385911851363262     
   4.8899999999999999E-002   -0.17573923496720709     
   4.9200000000000008E-002   -0.16370798976269396     
   4.9500000000000002E-002   -0.14525610407268308     
   4.9800000000000011E-002   -0.11738026143599883     
   5.0100000000000006E-002    -7.6929040529958900E-002
   5.0400000000000000E-002    -2.0995450582265915E-002
   5.0700000000000009E-002     5.2508649370456295E-002
   5.1000000000000004E-002    0.14429127963866067     
   5.1299999999999998E-002    0.25319036226688152     
   5.1600000000000007E-002    0.37568879732498228     
   5.1900000000000002E-002    0.50587942429223731     
   5.2200000000000010E-002    0.63545747170420452     
   5.2500000000000005E-002    0.75411524586390877     
   5.2800000000000000E-002    0.85023659318938527     
   5.3099999999999994E-002    0.91195136921583353     
   5.3400000000000003E-002    0.92812743908472028     
   5.3699999999999998E-002    0.88978518796999539     
   5.4000000000000006E-002    0.79135305683964707     
   5.4300000000000001E-002    0.63160238561791038     
   5.4599999999999996E-002    0.41441597321692020     
   5.4900000000000004E-002    0.14916200511311517     
   5.5199999999999999E-002   -0.14969632239584879     
   5.5499999999999994E-002   -0.46314477671225351     
   5.5800000000000002E-002   -0.76904281243552031     
   5.6099999999999997E-002    -1.0436035553106024     
   5.6400000000000006E-002    -1.2635538334064940     
   5.6700000000000000E-002    -1.4080470861259040     
   5.6999999999999995E-002    -1.4605820041851028     
   5.7300000000000004E-002    -1.4107551529811140     
   5.7599999999999998E-002    -1.2553387773954470     
   5.7900000000000007E-002   -0.99885187890595573     
   5.8200000000000002E-002   -0.65351311840940118     
   5.8499999999999996E-002   -0.23836283744882514     
   5.8800000000000005E-002    0.22213685912351427     
   5.9100000000000000E-002    0.69995662043090134     
   5.9400000000000008E-002     1.1657419462548411     
   5.9700000000000003E-002     1.5910649861932513     
   6.0000000000000012E-002     1.9505426629491120     
   6.0300000000000006E-002     2.2236139022755497     
   6.0600000000000001E-002     2.3958931542174744     
   6.0900000000000010E-002     2.4598152543568093     
   6.1200000000000004E-002     2.4148545158422192     
   6.1500000000000013E-002     2.2668473100888979     
   6.1800000000000008E-002     2.0271968293828078     
   6.2100000000000002E-002     1.7114234130582726     
   6.2399999999999997E-002     1.3378563890180710     
   6.2700000000000006E-002    0.92597594510372683     
   6.3000000000000000E-002    0.49528256667794335     
   6.3300000000000009E-002     6.4070124341524218E-002
   6.3600000000000004E-002   -0.35143026425163398     
   6.3899999999999998E-002   -0.73742818439358460     
   6.4199999999999993E-002    -1.0827540452025277     
   6.4500000000000002E-002    -1.3792093617121925     
   6.4800000000000010E-002    -1.6208748097193455     
   6.5100000000000005E-002    -1.8043417617123896     
   6.5400000000000000E-002    -1.9283982826486121     
   6.5700000000000008E-002    -1.9936110691895728     
   6.5999999999999989E-002    -2.0023712642776705     
   6.6299999999999998E-002    -1.9587027156808725     
   6.6600000000000006E-002    -1.8680454369360717     
   6.6900000000000001E-002    -1.7370408907774755     
   6.7199999999999996E-002    -1.5735776535526700     
   6.7500000000000004E-002    -1.3861834900044827     
   6.7800000000000013E-002    -1.1838579749478606     
   6.8099999999999994E-002   -0.97566890074341628     
   6.8400000000000002E-002   -0.77029980383316532     
   6.8700000000000011E-002   -0.57559297183871050     
   6.8999999999999992E-002   -0.39830950874235382     
   6.9300000000000000E-002   -0.24395418056390805     
   6.9600000000000009E-002   -0.11634099557520819     
   6.9900000000000004E-002    -1.7795825883948561E-002
   7.0199999999999999E-002     5.0774071641264643E-002
   7.0500000000000007E-002     8.9923246301806023E-002
   7.0800000000000016E-002    0.10103483517418346     
   7.1099999999999997E-002     8.6475573495389590E-002
   7.1400000000000005E-002     4.8950961154282255E-002
   7.1700000000000000E-002    -8.3967461335231960E-003
   7.1999999999999995E-002    -8.2451662411534038E-002
   7.2300000000000003E-002   -0.17012644511135949     
   7.2600000000000012E-002   -0.26820160539874316     
   7.2900000000000006E-002   -0.37361500080916082     
   7.3200000000000001E-002   -0.48293960855635942     
   7.3499999999999996E-002   -0.59230729024978346     
   7.3800000000000004E-002   -0.69735205649390197     
   7.4099999999999999E-002   -0.79280167002311419     
   7.4400000000000008E-002   -0.87223875367385539     
   7.4700000000000003E-002   -0.92847465038494681     
   7.5000000000000011E-002   -0.95337462045191401     
   7.5299999999999992E-002   -0.93804464155803302     
   7.5600000000000001E-002   -0.87395907865656430     
   7.5900000000000009E-002   -0.75291621642508788     
   7.6200000000000004E-002   -0.56835656433717874     
   7.6499999999999999E-002   -0.31650984299525592     
   7.6800000000000007E-002     3.1784872014189725E-003
   7.7099999999999988E-002    0.38665827482352544     
   7.7399999999999997E-002    0.82483491470480708     
   7.7700000000000005E-002     1.3033385591522744     
   7.8000000000000014E-002     1.8026499053049909     
   7.8299999999999995E-002     2.2984058302278974     
   7.8600000000000003E-002     2.7633167405723080     
   7.8900000000000012E-002     3.1683099744922782     
   7.9199999999999993E-002     3.4846329556578119     
   7.9500000000000001E-002     3.6868281963695582     
   7.9800000000000010E-002     3.7543651041480635     
   8.0100000000000018E-002     3.6742384821131329     
   8.0399999999999999E-002     3.4427467280529087     
   8.0700000000000008E-002     3.0664467300859117     
   8.1000000000000003E-002     2.5624650744562549     
   8.1299999999999997E-002     1.9577941444292488     
   8.1600000000000006E-002     1.2879094286507544     
   8.1900000000000014E-002    0.59389164382488768     
   8.2199999999999995E-002    -8.0150678083687810E-002
   8.2500000000000004E-002   -0.69122358301084663     
   8.2799999999999999E-002    -1.2004594484549460     
   8.3100000000000007E-002    -1.5769622240414922     
   8.3400000000000002E-002    -1.8004893068374337     
   8.3700000000000011E-002    -1.8632349647675095     
   8.4000000000000005E-002    -1.7711417979526727     
   8.4300000000000000E-002    -1.5431946864982011     
   8.4599999999999995E-002    -1.2098056175151588     
   8.4900000000000003E-002   -0.81094890246138474     
   8.5199999999999998E-002   -0.39188909740696687     
   8.5500000000000007E-002     1.4600774055299748E-004
   8.5800000000000001E-002    0.32035600039455453     
   8.6100000000000010E-002    0.53045501269285178     
   8.6399999999999991E-002    0.60227485434123729     
   8.6699999999999999E-002    0.51971625995084669     
   8.7000000000000008E-002    0.28149501172727498     
   8.7300000000000003E-002    -9.9263362825186691E-002
   8.7599999999999997E-002   -0.59584592607824416     
   8.7900000000000006E-002    -1.1694413935124799     
   8.8200000000000014E-002    -1.7723582328443945     
   8.8499999999999995E-002    -2.3518424669018967     
   8.8800000000000004E-002    -2.8541706952475323     
   8.9100000000000013E-002    -3.2287836573487314     
   8.9399999999999993E-002    -3.4323137893059221     
   8.9700000000000002E-002    -3.4326783353604204     
   9.0000000000000011E-002    -3.2110047777309800     
   9.0299999999999991E-002    -2.7637780757179788     
   9.0600000000000000E-002    -2.1036886258788745     
   9.0900000000000009E-002    -1.2586261574738518     
   9.1200000000000017E-002   -0.27027930984753956     
   9.1499999999999998E-002    0.80830286329505718     
   9.1800000000000007E-002     1.9166651561012253     
   9.2100000000000001E-002     2.9905648625213193     
   9.2399999999999996E-002     3.9661810408377693     
   9.2700000000000005E-002     4.7850658064260028     
   9.3000000000000013E-002     5.3972467033759361     
   9.3300000000000008E-002     5.7647245984880051     
   9.3600000000000003E-002     5.8645560058092556     
   9.3899999999999997E-002     5.6892741540887188     
   9.4200000000000006E-002     5.2474290460395094     
   9.4500000000000001E-002     4.5632191612667565     
   9.4800000000000009E-002     3.6736195750785257     
   9.5100000000000004E-002     2.6257650784171580     
   9.5399999999999999E-002     1.4735980720937722     
   9.5699999999999993E-002    0.27360746768156041     
   9.6000000000000002E-002   -0.91882676911381145     
   9.6300000000000011E-002    -2.0528233835646379     
   9.6600000000000005E-002    -3.0850840973252946     
   9.6900000000000000E-002    -3.9818174856456858     
   9.7200000000000009E-002    -4.7193710944440506     
   9.7499999999999989E-002    -5.2848907164661654     
   9.7799999999999998E-002    -5.6747397444119292     
   9.8100000000000007E-002    -5.8932939022916608     
   9.8400000000000015E-002    -5.9511747222611442     
   9.8699999999999996E-002    -5.8627085106428476     
   9.9000000000000005E-002    -5.6444792604058902     
   9.9300000000000013E-002    -5.3131604473962266     
   9.9599999999999994E-002    -4.8852607589564627     
   9.9900000000000003E-002    -4.3761403371079375     
  0.10020000000000001         -3.7999849712743048     
  0.10049999999999999         -3.1709713446289585     
  0.10080000000000000         -2.5033049938519136     
  0.10110000000000001         -1.8120803598574518     
  0.10140000000000000         -1.1139227428039216     
  0.10170000000000000        -0.42723513982189087     
  0.10200000000000001         0.22850208339370603     
  0.10230000000000002         0.83318479473551088     
  0.10260000000000000          1.3670112586369627     
  0.10290000000000001          1.8121827598956892     
  0.10320000000000000          2.1542520537064189     
  0.10350000000000001          2.3835383097272378     
  0.10380000000000000          2.4960396494974924     
  0.10410000000000001          2.4947855282908256     
  0.10440000000000001          2.3891909185634770     
  0.10470000000000000          2.1951632711430773     
  0.10500000000000000          1.9346386618462352     
  0.10530000000000000          1.6329844644358860     
  0.10560000000000000          1.3186660902722509     
  0.10590000000000001          1.0203355891761881     
  0.10620000000000000         0.76502417123572852     
  0.10650000000000001         0.57614648492494736     
  0.10679999999999999         0.47170884070419472     
  0.10710000000000000         0.46271508168055719     
  0.10740000000000001         0.55204529524280144     
  0.10770000000000000         0.73428892190065043     
  0.10800000000000000         0.99601316605556200     
  0.10830000000000001          1.3159900109914719     
  0.10859999999999999          1.6669557714083170     
  0.10890000000000000          2.0179588448972039     
  0.10920000000000001          2.3355320740528240     
  0.10950000000000001          2.5873110553855230     
  0.10979999999999999          2.7447836538584887     
  0.11009999999999999          2.7839628622978774     
  0.11040000000000001          2.6897391020432866     
  0.11070000000000001          2.4560240211796716     
  0.11100000000000000          2.0863395067222092     
  0.11130000000000000          1.5951168412168266     
  0.11160000000000002          1.0052730077195782     
  0.11190000000000001         0.34758018667553425     
  0.11220000000000001        -0.34160408982848811     
  0.11250000000000000         -1.0233352164308473     
  0.11280000000000000         -1.6585816312094757     
  0.11309999999999999         -2.2110620982634615     
  0.11340000000000001         -2.6498681070253802     
  0.11369999999999998         -2.9514149288889620     
  0.11400000000000000         -3.1005174663889212     
  0.11430000000000000         -3.0920068377940337     
  0.11460000000000002         -2.9293920615041049     
  0.11489999999999999         -2.6259913110101927     
  0.11520000000000001         -2.2026534076099900     
  0.11550000000000001         -1.6863350375597344     
  0.11580000000000000         -1.1086928587494878     
  0.11609999999999999        -0.50371028869533307     
  0.11640000000000002          9.4207998377898811E-002
  0.11670000000000001         0.65220774500589840     
  0.11700000000000001          1.1409493378960933     
  0.11730000000000000          1.5359590227238629     
  0.11760000000000000          1.8192975816798371     
  0.11789999999999999          1.9795971141770079     
  0.11820000000000001          2.0135427337442753     
  0.11850000000000001          1.9244064774812308     
  0.11880000000000000          1.7221771314971208     
  0.11910000000000000          1.4223598498270245     
  0.11940000000000002          1.0443959607817308     
  0.11970000000000001         0.60972689579495754     
  0.12000000000000001         0.14152203110005473     
  0.12030000000000000        -0.33738600587293044     
  0.12060000000000000        -0.80479160076902634     
  0.12089999999999999         -1.2384143193235262     
  0.12119999999999999         -1.6158902276655074     
  0.12150000000000001         -1.9142917645630435     
  0.12180000000000001         -2.1076727990272253     
  0.12210000000000000         -2.1681675919377268     
  0.12239999999999999         -2.0652174725402190     
  0.12270000000000002         -1.7672790090219692     
  0.12300000000000001         -1.2453386657613685     
  0.12330000000000001        -0.47698696586348677     
  0.12360000000000000         0.54803384696230650     
  0.12390000000000000          1.8218867770148990     
  0.12419999999999999          3.3124354386605233     
  0.12450000000000001          4.9604510078631172     
  0.12480000000000001          6.6762395638808281     
  0.12509999999999999          8.3422642972245526     
  0.12540000000000001          9.8189266752802915     
  0.12570000000000003          10.953311528215755     
  0.12600000000000000          11.592238982764766     
  0.12630000000000002          11.598037965765002     
  0.12659999999999999          10.864955842180972     
  0.12690000000000001          9.3330123078983256     
  0.12719999999999998          7.0009432486589853     
  0.12750000000000000          3.9358177500699609     
  0.12780000000000002         0.27085888025520100     
  0.12809999999999999         -3.7961552271662455     
  0.12840000000000001         -8.0159801165336688     
  0.12869999999999998         -12.106686639887398     
  0.12900000000000000         -15.774670449367314     
  0.12930000000000003         -18.738773923199631     
  0.12959999999999999         -20.757111659265878     
  0.12990000000000002         -21.646902338597556     
  0.13019999999999998         -21.301943128947279     
  0.13050000000000000         -19.704415963046596     
  0.13080000000000003         -16.926090303089296     
  0.13109999999999999         -13.124123728529822     
  0.13140000000000002         -8.5292636797228560     
  0.13169999999999998         -3.4257308676586096     
  0.13200000000000001          1.8684901646458654     
  0.13229999999999997          7.0287025435352248     
  0.13260000000000000          11.744981921607225     
  0.13290000000000002          15.744827051617882     
  0.13319999999999999          18.810259576422123     
  0.13350000000000001          20.788754751389892     
  0.13380000000000003          21.600803008290189     
  0.13410000000000000          21.238907051213612     
  0.13440000000000002          19.763264523200686     
  0.13469999999999999          17.293201496332998     
  0.13500000000000001          13.994582897850838     
  0.13529999999999998          10.066384418876185     
  0.13560000000000000          5.7272756001197775     
  0.13590000000000002          1.2002909996644862     
  0.13619999999999999         -3.2979749819887543     
  0.13650000000000001         -7.5685377981574717     
  0.13680000000000003         -11.438326808741930     
  0.13710000000000000         -14.765352126753921     
  0.13740000000000002         -17.443201110588838     
  0.13769999999999999         -19.402103576402723     
  0.13800000000000001         -20.607442355842245     
  0.13829999999999998         -21.058852616719726     
  0.13860000000000000         -20.784420485264619     
  0.13890000000000002         -19.837753986625884     
  0.13919999999999999         -18.291500897007317     
  0.13950000000000001         -16.231714907787190     
  0.13979999999999998         -13.752976335843996     
  0.14010000000000000         -10.953407916172800     
  0.14040000000000002         -7.9295579241961605     
  0.14069999999999999         -4.7745012661950437     
  0.14100000000000001         -1.5762208563902562     
  0.14130000000000004          1.5867292163853013     
  0.14160000000000000          4.6421000658708973     
  0.14189999999999997          7.5253371693736462     
  0.14219999999999999          10.181219420701044     
  0.14250000000000002          12.560599740970078     
  0.14279999999999998          14.622311695833403     
  0.14310000000000000          16.333190574795935     
  0.14339999999999997          17.668404525107608     
  0.14369999999999999          18.610206006677274     
  0.14400000000000002          19.151615790235809     
  0.14429999999999998          19.294190967820857     
  0.14460000000000001          19.047579380146260     
  0.14490000000000003          18.433065950384592     
  0.14520000000000000          17.477075000534271     
  0.14550000000000002          16.213741925263861     
  0.14579999999999999          14.684148664025827     
  0.14610000000000001          12.928958142310764     
  0.14640000000000003          10.994079159269511     
  0.14670000000000000          8.9247616862723937     
  0.14699999999999996          6.7635967819869904     
  0.14729999999999999          4.5522369465042862     
  0.14760000000000001          2.3300485480009860     
  0.14789999999999998         0.13019194169827264     
  0.14820000000000000         -2.0147145315211690     