  -1.4999999999999999E-002     0.0000000000000000     
  -1.4700000000000000E-002     0.0000000000000000     
  -1.4400000000000000E-002     0.0000000000000000     
  -1.4100000000000000E-002     0.0000000000000000     
  -1.3800000000000000E-002     0.0000000000000000     
  -1.3500000000000000E-002     0.0000000000000000     
  -1.3200000000000000E-002     0.0000000000000000     
  -1.2899999999999998E-002     0.0000000000000000     
  -1.2600000000000000E-002     0.0000000000000000     
  -1.2299999999999998E-002     0.0000000000000000     
  -1.2000000000000000E-002     0.0000000000000000     
  -1.1699999999999999E-002     0.0000000000000000     
  -1.1399999999999999E-002     0.0000000000000000     
  -1.1099999999999999E-002     0.0000000000000000     
  -1.0799999999999999E-002     0.0000000000000000     
  -1.0499999999999999E-002     0.0000000000000000     
  -1.0199999999999999E-002     0.0000000000000000     
  -9.8999999999999991E-003     0.0000000000000000     
  -9.5999999999999992E-003     0.0000000000000000     
  -9.2999999999999992E-003     0.0000000000000000     
  -8.9999999999999993E-003     0.0000000000000000     
  -8.6999999999999994E-003     0.0000000000000000     
  -8.3999999999999995E-003     0.0000000000000000     
  -8.0999999999999996E-003     0.0000000000000000     
  -7.7999999999999988E-003     0.0000000000000000     
  -7.4999999999999997E-003     0.0000000000000000     
  -7.1999999999999998E-003     0.0000000000000000     
  -6.8999999999999981E-003     0.0000000000000000     
  -6.5999999999999982E-003     0.0000000000000000     
  -6.3000000000000000E-003     0.0000000000000000     
  -6.0000000000000001E-003     0.0000000000000000     
  -5.6999999999999985E-003     0.0000000000000000     
  -5.3999999999999986E-003     0.0000000000000000     
  -5.1000000000000004E-003     0.0000000000000000     
  -4.7999999999999987E-003     0.0000000000000000     
  -4.5000000000000005E-003     0.0000000000000000     
  -4.1999999999999989E-003     0.0000000000000000     
  -3.8999999999999990E-003     0.0000000000000000     
  -3.5999999999999990E-003     0.0000000000000000     
  -3.2999999999999991E-003     0.0000000000000000     
  -2.9999999999999992E-003     0.0000000000000000     
  -2.6999999999999993E-003     0.0000000000000000     
  -2.3999999999999994E-003     0.0000000000000000     
  -2.0999999999999977E-003     0.0000000000000000     
  -1.7999999999999995E-003     0.0000000000000000     
  -1.4999999999999979E-003     0.0000000000000000     
  -1.1999999999999997E-003     0.0000000000000000     
  -8.9999999999999976E-004     0.0000000000000000     
  -5.9999999999999810E-004     0.0000000000000000     
  -2.9999999999999992E-004     0.0000000000000000     
   0.0000000000000000          0.0000000000000000     
   3.0000000000000165E-004     0.0000000000000000     
   5.9999999999999984E-004     0.0000000000000000     
   9.0000000000000149E-004     0.0000000000000000     
   1.2000000000000031E-003     0.0000000000000000     
   1.5000000000000013E-003     0.0000000000000000     
   1.8000000000000030E-003     0.0000000000000000     
   2.1000000000000012E-003     0.0000000000000000     
   2.3999999999999994E-003     0.0000000000000000     
   2.7000000000000010E-003     0.0000000000000000     
   2.9999999999999992E-003     0.0000000000000000     
   3.3000000000000008E-003     0.0000000000000000     
   3.6000000000000025E-003     0.0000000000000000     
   3.9000000000000007E-003     0.0000000000000000     
   4.2000000000000023E-003     0.0000000000000000     
   4.5000000000000005E-003     0.0000000000000000     
   4.7999999999999987E-003     0.0000000000000000     
   5.1000000000000004E-003     0.0000000000000000     
   5.4000000000000020E-003     0.0000000000000000     
   5.7000000000000037E-003     0.0000000000000000     
   5.9999999999999984E-003     0.0000000000000000     
   6.3000000000000000E-003     0.0000000000000000     
   6.6000000000000017E-003     0.0000000000000000     
   6.9000000000000034E-003     0.0000000000000000     
   7.2000000000000015E-003     0.0000000000000000     
   7.5000000000000032E-003     0.0000000000000000     
   7.8000000000000014E-003     0.0000000000000000     
   8.0999999999999996E-003     0.0000000000000000     
   8.4000000000000012E-003     0.0000000000000000     
   8.7000000000000029E-003     0.0000000000000000     
   9.0000000000000011E-003     0.0000000000000000     
   9.2999999999999992E-003     0.0000000000000000     
   9.6000000000000009E-003     0.0000000000000000     
   9.8999999999999991E-003     0.0000000000000000     
   1.0200000000000001E-002     0.0000000000000000     
   1.0500000000000002E-002     0.0000000000000000     
   1.0800000000000004E-002     0.0000000000000000     
   1.1099999999999999E-002     0.0000000000000000     
   1.1400000000000000E-002     0.0000000000000000     
   1.1700000000000002E-002     0.0000000000000000     
   1.2000000000000004E-002     0.0000000000000000     
   1.2300000000000002E-002    -6.6095635086157309E-073
   1.2600000000000000E-002    -1.1487601051862645E-072
   1.2900000000000002E-002    -5.6227820136851580E-072
   1.3200000000000000E-002     2.6930911289189939E-071
   1.3500000000000002E-002    -2.2941464755110721E-065
   1.3800000000000003E-002     1.3847139947293566E-064
   1.4100000000000001E-002    -6.2670932837514598E-045
   1.4400000000000000E-002     1.6483462323583666E-044
   1.4700000000000001E-002    -4.8817790709860002E-044
   1.4999999999999999E-002    -6.1589500938652626E-044
   1.5300000000000001E-002     1.7818036949445055E-037
   1.5600000000000003E-002    -2.1243726857142786E-036
   1.5899999999999997E-002     1.4152642879858239E-036
   1.6199999999999999E-002     1.9404050963089523E-035
   1.6500000000000001E-002    -4.4689236387358183E-035
   1.6800000000000002E-002     3.5241374306474971E-035
   1.7100000000000004E-002    -5.8441676016098259E-035
   1.7400000000000006E-002     7.0457058755536978E-035
   1.7700000000000000E-002    -5.3114990818259814E-035
   1.8000000000000002E-002    -4.1006476739428842E-034
   1.8300000000000004E-002     6.0965604805104302E-034
   1.8600000000000005E-002    -7.3128484398133415E-034
   1.8900000000000000E-002     9.7763353298047877E-034
   1.9200000000000002E-002    -1.0829086006323812E-033
   1.9500000000000003E-002    -1.8541859876155377E-034
   1.9799999999999998E-002     2.7923169263111576E-033
   2.0100000000000000E-002    -7.6687586610352085E-033
   2.0400000000000001E-002     1.2451958372114638E-032
   2.0700000000000003E-002    -1.4928485739259756E-032
   2.0999999999999998E-002     1.1829089117322959E-032
   2.1299999999999999E-002     2.2792472254232090E-033
   2.1600000000000001E-002    -3.6055585976266758E-032
   2.1900000000000003E-002     1.2710284495096353E-031
   2.2200000000000004E-002    -3.8421680409921376E-031
   2.2500000000000006E-002     1.0001505876811462E-030
   2.2800000000000001E-002    -2.0521608290945450E-030
   2.3100000000000002E-002     2.4397415620184932E-030
   2.3400000000000004E-002     3.5800968075060879E-030
   2.3699999999999999E-002    -3.4079410898413789E-029
   2.4000000000000000E-002     1.2678352326021568E-028
   2.4300000000000002E-002    -3.0921004652263450E-028
   2.4599999999999997E-002     3.9451516491328063E-028
   2.4900000000000005E-002     7.3894760652777659E-028
   2.5200000000000000E-002    -6.8152081817634713E-027
   2.5499999999999995E-002     2.5728015687235911E-026
   2.5800000000000003E-002    -6.1849406402223611E-026
   2.6099999999999998E-002     6.4312096450916322E-026
   2.6400000000000007E-002     2.5063347169348868E-025
   2.6700000000000002E-002    -1.7727766858532078E-024
   2.6999999999999996E-002     6.1770635450910328E-024
   2.7300000000000005E-002    -1.3702250296666345E-023
   2.7600000000000000E-002     1.2700527454803263E-023
   2.7900000000000008E-002     4.5222141976540971E-023
   2.8200000000000003E-002    -2.6815396805751983E-022
   2.8499999999999998E-002     7.5730723142887907E-022
   2.8800000000000006E-002    -1.2897812617609479E-021
   2.9100000000000001E-002     7.6082197248613763E-022
   2.9400000000000003E-002     3.0063868739969291E-021
   2.9700000000000004E-002    -1.2833457415071218E-020
   3.0000000000000006E-002     3.6205184897735326E-020
   3.0300000000000001E-002    -1.0504263266705370E-019
   3.0600000000000002E-002     2.8062149885000337E-019
   3.0900000000000004E-002    -4.1951597264329287E-019
   3.1199999999999999E-002    -7.4694274096347524E-019
   3.1500000000000007E-002     6.7376457510914552E-018
   3.1800000000000002E-002    -1.9682187351057022E-017
   3.2099999999999997E-002     2.0819257364270999E-017
   3.2400000000000005E-002     6.2114588108736843E-017
   3.2700000000000000E-002    -3.2026758223664083E-016
   3.3000000000000002E-002     5.6581417720410967E-016
   3.3300000000000003E-002     2.4619074935949072E-016
   3.3599999999999998E-002    -3.7592933229584499E-015
   3.3900000000000000E-002     8.2826970548131757E-015
   3.4200000000000001E-002    -7.5590450715587441E-016
   3.4500000000000003E-002    -4.0384901773983722E-014
   3.4799999999999998E-002     9.4912088396510899E-014
   3.5099999999999999E-002    -6.2111646009485213E-015
   3.5400000000000001E-002    -4.4788553232126727E-013
   3.5699999999999996E-002     9.0850608399065555E-013
   3.6000000000000004E-002     4.2764775352751290E-013
   3.6299999999999999E-002    -4.9845872481892163E-012
   3.6600000000000008E-002     6.2304344848228759E-012
   3.6900000000000002E-002     1.3024617205291706E-011
   3.7199999999999997E-002    -4.6316124172616405E-011
   3.7500000000000006E-002     3.3698179314777324E-012
   3.7800000000000000E-002     1.9617191480340257E-010
   3.8100000000000009E-002    -2.2566777771472865E-010
   3.8400000000000004E-002    -6.0349075597016168E-010
   3.8699999999999998E-002     1.4353601168290635E-009
   3.9000000000000007E-002     1.4050249350703566E-009
   3.9300000000000002E-002    -6.5362424485717198E-009
   3.9600000000000003E-002    -2.3968314432998270E-009
   3.9900000000000005E-002     2.5909879949600563E-008
   4.0200000000000000E-002     3.5908350662994848E-009
   4.0500000000000001E-002    -9.7318242070498608E-008
   4.0800000000000003E-002    -2.4933565783891651E-008
   4.1100000000000005E-002     3.3236898847330887E-007
   4.1399999999999999E-002     1.9203208171204460E-007
   4.1700000000000008E-002    -1.0888176802927545E-006
   4.2000000000000003E-002    -1.2383433072640942E-006
   4.2299999999999997E-002     4.7018711342362226E-006
   4.2600000000000006E-002     1.8706553099750506E-005
   4.2900000000000001E-002     3.5526455303019548E-005
   4.3200000000000002E-002     4.7875568121481281E-005
   4.3500000000000004E-002     5.6769586604956231E-005
   4.3799999999999999E-002     7.4404604035620039E-005
   4.4100000000000000E-002     1.1561030661316814E-004
   4.4400000000000002E-002     1.8826424829261756E-004
   4.4700000000000004E-002     2.9483748353991253E-004
   4.4999999999999998E-002     4.4339842203670811E-004
   4.5300000000000000E-002     6.5315711745687194E-004
   4.5600000000000002E-002     9.4729648782088929E-004
   4.5899999999999996E-002     1.3468934710255812E-003
   4.6200000000000005E-002     1.8783774891286316E-003
   4.6500000000000000E-002     2.5813227648133754E-003
   4.6799999999999994E-002     3.4996585020048493E-003
   4.7100000000000003E-002     4.6685053420145910E-003
   4.7399999999999998E-002     6.1153419593758728E-003
   4.7700000000000006E-002     7.8654884540729011E-003
   4.8000000000000001E-002     9.9332331772075937E-003
   4.8300000000000010E-002     1.2305050067477213E-002
   4.8600000000000004E-002     1.4927725218897903E-002
   4.8899999999999999E-002     1.7697617333262881E-002
   4.9200000000000008E-002     2.0456179920855095E-002
   4.9500000000000002E-002     2.2997237723800908E-002
   4.9800000000000011E-002     2.5069125033250962E-002
   5.0100000000000006E-002     2.6356138401372586E-002
   5.0400000000000000E-002     2.6474056978064365E-002
   5.0700000000000009E-002     2.5019832290438585E-002
   5.1000000000000004E-002     2.1637667441969950E-002
   5.1299999999999998E-002     1.6049465778957377E-002
   5.1600000000000007E-002     8.0711988861316211E-003
   5.1900000000000002E-002    -2.3379491581707670E-003
   5.2200000000000010E-002    -1.5004477403610906E-002
   5.2500000000000005E-002    -2.9504652030235612E-002
   5.2800000000000000E-002    -4.5150927192616971E-002
   5.3099999999999994E-002    -6.1002927875534477E-002
   5.3400000000000003E-002    -7.5917392303434750E-002
   5.3699999999999998E-002    -8.8637105792542886E-002
   5.4000000000000006E-002    -9.7895704335493855E-002
   5.4300000000000001E-002   -0.10253211179053771     
   5.4599999999999996E-002   -0.10162726921360368     
   5.4900000000000004E-002    -9.4661699738644564E-002
   5.5199999999999999E-002    -8.1651682840476608E-002
   5.5499999999999994E-002    -6.3263218411214295E-002
   5.5800000000000002E-002    -4.0821246862561757E-002
   5.6099999999999997E-002    -1.6270034395980300E-002
   5.6400000000000006E-002     7.9127265973939469E-003
   5.6700000000000000E-002     2.8811303597110368E-002
   5.6999999999999995E-002     4.3269973413644032E-002
   5.7300000000000004E-002     4.8125450496732919E-002
   5.7599999999999998E-002     4.0499610924221295E-002
   5.7900000000000007E-002     1.7997228961531712E-002
   5.8200000000000002E-002    -2.1041580506264045E-002
   5.8499999999999996E-002    -7.7303898931948681E-002
   5.8800000000000005E-002   -0.15030522261358298     
   5.9100000000000000E-002   -0.23828646026311570     
   5.9400000000000008E-002   -0.33811610315154028     
   5.9700000000000003E-002   -0.44523977535953069     
   6.0000000000000012E-002   -0.55370753269842488     
   6.0300000000000006E-002   -0.65628819931260407     
   6.0600000000000001E-002   -0.74470114033157875     
   6.0900000000000010E-002   -0.80997043266854074     
   6.1200000000000004E-002   -0.84293615366381680     
   6.1500000000000013E-002   -0.83484804336204144     
   6.1800000000000008E-002   -0.77818655847649676     
   6.2100000000000002E-002   -0.66738271771935509     
   6.2399999999999997E-002   -0.49975157013197430     
   6.2700000000000006E-002   -0.27625090261890284     
   6.3000000000000000E-002    -1.9274990321295575E-003
   6.3300000000000009E-002    0.31360944531600982     
   6.3600000000000004E-002    0.65643506635492344     
   6.3899999999999998E-002     1.0088376939544679     
   6.4199999999999993E-002     1.3501954025050564     
   6.4500000000000002E-002     1.6584110216021730     
   6.4800000000000010E-002     1.9116681782815375     
   6.5100000000000005E-002     2.0902132971141132     
   6.5400000000000000E-002     2.1782290934038757     
   6.5700000000000008E-002     2.1654908670547584     
   6.5999999999999989E-002     2.0485482242807387     
   6.6299999999999998E-002     1.8313865699641960     
   6.6600000000000006E-002     1.5254974411209878     
   6.6900000000000001E-002     1.1490634730153917     
   6.7199999999999996E-002    0.72561049972403480     
   6.7500000000000004E-002    0.28221118932082906     
   6.7800000000000013E-002   -0.15279656230335734     
   6.8099999999999994E-002   -0.55222260625874597     
   6.8400000000000002E-002   -0.89206045655675681     
   6.8700000000000011E-002    -1.1534001819734094     
   6.8999999999999992E-002    -1.3240621097058483     
   6.9300000000000000E-002    -1.3990106604897978     
   6.9600000000000009E-002    -1.3804162778233040     
   6.9900000000000004E-002    -1.2773835711170476     
   7.0199999999999999E-002    -1.1045677727465937     
   7.0500000000000007E-002   -0.88073111355054856     
   7.0800000000000016E-002   -0.62727279342447761     
   7.1099999999999997E-002   -0.36622030484551987     
   7.1400000000000005E-002   -0.11857464402208207     
   7.1700000000000000E-002     9.6885432841438510E-002
   7.1999999999999995E-002    0.26495026583295267     
   7.2300000000000003E-002    0.37469946446547986     
   7.2600000000000012E-002    0.41982399631343015     
   7.2900000000000006E-002    0.39900460194760590     
   7.3200000000000001E-002    0.31562846427972135     
   7.3499999999999996E-002    0.17733564703553764     
   7.3800000000000004E-002    -4.4230702297633154E-003
   7.4099999999999999E-002   -0.21506455352479845     
   7.4400000000000008E-002   -0.43801101615101212     
   7.4700000000000003E-002   -0.65543335014963922     
   7.5000000000000011E-002   -0.84939306094722256     
   7.5299999999999992E-002    -1.0031384122300597     
   7.5600000000000001E-002    -1.1022087212043170     
   7.5900000000000009E-002    -1.1353927714995049     
   7.6200000000000004E-002    -1.0957800006477296     
   7.6499999999999999E-002   -0.98138706413122012     
   7.6800000000000007E-002   -0.79560737359331735     
   7.7099999999999988E-002   -0.54707448301846617     
   7.7399999999999997E-002   -0.24949126176814787     
   7.7700000000000005E-002     7.9371508090986267E-002
   7.8000000000000014E-002    0.41872740711671330     
   7.8299999999999995E-002    0.74610037321891509     
   7.8600000000000003E-002     1.0388850022385305     
   7.8900000000000012E-002     1.2760133769172195     
   7.9199999999999993E-002     1.4393409494146918     
   7.9500000000000001E-002     1.5149703008297677     
   7.9800000000000010E-002     1.4941781722617546     
   8.0100000000000018E-002     1.3740109152002449     
   8.0399999999999999E-002     1.1576826505225313     
   8.0700000000000008E-002    0.85418342761145893     
   8.1000000000000003E-002    0.47788723437675168     
   8.1299999999999997E-002     4.7709425991758127E-002
   8.1600000000000006E-002   -0.41411618356789559     
   8.1900000000000014E-002   -0.88322813294137037     
   8.2199999999999995E-002    -1.3345038988575397     
   8.2500000000000004E-002    -1.7434840299017553     
   8.2799999999999999E-002    -2.0876090621318077     
   8.3100000000000007E-002    -2.3475842567823917     
   8.3400000000000002E-002    -2.5082337944506938     
   8.3700000000000011E-002    -2.5593514525793579     
   8.4000000000000005E-002    -2.4962062912786522     
   8.4300000000000000E-002    -2.3198313782156985     
   8.4599999999999995E-002    -2.0369646608112695     
   8.4900000000000003E-002    -1.6597158955000852     
   8.5199999999999998E-002    -1.2050037414672894     
   8.5500000000000007E-002   -0.69369322185866711     
   8.5800000000000001E-002   -0.14978769336749587     
   8.6100000000000010E-002    0.40112844422334143     
   8.6399999999999991E-002    0.93274832323983092     
   8.6699999999999999E-002     1.4195648511024814     
   8.7000000000000008E-002     1.8383225304333213     
   8.7300000000000003E-002     2.1691641928688106     
   8.7599999999999997E-002     2.3967054026167141     
   8.7900000000000006E-002     2.5113196517431895     
   8.8200000000000014E-002     2.5095400955679761     
   8.8499999999999995E-002     2.3945415158130388     
   8.8800000000000004E-002     2.1761515262772044     
   8.9100000000000013E-002     1.8704608776692300     
   8.9399999999999993E-002     1.4987354344860400     
   8.9700000000000002E-002     1.0864430694815015     
   9.0000000000000011E-002    0.66116720317051636     
   9.0299999999999991E-002    0.25105201657115112     
   9.0600000000000000E-002   -0.11733544817316642     
   9.0900000000000009E-002   -0.42094291560796265     
   9.1200000000000017E-002   -0.64201368494856703     
   9.1499999999999998E-002   -0.76906605369799630     
   9.1800000000000007E-002   -0.79811849102077448     
   9.2100000000000001E-002   -0.73247971028485015     
   9.2399999999999996E-002   -0.58226032820744678     
   9.2700000000000005E-002   -0.36345176441672727     
   9.3000000000000013E-002    -9.6162197328940491E-002
   9.3300000000000008E-002    0.19722329714315670     
   9.3600000000000003E-002    0.49399697331952225     
   9.3899999999999997E-002    0.77309155432253174     
   9.4200000000000006E-002     1.0165125168492990     
   9.4500000000000001E-002     1.2106335236168009     
   9.4800000000000009E-002     1.3467583759604376     
   9.5100000000000004E-002     1.4210028774597592     
   9.5399999999999999E-002     1.4338808200722855     
   9.5699999999999993E-002     1.3893892912697166     
   9.6000000000000002E-002     1.2939064649208598     
   9.6300000000000011E-002     1.1549574275074190     
   9.6600000000000005E-002    0.98008216671340187     
   9.6900000000000000E-002    0.77606845964000604     
   9.7200000000000009E-002    0.54871458663876271     
   9.7499999999999989E-002    0.30231187367968904     
   9.7799999999999998E-002     4.0350902996927125E-002
   9.8100000000000007E-002   -0.23390568628794953     
   9.8400000000000015E-002   -0.51694721030787905     
   9.8699999999999996E-002   -0.80418789622517883     
   9.9000000000000005E-002    -1.0891336242593899     
   9.9300000000000013E-002    -1.3636312538019666     
   9.9599999999999994E-002    -1.6176834169551475     
   9.9900000000000003E-002    -1.8399261305507426     
  0.10020000000000001         -2.0186948847640029     
  0.10049999999999999         -2.1429414818236623     
  0.10080000000000000         -2.2034781041656335     
  0.10110000000000001         -2.1945450357159242     
  0.10140000000000000         -2.1141696012021653     
  0.10170000000000000         -1.9650617854727359     
  0.10200000000000001         -1.7547540659652641     
  0.10230000000000002         -1.4949250192804056     
  0.10260000000000000         -1.2007287688740926     
  0.10290000000000001        -0.88943099235919731     
  0.10320000000000000        -0.57871996428826211     
  0.10350000000000001        -0.28516571644979954     
  0.10380000000000000         -2.2487558110666685E-002
  0.10410000000000001         0.19949467148767372     
  0.10440000000000001         0.37567396066520098     
  0.10470000000000000         0.50615502361256381     
  0.10500000000000000         0.59586621084949165     
  0.10530000000000000         0.65362149976052042     
  0.10560000000000000         0.69100231139888080     
  0.10590000000000001         0.72053259512559942     
  0.10620000000000000         0.75419967968890678     
  0.10650000000000001         0.80179434345158940     
  0.10679999999999999         0.86938636600198071     
  0.10710000000000000         0.95839523212022082     
  0.10740000000000001          1.0652052049294463     
  0.10770000000000000          1.1811938169400811     
  0.10800000000000000          1.2934813388581816     
  0.10830000000000001          1.3862424989886737     
  0.10859999999999999          1.4423433459815320     
  0.10890000000000000          1.4449956354348961     
  0.10920000000000001          1.3800536351889177     
  0.10950000000000001          1.2375094867549870     
  0.10979999999999999          1.0129313462092864     
  0.11009999999999999         0.70883441016551396     
  0.11040000000000001         0.33481982447628716     
  0.11070000000000001         -9.2913768321868401E-002
  0.11100000000000000        -0.55200350274385135     
  0.11130000000000000         -1.0158193123860866     
  0.11160000000000002         -1.4553562433122533     
  0.11190000000000001         -1.8413746408259617     
  0.11220000000000001         -2.1469354702580961     
  0.11250000000000000         -2.3495140169263800     
  0.11280000000000000         -2.4329178444174588     
  0.11309999999999999         -2.3886382702991082     
  0.11340000000000001         -2.2166023383250297     
  0.11369999999999998         -1.9252426751098914     
  0.11400000000000000         -1.5306961653147950     
  0.11430000000000000         -1.0557863810886079     
  0.11460000000000002        -0.52812767757073875     
  0.11489999999999999          2.1965970876302546E-002
  0.11520000000000001         0.56337428061005568     
  0.11550000000000001          1.0665932931361601     
  0.11580000000000000          1.5054107984226266     
  0.11609999999999999          1.8582754256935070     
  0.11640000000000002          2.1098869008271715     
  0.11670000000000001          2.2513647276076960     
  0.11700000000000001          2.2804601418509161     
  0.11730000000000000          2.2015490779940396     
  0.11760000000000000          2.0246815942946101     
  0.11789999999999999          1.7646543053311081     
  0.11820000000000001          1.4398688338300976     
  0.11850000000000001          1.0708554036477400     
  0.11880000000000000         0.67886658737193939     
  0.11910000000000000         0.28423904288689000     
  0.11940000000000002         -9.4586916054152786E-002
  0.11970000000000001        -0.44254498596058944     
  0.12000000000000001        -0.74856256824177358     
  0.12030000000000000         -1.0059628472647766     
  0.12060000000000000         -1.2126141819354261     
  0.12089999999999999         -1.3704040127786574     
  0.12119999999999999         -1.4841404079773202     
  0.12150000000000001         -1.5605435527318678     
  0.12180000000000001         -1.6067791174019741     
  0.12210000000000000         -1.6289420345755430     
  0.12239999999999999         -1.6309037451779416     
  0.12270000000000002         -1.6133656766909719     
  0.12300000000000001         -1.5731112049203761     
  0.12330000000000001         -1.5036576094526728     
  0.12360000000000000         -1.3955493286095564     
  0.12390000000000000         -1.2377389990509780     
  0.12419999999999999         -1.0197462166821483     
  0.12450000000000001        -0.73287716706831241     
  0.12480000000000001        -0.37234664017047897     
  0.12509999999999999          6.0715945608327722E-002
  0.12540000000000001         0.55885306581854055     
  0.12570000000000003          1.1074755002145884     
  0.12600000000000000          1.6851167551656179     
  0.12630000000000002          2.2649083083007557     
  0.12659999999999999          2.8156368758769577     
  0.12690000000000001          3.3046846501826042     
  0.12719999999999998          3.7005419929362211     
  0.12750000000000000          3.9744782729403054     
  0.12780000000000002          4.1042399764175972     
  0.12809999999999999          4.0754695361363069     
  0.12840000000000001          3.8827190873453614     
  0.12869999999999998          3.5311465773194541     
  0.12900000000000000          3.0355568460191189     
  0.12930000000000003          2.4196401171474284     
  0.12959999999999999          1.7152139460825961     
  0.12990000000000002         0.95897852208208068     
  0.13019999999999998         0.19066224838112766     
  0.13050000000000000        -0.54971595878866852     
  0.13080000000000003         -1.2253349722495350     
  0.13109999999999999         -1.8045321488102499     
  0.13140000000000002         -2.2628347748447641     
  0.13169999999999998         -2.5857167212268712     
  0.13200000000000001         -2.7681920591629221     
  0.13229999999999997         -2.8157634891240120     
  0.13260000000000000         -2.7439108137630859     
  0.13290000000000002         -2.5760219416445467     
  0.13319999999999999         -2.3417439842629775     
  0.13350000000000001         -2.0745528170533127     
  0.13380000000000003         -1.8084805461067350     
  0.13410000000000000         -1.5755855293804044     
  0.13440000000000002         -1.4030064768163615     
  0.13469999999999999         -1.3110719101950048     
  0.13500000000000001         -1.3118412798649950     
  0.13529999999999998         -1.4075254418024588     
  0.13560000000000000         -1.5915532228838307     
  0.13590000000000002         -1.8487907660986322     
  0.13619999999999999         -2.1569647701865455     
  0.13650000000000001         -2.4892020049874510     
  0.13680000000000003         -2.8159458392538204     
  0.13710000000000000         -3.1074716757141556     
  0.13740000000000002         -3.3366315064010181     
  0.13769999999999999         -3.4799875931818596     
  0.13800000000000001         -3.5204033621725159     
  0.13829999999999998         -3.4477035848756579     
  0.13860000000000000         -3.2589874218508479     
  0.13890000000000002         -2.9588074750413980     
  0.13919999999999999         -2.5589492505757674     
  0.13950000000000001         -2.0763676463185798     
  0.13979999999999998         -1.5330392513395192     
  0.14010000000000000        -0.95344011607177515     
  0.14040000000000002        -0.36303900653608023     
  0.14069999999999999         0.21353391851836911     
  0.14100000000000001         0.75395722636763840     
  0.14130000000000004          1.2403971771542019     
  0.14160000000000000          1.6597467387494382     
  0.14189999999999997          2.0048241466722012     
  0.14219999999999999          2.2745468603141372     
  0.14250000000000002          2.4732086779944940     
  0.14279999999999998          2.6094501264709478     
  0.14310000000000000          2.6960864417734847     
  0.14339999999999997          2.7469926309321475     
  0.14369999999999999          2.7765393734002393     
  0.14400000000000002          2.7980163590214104     
  0.14429999999999998          2.8217339994483295     
  0.14460000000000001          2.8543732605761836     
  0.14490000000000003          2.8992121599716909     
  0.14520000000000000          2.9553604433543774     
  0.14550000000000002          3.0186052551520817     
  0.14579999999999999          3.0824158342756482     
  0.14610000000000001          3.1392879564006413     
  0.14640000000000003          3.1811206354385355     
  0.14670000000000000          3.2009212930745146     
  0.14699999999999996          3.1939632809178793     
  0.14729999999999999          3.1570451143162854     
  0.14760000000000001          3.0900909759552713     
  0.14789999999999998          2.9954607327081284     
  0.14820000000000000          2.8767423457366759     