  -1.4999999999999999E-002     0.0000000000000000     
  -1.4700000000000000E-002     0.0000000000000000     
  -1.4400000000000000E-002     0.0000000000000000     
  -1.4100000000000000E-002     0.0000000000000000     
  -1.3800000000000000E-002     0.0000000000000000     
  -1.3500000000000000E-002     0.0000000000000000     
  -1.3200000000000000E-002     0.0000000000000000     
  -1.2899999999999998E-002     0.0000000000000000     
  -1.2600000000000000E-002     0.0000000000000000     
  -1.2299999999999998E-002     0.0000000000000000     
  -1.2000000000000000E-002     0.0000000000000000     
  -1.1699999999999999E-002     0.0000000000000000     
  -1.1399999999999999E-002     0.0000000000000000     
  -1.1099999999999999E-002     0.0000000000000000     
  -1.0799999999999999E-002     0.0000000000000000     
  -1.0499999999999999E-002     0.0000000000000000     
  -1.0199999999999999E-002     0.0000000000000000     
  -9.8999999999999991E-003     0.0000000000000000     
  -9.5999999999999992E-003     0.0000000000000000     
  -9.2999999999999992E-003     0.0000000000000000     
  -8.9999999999999993E-003     0.0000000000000000     
  -8.6999999999999994E-003     0.0000000000000000     
  -8.3999999999999995E-003     0.0000000000000000     
  -8.0999999999999996E-003     0.0000000000000000     
  -7.7999999999999988E-003     0.0000000000000000     
  -7.4999999999999997E-003     0.0000000000000000     
  -7.1999999999999998E-003     0.0000000000000000     
  -6.8999999999999981E-003     0.0000000000000000     
  -6.5999999999999982E-003     0.0000000000000000     
  -6.3000000000000000E-003     0.0000000000000000     
  -6.0000000000000001E-003     0.0000000000000000     
  -5.6999999999999985E-003     0.0000000000000000     
  -5.3999999999999986E-003     0.0000000000000000     
  -5.1000000000000004E-003     0.0000000000000000     
  -4.7999999999999987E-003     0.0000000000000000     
  -4.5000000000000005E-003     0.0000000000000000     
  -4.1999999999999989E-003     0.0000000000000000     
  -3.8999999999999990E-003     0.0000000000000000     
  -3.5999999999999990E-003     0.0000000000000000     
  -3.2999999999999991E-003     0.0000000000000000     
  -2.9999999999999992E-003     0.0000000000000000     
  -2.6999999999999993E-003     0.0000000000000000     
  -2.3999999999999994E-003     0.0000000000000000     
  -2.0999999999999977E-003     0.0000000000000000     
  -1.7999999999999995E-003     0.0000000000000000     
  -1.4999999999999979E-003     0.0000000000000000     
  -1.1999999999999997E-003     0.0000000000000000     
  -8.9999999999999976E-004     0.0000000000000000     
  -5.9999999999999810E-004     0.0000000000000000     
  -2.9999999999999992E-004     0.0000000000000000     
   0.0000000000000000          0.0000000000000000     
   3.0000000000000165E-004     0.0000000000000000     
   5.9999999999999984E-004     0.0000000000000000     
   9.0000000000000149E-004     0.0000000000000000     
   1.2000000000000031E-003     4.5801315474646031E-042
   1.5000000000000013E-003    -2.9822212652796222E-041
   1.8000000000000030E-003    -1.0718322861458340E-037
   2.1000000000000012E-003     5.8363148357640619E-037
   2.3999999999999994E-003    -3.3358477126105875E-036
   2.7000000000000010E-003     1.0295259378797109E-035
   2.9999999999999992E-003    -3.3543999494773384E-035
   3.3000000000000008E-003     7.0002904803080792E-035
   3.6000000000000025E-003    -4.3619950466357025E-034
   3.9000000000000007E-003     9.5295550753764927E-034
   4.2000000000000023E-003    -2.5152445040166905E-033
   4.5000000000000005E-003     2.4798283359431544E-033
   4.7999999999999987E-003     3.9197824813129830E-033
   5.1000000000000004E-003    -2.0546621777341592E-032
   5.4000000000000020E-003     4.5173375520090285E-032
   5.7000000000000037E-003    -6.7895311896765704E-032
   5.9999999999999984E-003     5.8131318456841332E-032
   6.3000000000000000E-003     3.4608880234327388E-032
   6.6000000000000017E-003    -2.4441140322388159E-031
   6.9000000000000034E-003     5.4220956348222863E-031
   7.2000000000000015E-003    -7.7874720710701206E-031
   7.5000000000000032E-003     6.6283625338891234E-031
   7.8000000000000014E-003     1.5369938411608145E-031
   8.0999999999999996E-003    -1.8577992034744102E-030
   8.4000000000000012E-003     4.1597658955505420E-030
   8.7000000000000029E-003    -6.0174045182388411E-030
   9.0000000000000011E-003     5.6354466878301140E-030
   9.2999999999999992E-003    -1.0133601370203760E-030
   9.6000000000000009E-003    -8.8962137958303190E-030
   9.8999999999999991E-003     2.2716589920299877E-029
   1.0200000000000001E-002    -3.5456526488322961E-029
   1.0500000000000002E-002     3.8449583852135250E-029
   1.0800000000000004E-002    -2.1244135099816323E-029
   1.1099999999999999E-002    -2.3975277928937004E-029
   1.1400000000000000E-002     9.4744399693852685E-029
   1.1700000000000002E-002    -1.6952410982243906E-028
   1.2000000000000004E-002     2.0705233106426533E-028
   1.2300000000000002E-002    -1.6047156532338277E-028
   1.2600000000000000E-002    -2.6471046236226209E-030
   1.2900000000000002E-002     2.8049154910630600E-028
   1.3200000000000000E-002    -6.1334731469958261E-028
   1.3500000000000002E-002     8.7588465644324552E-028
   1.3800000000000003E-002    -9.0250779858960211E-028
   1.4100000000000001E-002     5.1579232877633440E-028
   1.4400000000000000E-002     4.5235275070409767E-028
   1.4700000000000001E-002    -2.0629266745895631E-027
   1.4999999999999999E-002     3.7810884154493436E-027
   1.5300000000000001E-002    -3.6855450609948628E-027
   1.5600000000000003E-002    -8.3596421229054294E-029
   1.5899999999999997E-002     3.8530069619134442E-027
   1.6199999999999999E-002     1.4260501118300494E-027
   1.6500000000000001E-002    -1.1742940634301146E-026
   1.6800000000000002E-002    -4.4504601635937760E-027
   1.7100000000000004E-002     6.3883104816490298E-026
   1.7400000000000006E-002    -8.7439928000679240E-026
   1.7700000000000000E-002    -5.8105734829405200E-026
   1.8000000000000002E-002     2.9209828279132960E-025
   1.8300000000000004E-002    -1.7938007982485679E-025
   1.8600000000000005E-002    -4.9281260594362897E-025
   1.8900000000000000E-002     8.6691246416330763E-025
   1.9200000000000002E-002     3.4900908802039866E-025
   1.9500000000000003E-002    -2.4585788789254426E-024
   1.9799999999999998E-002     1.8571323253752004E-024
   2.0100000000000000E-002     4.1031713523451938E-024
   2.0400000000000001E-002    -1.0503498512195937E-023
   2.0700000000000003E-002     2.1698971482658677E-024
   2.0999999999999998E-002     3.3834396132549670E-023
   2.1299999999999999E-002    -5.7931609317404454E-023
   2.1600000000000001E-002    -8.0447105096742129E-023
   2.1900000000000003E-002     4.0354798223537342E-022
   2.2200000000000004E-002     9.6351813713555232E-023
   2.2500000000000006E-002    -3.2548365892085030E-021
   2.2800000000000001E-002     4.7072782958686426E-021
   2.3100000000000002E-002     1.7067508737841659E-020
   2.3400000000000004E-002    -7.2423127327469231E-020
   2.3699999999999999E-002     4.0612787173915153E-020
   2.4000000000000000E-002     3.6943767964231168E-019
   2.4300000000000002E-002    -1.0299345623688195E-018
   2.4599999999999997E-002     2.6783551087746911E-019
   2.4900000000000005E-002     4.1832212759169691E-018
   2.5200000000000000E-002    -9.6341101539486400E-018
   2.5499999999999995E-002     5.3804641122417425E-018
   2.5800000000000003E-002     1.7593985276492823E-017
   2.6099999999999998E-002    -6.8436484669347978E-017
   2.6400000000000007E-002     1.7904145090380734E-016
   2.6700000000000002E-002    -2.0586931195517761E-016
   2.6999999999999996E-002    -7.6331443242789808E-016
   2.7300000000000005E-002     3.5822748151838413E-015
   2.7600000000000000E-002    -3.3845406310403863E-015
   2.7900000000000008E-002    -1.3650072055498930E-014
   2.8200000000000003E-002     4.2643903078233330E-014
   2.8499999999999998E-002    -6.1023615874327939E-015
   2.8800000000000006E-002    -1.8169044776886507E-013
   2.9100000000000001E-002     2.9461628058425096E-013
   2.9400000000000003E-002     3.0710436711112213E-013
   2.9700000000000004E-002    -1.5267907534891236E-012
   3.0000000000000006E-002     8.9158243528895664E-013
   3.0300000000000001E-002     4.1690010165410308E-012
   3.0600000000000002E-002    -8.3101799929260245E-012
   3.0900000000000004E-002    -3.4588243863301183E-012
   3.1199999999999999E-002     3.2193691482940055E-011
   3.1500000000000007E-002    -2.8215319826540972E-011
   3.1800000000000002E-002    -7.7799830046334843E-011
   3.2099999999999997E-002     1.8712057437764275E-010
   3.2400000000000005E-002     8.8408516809083572E-011
   3.2700000000000000E-002    -7.4498202632915234E-010
   3.3000000000000002E-002     2.3788617056076775E-010
   3.3300000000000003E-002     2.4215794734021886E-009
   3.3599999999999998E-002    -1.8809809546943440E-009
   3.3900000000000000E-002    -7.2126395180507360E-009
   3.4200000000000001E-002     6.8383307712526242E-009
   3.4500000000000003E-002     1.9401978584538863E-008
   3.4799999999999998E-002    -2.0937640321487533E-008
   3.5099999999999999E-002    -5.7265451992037734E-008
   3.5400000000000001E-002     3.7854054948046245E-008
   3.5699999999999996E-002     2.0484312180816003E-007
   3.6000000000000004E-002     4.9306750750018128E-007
   3.6299999999999999E-002     1.9863245455664896E-006
   3.6600000000000008E-002     6.5259759911514898E-006
   3.6900000000000002E-002     1.4493479477867388E-005
   3.7199999999999997E-002     2.3822602629181393E-005
   3.7500000000000006E-002     3.2790056184785898E-005
   3.7800000000000000E-002     4.3178446475100447E-005
   3.8100000000000009E-002     5.9612217383434452E-005
   3.8400000000000004E-002     8.7370643256848475E-005
   3.8699999999999998E-002     1.3224134123260100E-004
   3.9000000000000007E-002     2.0018881248355655E-004
   3.9300000000000002E-002     2.9580003038747404E-004
   3.9600000000000003E-002     4.2462112473428315E-004
   3.9900000000000005E-002     5.9847463502257629E-004
   4.0200000000000000E-002     8.3342112083987032E-004
   4.0500000000000001E-002     1.1406476362152123E-003
   4.0800000000000003E-002     1.5249135173029732E-003
   4.1100000000000005E-002     1.9918210444492667E-003
   4.1399999999999999E-002     2.5465237491937376E-003
   4.1700000000000008E-002     3.1815402136144383E-003
   4.2000000000000003E-002     3.8726644147158533E-003
   4.2299999999999997E-002     4.5837556269582806E-003
   4.2600000000000006E-002     5.2589178159360810E-003
   4.2900000000000001E-002     5.8027019651500453E-003
   4.3200000000000002E-002     6.0752915564657043E-003
   4.3500000000000004E-002     5.9069187762708017E-003
   4.3799999999999999E-002     5.1055258538342668E-003
   4.4100000000000000E-002     3.4498004501765725E-003
   4.4400000000000002E-002     6.9034874486028752E-004
   4.4700000000000004E-002    -3.4251791714934089E-003
   4.4999999999999998E-002    -9.1107934409058750E-003
   4.5300000000000000E-002    -1.6506610882904251E-002
   4.5600000000000002E-002    -2.5658536003188140E-002
   4.5899999999999996E-002    -3.6502054785629623E-002
   4.6200000000000005E-002    -4.8831801299251909E-002
   4.6500000000000000E-002    -6.2265541379879441E-002
   4.6799999999999994E-002    -7.6240560238922755E-002
   4.7100000000000003E-002    -9.0054923648057242E-002
   4.7399999999999998E-002   -0.10290894399399261     
   4.7700000000000006E-002   -0.11396316402334877     
   4.8000000000000001E-002   -0.12243772767380073     
   4.8300000000000010E-002   -0.12772157751033197     
   4.8600000000000004E-002   -0.12945489240473826     
   4.8899999999999999E-002   -0.12758188546565202     
   4.9200000000000008E-002   -0.12241759585624645     
   4.9500000000000002E-002   -0.11466206085147473     
   4.9800000000000011E-002   -0.10529339771504166     
   5.0100000000000006E-002    -9.5445100395975258E-002
   5.0400000000000000E-002    -8.6262417506340922E-002
   5.0700000000000009E-002    -7.8695758524859216E-002
   5.1000000000000004E-002    -7.3282262412276547E-002
   5.1299999999999998E-002    -6.9962650811082355E-002
   5.1600000000000007E-002    -6.7938204916112271E-002
   5.1900000000000002E-002    -6.5735600814566891E-002
   5.2200000000000010E-002    -6.1245301066230384E-002
   5.2500000000000005E-002    -5.1992834866717214E-002
   5.2800000000000000E-002    -3.5500604495858526E-002
   5.3099999999999994E-002    -9.7361559478767665E-003
   5.3400000000000003E-002     2.6468722671777412E-002
   5.3699999999999998E-002     7.2956243331196713E-002
   5.4000000000000006E-002    0.12797656491776377     
   5.4300000000000001E-002    0.18802194324059357     
   5.4599999999999996E-002    0.24794442505843184     
   5.4900000000000004E-002    0.30128718375761965     
   5.5199999999999999E-002    0.34091900811758014     
   5.5499999999999994E-002    0.35963819915951845     
   5.5800000000000002E-002    0.35122011957853316     
   5.6099999999999997E-002    0.31117308003720057     
   5.6400000000000006E-002    0.23758752733908961     
   5.6700000000000000E-002    0.13166752083890310     
   5.6999999999999995E-002    -2.0094433541686611E-003
   5.7300000000000004E-002   -0.15559376335236591     
   5.7599999999999998E-002   -0.31834351297273472     
   5.7900000000000007E-002   -0.47737793183578603     
   5.8200000000000002E-002   -0.61881103777683599     
   5.8499999999999996E-002   -0.72885911785151536     
   5.8800000000000005E-002   -0.79511632559886614     
   5.9100000000000000E-002   -0.80772850143748320     
   5.9400000000000008E-002   -0.76033417565592054     
   5.9700000000000003E-002   -0.65067602906998490     
   6.0000000000000012E-002   -0.48097511556714800     
   6.0300000000000006E-002   -0.25779646381610066     
   6.0600000000000001E-002     8.3020311531565444E-003
   6.0900000000000010E-002    0.30368237312249746     
   6.1200000000000004E-002    0.61249064990744928     
   6.1500000000000013E-002    0.91783042415231186     
   6.1800000000000008E-002     1.2029379362937962     
   6.2100000000000002E-002     1.4522574487653019     
   6.2399999999999997E-002     1.6524146055650111     
   6.2700000000000006E-002     1.7930596476262155     
   6.3000000000000000E-002     1.8672510525898143     
   6.3300000000000009E-002     1.8718431708013812     
   6.3600000000000004E-002     1.8073536614933259     
   6.3899999999999998E-002     1.6777986618381020     
   6.4199999999999993E-002     1.4903562528028915     
   6.4500000000000002E-002     1.2546327497075531     
   6.4800000000000010E-002    0.98205832798509074     
   6.5100000000000005E-002    0.68527820053933142     
   6.5400000000000000E-002    0.37722694977786769     
   6.5700000000000008E-002     7.0572998040167062E-002
   6.5999999999999989E-002   -0.22297844312933879     
   6.6299999999999998E-002   -0.49333839248483902     
   6.6600000000000006E-002   -0.73231334300364259     
   6.6900000000000001E-002   -0.93396667734717653     
   6.7199999999999996E-002    -1.0948143407843807     
   6.7500000000000004E-002    -1.2137136636428290     
   6.7800000000000013E-002    -1.2917208697647009     
   6.8099999999999994E-002    -1.3317733828556468     
   6.8400000000000002E-002    -1.3382134777677488     
   6.8700000000000011E-002    -1.3160396921030637     
   6.8999999999999992E-002    -1.2707095993356627     
   6.9300000000000000E-002    -1.2072666141083417     
   6.9600000000000009E-002    -1.1299486592094645     
   6.9900000000000004E-002    -1.0421529853827332     
   7.0199999999999999E-002   -0.94613446390741585     
   7.0500000000000007E-002   -0.84316428686782652     
   7.0800000000000016E-002   -0.73404196767612551     
   7.1099999999999997E-002   -0.61946599178825346     
   7.1400000000000005E-002   -0.50049760852372482     
   7.1700000000000000E-002   -0.37923199696488286     
   7.1999999999999995E-002   -0.25896736881642135     
   7.2300000000000003E-002   -0.14445719617957331     
   7.2600000000000012E-002    -4.1909070288289364E-002
   7.2900000000000006E-002     4.1764361419059121E-002
   7.3200000000000001E-002     9.9282832370418683E-002
   7.3499999999999996E-002    0.12396266733767053     
   7.3800000000000004E-002    0.11077171719036172     
   7.4099999999999999E-002     5.6987144287078878E-002
   7.4400000000000008E-002    -3.7062994207345060E-002
   7.4700000000000003E-002   -0.16761450478335480     
   7.5000000000000011E-002   -0.32742343100350602     
   7.5299999999999992E-002   -0.50631780654050063     
   7.5600000000000001E-002   -0.69194459634793615     
   7.5900000000000009E-002   -0.87065320191216744     
   7.6200000000000004E-002    -1.0288948339945072     
   7.6499999999999999E-002    -1.1546199107112067     
   7.6800000000000007E-002    -1.2379935144365897     
   7.7099999999999988E-002    -1.2724609422487374     
   7.7399999999999997E-002    -1.2553501108020724     
   7.7700000000000005E-002    -1.1874826962445120     
   7.8000000000000014E-002    -1.0731209733472697     
   7.8299999999999995E-002   -0.91914384929523507     
   7.8600000000000003E-002   -0.73394646756435156     
   7.8900000000000012E-002   -0.52669450487322433     
   7.9199999999999993E-002   -0.30590686846865822     
   7.9500000000000001E-002    -7.8744640268623212E-002
   7.9800000000000010E-002    0.14928500670715600     
   8.0100000000000018E-002    0.37513417091822049     
   8.0399999999999999E-002    0.59766360630411119     
   8.0700000000000008E-002    0.81717817148259009     
   8.1000000000000003E-002     1.0349691422271801     
   8.1299999999999997E-002     1.2525291654234745     
   8.1600000000000006E-002     1.4704367617646190     
   8.1900000000000014E-002     1.6879222467946107     
   8.2199999999999995E-002     1.9022515717956603     
   8.2500000000000004E-002     2.1084658303847528     
   8.2799999999999999E-002     2.2995987753533478     
   8.3100000000000007E-002     2.4668305323672088     
   8.3400000000000002E-002     2.6003147285258961     
   8.3700000000000011E-002     2.6899100959273761     
   8.4000000000000005E-002     2.7259647401587404     
   8.4300000000000000E-002     2.7002796267525730     
   8.4599999999999995E-002     2.6070080531433417     
   8.4900000000000003E-002     2.4433515224009001     
   8.5199999999999998E-002     2.2096453852590070     
   8.5500000000000007E-002     1.9101784790411598     
   8.5800000000000001E-002     1.5528798026830832     
   8.6100000000000010E-002     1.1491884019517729     
   8.6399999999999991E-002    0.71348129021816153     
   8.6699999999999999E-002    0.26300510947356637     
   8.7000000000000008E-002   -0.18349945186718722     
   8.7300000000000003E-002   -0.60653051582517103     
   8.7599999999999997E-002   -0.98667707602452470     
   8.7900000000000006E-002    -1.3059817331625403     
   8.8200000000000014E-002    -1.5489000419476531     
   8.8499999999999995E-002    -1.7039178096882932     
   8.8800000000000004E-002    -1.7640516312479797     
   8.9100000000000013E-002    -1.7280059010675621     
   8.9399999999999993E-002    -1.6010637856125485     
   8.9700000000000002E-002    -1.3948106695536617     
   9.0000000000000011E-002    -1.1270897622018019     
   9.0299999999999991E-002   -0.82132016228259841     
   9.0600000000000000E-002   -0.50509809533079908     
   9.0900000000000009E-002   -0.20819924167592496     
   9.1200000000000017E-002     3.9482348908801729E-002
   9.1499999999999998E-002    0.21055222433501414     
   9.1800000000000007E-002    0.28251540532643837     
   9.2100000000000001E-002    0.24010616755970077     
   9.2399999999999996E-002     7.7478459825571583E-002
   9.2700000000000005E-002   -0.20108977912501563     
   9.3000000000000013E-002   -0.58035657619154524     
   9.3300000000000008E-002    -1.0347577416233307     
   9.3600000000000003E-002    -1.5302863370856761     
   9.3899999999999997E-002    -2.0264587122064315     
   9.4200000000000006E-002    -2.4796710532092425     
   9.4500000000000001E-002    -2.8465924992955891     
   9.4800000000000009E-002    -3.0877283929749679     
   9.5100000000000004E-002    -3.1709772232530935     
   9.5399999999999999E-002    -3.0744337622516240     
   9.5699999999999993E-002    -2.7881125101822013     
   9.6000000000000002E-002    -2.3157069074704371     
   9.6300000000000011E-002    -1.6738689790486447     
   9.6600000000000005E-002   -0.89108123773394365     
   9.6900000000000000E-002    -6.2612338211734397E-003
   9.7200000000000009E-002    0.93459167986161340     
   9.7499999999999989E-002     1.8817394273686485     
   9.7799999999999998E-002     2.7844826191426919     
   9.8100000000000007E-002     3.5952027784003793     
   9.8400000000000015E-002     4.2717373303763351     
   9.8699999999999996E-002     4.7798206358642190     
   9.9000000000000005E-002     5.0951080593846800     
   9.9300000000000013E-002     5.2036001218434373     
   9.9599999999999994E-002     5.1021135570756115     
   9.9900000000000003E-002     4.7979019440050017     
  0.10020000000000001          4.3072686614569120     
  0.10049999999999999          3.6545423562113823     
  0.10080000000000000          2.8702081444246401     
  0.10110000000000001          1.9891614358461576     
  0.10140000000000000          1.0486837073650166     
  0.10170000000000000          8.6493336164739254E-002
  0.10200000000000001        -0.86074962436787095     
  0.10230000000000002         -1.7593733561421159     
  0.10260000000000000         -2.5801092335058673     
  0.10290000000000001         -3.2986496799805867     
  0.10320000000000000         -3.8969186534504114     
  0.10350000000000001         -4.3636039339829651     
  0.10380000000000000         -4.6930550913647044     
  0.10410000000000001         -4.8862061350443415     
  0.10440000000000001         -4.9492561723731390     
  0.10470000000000000         -4.8922988602749555     
  0.10500000000000000         -4.7291762283088499     
  0.10530000000000000         -4.4752736530116310     
  0.10560000000000000         -4.1470706942039506     
  0.10590000000000001         -3.7608500480095524     
  0.10620000000000000         -3.3316815996754765     
  0.10650000000000001         -2.8734745281424945     
  0.10679999999999999         -2.3978721805733816     
  0.10710000000000000         -1.9145116407080311     
  0.10740000000000001         -1.4310067698332629     
  0.10770000000000000        -0.95338447219837796     
  0.10800000000000000        -0.48576045193282413     
  0.10830000000000001         -3.1182378742969141E-002
  0.10859999999999999         0.40785637484446874     
  0.10890000000000000         0.82981601006823491     
  0.10920000000000001          1.2330484094596217     
  0.10950000000000001          1.6156304339997936     
  0.10979999999999999          1.9753307166843812     
  0.11009999999999999          2.3094038703066575     
  0.11040000000000001          2.6135136940871107     
  0.11070000000000001          2.8830622273218851     
  0.11100000000000000          3.1126650579431980     
  0.11130000000000000          3.2954198501907528     
  0.11160000000000002          3.4254580705722382     
  0.11190000000000001          3.4965337572556683     
  0.11220000000000001          3.5034645398184581     
  0.11250000000000000          3.4432836131163942     
  0.11280000000000000          3.3147900498480234     
  0.11309999999999999          3.1193868676588425     
  0.11340000000000001          2.8616306670807816     
  0.11369999999999998          2.5486626331971456     
  0.11400000000000000          2.1900705734934167     
  0.11430000000000000          1.7975104756098794     
  0.11460000000000002          1.3830089036212327     
  0.11489999999999999         0.95933320399322231     
  0.11520000000000001         0.53840288352292931     
  0.11550000000000001         0.13024990797925901     
  0.11580000000000000        -0.25633392966404572     
  0.11609999999999999        -0.61514479147460588     
  0.11640000000000002        -0.94217376617882764     
  0.11670000000000001         -1.2348806255553328     
  0.11700000000000001         -1.4920745056949121     
  0.11730000000000000         -1.7140168405605025     
  0.11760000000000000         -1.9008129618172989     
  0.11789999999999999         -2.0522578648899357     
  0.11820000000000001         -2.1687635850469738     
  0.11850000000000001         -2.2496451637689154     
  0.11880000000000000         -2.2943516388961944     
  0.11910000000000000         -2.3025549955920184     
  0.11940000000000002         -2.2743385710031112     
  0.11970000000000001         -2.2105637717516422     
  0.12000000000000001         -2.1133284467312681     
  0.12030000000000000         -1.9856455045810901     
  0.12060000000000000         -1.8320086315766098     
  0.12089999999999999         -1.6582598402426905     
  0.12119999999999999         -1.4704838171418408     
  0.12150000000000001         -1.2759062802410495     
  0.12180000000000001         -1.0810933380741268     
  0.12210000000000000        -0.89253095687364703     
  0.12239999999999999        -0.71574915103913117     
  0.12270000000000002        -0.55447712841151842     
  0.12300000000000001        -0.41178015291136294     
  0.12330000000000001        -0.28812819604566492     
  0.12360000000000000        -0.18213407680996146     
  0.12390000000000000         -9.0810699390571570E-002
  0.12419999999999999         -8.7736059994083654E-003
  0.12450000000000001          7.0948067831816092E-002
  0.12480000000000001         0.15632319859546362     
  0.12509999999999999         0.25643495262385685     
  0.12540000000000001         0.38058545661967008     
  0.12570000000000003         0.53646882977810284     
  0.12600000000000000         0.73167748330674443     
  0.12630000000000002         0.96976134215909715     
  0.12659999999999999          1.2511814071391096     
  0.12690000000000001          1.5732693108117297     
  0.12719999999999998          1.9277206935101585     
  0.12750000000000000          2.3021924992003560     
  0.12780000000000002          2.6804977427297412     
  0.12809999999999999          3.0431189477373968     
  0.12840000000000001          3.3682387014934800     
  0.12869999999999998          3.6340467534288381     
  0.12900000000000000          3.8199165861934690     
  0.12930000000000003          3.9073514981865003     
  0.12959999999999999          3.8830596021484052     
  0.12990000000000002          3.7379815414373532     
  0.13019999999999998          3.4691755386676779     
  0.13050000000000000          3.0798478102645448     
  0.13080000000000003          2.5785269881370301     
  0.13109999999999999          1.9789434325029704     
  0.13140000000000002          1.2994662543732085     
  0.13169999999999998         0.56306222296973663     
  0.13200000000000001        -0.20433279285533062     
  0.13229999999999997        -0.97167913770245318     
  0.13260000000000000         -1.7041872459919754     
  0.13290000000000002         -2.3628375313299235     
  0.13319999999999999         -2.9046521849217193     
  0.13350000000000001         -3.2833682851508783     
  0.13380000000000003         -3.4519383446647027     
  0.13410000000000000         -3.3669362543920127     
  0.13440000000000002         -2.9911478473050042     
  0.13469999999999999         -2.3013046845329126     
  0.13500000000000001         -1.2949261770539158     
  0.13529999999999998          6.5709556459871976E-003
  0.13560000000000000          1.5498594802565648     
  0.13590000000000002          3.2495288483123312     
  0.13619999999999999          4.9884801475643163     
  0.13650000000000001          6.6230702012671472     
  0.13680000000000003          7.9915286541587065     
  0.13710000000000000          8.9278634790762865     
  0.13740000000000002          9.2768637388743898     
  0.13769999999999999          8.9112330697711055     
  0.13800000000000001          7.7479937469794695     
  0.13829999999999998          5.7632386501883710     
  0.13860000000000000          3.0015325442828318     
  0.13890000000000002        -0.42109733962456852     
  0.13919999999999999         -4.3184760506509328     
  0.13950000000000001         -8.4463428989399407     
  0.13979999999999998         -12.520193912215602     
  0.14010000000000000         -16.234468941619014     
  0.14040000000000002         -19.292944192904450     
  0.14069999999999999         -21.432118757074392     
  0.14100000000000001         -22.445366372758386     
  0.14130000000000004         -22.205772793756090     
  0.14160000000000000         -20.676714644656286     
  0.14189999999999997         -17.916809009806258     
  0.14219999999999999         -14.077826573030395     
  0.14250000000000002         -9.3917941966101495     
  0.14279999999999998         -4.1500891227362189     
  0.14310000000000000          1.3170631958580081     
  0.14339999999999997          6.6697402743944991     
  0.14369999999999999          11.584948867617841     
  0.14400000000000002          15.778097193424063     
  0.14429999999999998          19.023964354646392     
  0.14460000000000001          21.169044904840781     
  0.14490000000000003          22.137396697374349     
  0.14520000000000000          21.929629308629011     
  0.14550000000000002          20.617483172127834     
  0.14579999999999999          18.330607838714304     
  0.14610000000000001          15.243812424014333     
  0.14640000000000003          11.560530902333307     
  0.14670000000000000          7.4967982144674465     
  0.14699999999999996          3.2680106661493369     
  0.14729999999999999        -0.92368704455693651     
  0.14760000000000001         -4.8980528620124639     
  0.14789999999999998         -8.5018693235029676     
  0.14820000000000000         -11.614879794873447     