  -1.4999999999999999E-002     0.0000000000000000     
  -1.4700000000000000E-002     0.0000000000000000     
  -1.4400000000000000E-002     0.0000000000000000     
  -1.4100000000000000E-002     0.0000000000000000     
  -1.3800000000000000E-002     0.0000000000000000     
  -1.3500000000000000E-002     0.0000000000000000     
  -1.3200000000000000E-002     0.0000000000000000     
  -1.2899999999999998E-002     0.0000000000000000     
  -1.2600000000000000E-002     0.0000000000000000     
  -1.2299999999999998E-002     0.0000000000000000     
  -1.2000000000000000E-002     0.0000000000000000     
  -1.1699999999999999E-002     0.0000000000000000     
  -1.1399999999999999E-002     0.0000000000000000     
  -1.1099999999999999E-002     0.0000000000000000     
  -1.0799999999999999E-002     0.0000000000000000     
  -1.0499999999999999E-002     0.0000000000000000     
  -1.0199999999999999E-002     0.0000000000000000     
  -9.8999999999999991E-003     0.0000000000000000     
  -9.5999999999999992E-003     0.0000000000000000     
  -9.2999999999999992E-003     0.0000000000000000     
  -8.9999999999999993E-003     0.0000000000000000     
  -8.6999999999999994E-003     0.0000000000000000     
  -8.3999999999999995E-003     0.0000000000000000     
  -8.0999999999999996E-003     0.0000000000000000     
  -7.7999999999999988E-003     0.0000000000000000     
  -7.4999999999999997E-003     0.0000000000000000     
  -7.1999999999999998E-003     0.0000000000000000     
  -6.8999999999999981E-003     0.0000000000000000     
  -6.5999999999999982E-003     0.0000000000000000     
  -6.3000000000000000E-003     0.0000000000000000     
  -6.0000000000000001E-003     0.0000000000000000     
  -5.6999999999999985E-003     0.0000000000000000     
  -5.3999999999999986E-003     0.0000000000000000     
  -5.1000000000000004E-003     0.0000000000000000     
  -4.7999999999999987E-003     0.0000000000000000     
  -4.5000000000000005E-003     0.0000000000000000     
  -4.1999999999999989E-003     0.0000000000000000     
  -3.8999999999999990E-003     0.0000000000000000     
  -3.5999999999999990E-003     0.0000000000000000     
  -3.2999999999999991E-003     0.0000000000000000     
  -2.9999999999999992E-003     0.0000000000000000     
  -2.6999999999999993E-003     0.0000000000000000     
  -2.3999999999999994E-003     0.0000000000000000     
  -2.0999999999999977E-003     0.0000000000000000     
  -1.7999999999999995E-003     0.0000000000000000     
  -1.4999999999999979E-003     0.0000000000000000     
  -1.1999999999999997E-003     0.0000000000000000     
  -8.9999999999999976E-004     0.0000000000000000     
  -5.9999999999999810E-004     0.0000000000000000     
  -2.9999999999999992E-004     0.0000000000000000     
   0.0000000000000000          0.0000000000000000     
   3.0000000000000165E-004     0.0000000000000000     
   5.9999999999999984E-004     0.0000000000000000     
   9.0000000000000149E-004     0.0000000000000000     
   1.2000000000000031E-003     0.0000000000000000     
   1.5000000000000013E-003     0.0000000000000000     
   1.8000000000000030E-003     0.0000000000000000     
   2.1000000000000012E-003     0.0000000000000000     
   2.3999999999999994E-003     0.0000000000000000     
   2.7000000000000010E-003     0.0000000000000000     
   2.9999999999999992E-003     0.0000000000000000     
   3.3000000000000008E-003     0.0000000000000000     
   3.6000000000000025E-003     0.0000000000000000     
   3.9000000000000007E-003     0.0000000000000000     
   4.2000000000000023E-003     0.0000000000000000     
   4.5000000000000005E-003     0.0000000000000000     
   4.7999999999999987E-003     0.0000000000000000     
   5.1000000000000004E-003     0.0000000000000000     
   5.4000000000000020E-003     0.0000000000000000     
   5.7000000000000037E-003     0.0000000000000000     
   5.9999999999999984E-003     0.0000000000000000     
   6.3000000000000000E-003     0.0000000000000000     
   6.6000000000000017E-003     0.0000000000000000     
   6.9000000000000034E-003     0.0000000000000000     
   7.2000000000000015E-003     0.0000000000000000     
   7.5000000000000032E-003     0.0000000000000000     
   7.8000000000000014E-003     0.0000000000000000     
   8.0999999999999996E-003     0.0000000000000000     
   8.4000000000000012E-003     0.0000000000000000     
   8.7000000000000029E-003     0.0000000000000000     
   9.0000000000000011E-003     0.0000000000000000     
   9.2999999999999992E-003     0.0000000000000000     
   9.6000000000000009E-003     0.0000000000000000     
   9.8999999999999991E-003     0.0000000000000000     
   1.0200000000000001E-002     0.0000000000000000     
   1.0500000000000002E-002     0.0000000000000000     
   1.0800000000000004E-002     0.0000000000000000     
   1.1099999999999999E-002     0.0000000000000000     
   1.1400000000000000E-002     0.0000000000000000     
   1.1700000000000002E-002     0.0000000000000000     
   1.2000000000000004E-002     0.0000000000000000     
   1.2300000000000002E-002     0.0000000000000000     
   1.2600000000000000E-002     0.0000000000000000     
   1.2900000000000002E-002     0.0000000000000000     
   1.3200000000000000E-002     0.0000000000000000     
   1.3500000000000002E-002     0.0000000000000000     
   1.3800000000000003E-002     0.0000000000000000     
   1.4100000000000001E-002     0.0000000000000000     
   1.4400000000000000E-002     0.0000000000000000     
   1.4700000000000001E-002     0.0000000000000000     
   1.4999999999999999E-002     0.0000000000000000     
   1.5300000000000001E-002     0.0000000000000000     
   1.5600000000000003E-002     0.0000000000000000     
   1.5899999999999997E-002     0.0000000000000000     
   1.6199999999999999E-002     0.0000000000000000     
   1.6500000000000001E-002     0.0000000000000000     
   1.6800000000000002E-002     0.0000000000000000     
   1.7100000000000004E-002     0.0000000000000000     
   1.7400000000000006E-002     0.0000000000000000     
   1.7700000000000000E-002     0.0000000000000000     
   1.8000000000000002E-002     0.0000000000000000     
   1.8300000000000004E-002     0.0000000000000000     
   1.8600000000000005E-002     0.0000000000000000     
   1.8900000000000000E-002    -5.1170942932286055E-042
   1.9200000000000002E-002     1.0648026784743525E-041
   1.9500000000000003E-002    -1.1393756500290874E-041
   1.9799999999999998E-002    -1.7976657360481919E-041
   2.0100000000000000E-002     1.2335479556542499E-038
   2.0400000000000001E-002     1.1991289516933939E-038
   2.0700000000000003E-002    -1.4175976149065563E-037
   2.0999999999999998E-002     3.6680405023620166E-037
   2.1299999999999999E-002    -6.1513099272491668E-037
   2.1600000000000001E-002     1.9923936683202973E-036
   2.1900000000000003E-002    -3.7457068125624312E-036
   2.2200000000000004E-002     5.8803147106280493E-036
   2.2500000000000006E-002    -6.3812430731791180E-036
   2.2800000000000001E-002    -5.0493948448785903E-036
   2.3100000000000002E-002    -4.1810576413765591E-035
   2.3400000000000004E-002     1.5305552610564728E-035
   2.3699999999999999E-002     6.3507543422355841E-034
   2.4000000000000000E-002    -2.0602609958542158E-033
   2.4300000000000002E-002     7.7709293001958853E-033
   2.4599999999999997E-002    -2.2477223150106521E-032
   2.4900000000000005E-002     5.4378692914876977E-032
   2.5200000000000000E-002    -1.1837045969831499E-031
   2.5499999999999995E-002     3.0254445610614013E-031
   2.5800000000000003E-002    -1.1656005974498460E-030
   2.6099999999999998E-002     5.2865545363934031E-030
   2.6400000000000007E-002    -2.1735146739172185E-029
   2.6700000000000002E-002     7.4004928615672286E-029
   2.6999999999999996E-002    -1.9656435509035232E-028
   2.7300000000000005E-002     3.3601577185287242E-028
   2.7600000000000000E-002     1.4779459849618225E-028
   2.7900000000000008E-002    -4.2389174873394056E-027
   2.8200000000000003E-002     2.2233794637412198E-026
   2.8499999999999998E-002    -8.3264408487029932E-026
   2.8800000000000006E-002     2.5505466230921860E-025
   2.9100000000000001E-002    -6.5022600762160027E-025
   2.9400000000000003E-002     1.2764445190035636E-024
   2.9700000000000004E-002    -1.1478385218238610E-024
   3.0000000000000006E-002    -5.0260151868884687E-024
   3.0300000000000001E-002     3.5427474014192979E-023
   3.0600000000000002E-002    -1.3292337068133392E-022
   3.0900000000000004E-002     3.4478360129842285E-022
   3.1199999999999999E-002    -5.3287598119096486E-022
   3.1500000000000007E-002    -2.7349301334562595E-022
   3.1800000000000002E-002     5.0522898276678017E-021
   3.2099999999999997E-002    -1.8539426657671072E-020
   3.2400000000000005E-002     3.7648577070073408E-020
   3.2700000000000000E-002    -1.7918385615753877E-020
   3.3000000000000002E-002    -1.7942635923204378E-019
   3.3300000000000003E-002     7.4208442224679486E-019
   3.3599999999999998E-002    -1.4039815093357657E-018
   3.3900000000000000E-002     1.1818372858750993E-019
   3.4200000000000001E-002     7.8921595645295115E-018
   3.4500000000000003E-002    -2.4748574461248834E-017
   3.4799999999999998E-002     2.8418540868199622E-017
   3.5099999999999999E-002     5.5844223377258676E-017
   3.5400000000000001E-002    -3.0761271026297387E-016
   3.5699999999999996E-002     5.2024394622707248E-016
   3.6000000000000004E-002     2.7440658661088703E-016
   3.6299999999999999E-002    -3.3663368254945523E-015
   3.6600000000000008E-002     6.6977203933522465E-015
   3.6900000000000002E-002     1.3346399195739764E-015
   3.7199999999999997E-002    -3.6244347292190645E-014
   3.7500000000000006E-002     7.2065477718496497E-014
   3.7800000000000000E-002     2.5621124289404704E-014
   3.8100000000000009E-002    -3.9887635171578618E-013
   3.8400000000000004E-002     6.4592976137353563E-013
   3.8699999999999998E-002     7.0357191574098401E-013
   3.9000000000000007E-002    -4.2687160711559234E-012
   3.9300000000000002E-002     3.7687033459025348E-012
   3.9600000000000003E-002     1.3898086118193082E-011
   3.9900000000000005E-002    -3.7370830441111669E-011
   4.0200000000000000E-002    -1.3051881106461780E-011
   4.0500000000000001E-002     1.8362005602585564E-010
   4.0800000000000003E-002    -1.4580739197282361E-010
   4.1100000000000005E-002    -6.5959401289759990E-010
   4.1399999999999999E-002     1.2040036650302860E-009
   4.1700000000000008E-002     1.9173039416550984E-009
   4.2000000000000003E-002    -6.2525905796172870E-009
   4.2299999999999997E-002    -4.8897352084871926E-009
   4.2600000000000006E-002     2.7402227398321709E-008
   4.2900000000000001E-002     1.3584048996815548E-008
   4.3200000000000002E-002    -1.1207939118889540E-007
   4.3500000000000004E-002    -6.7078516291586095E-008
   4.3799999999999999E-002     4.0622635494759716E-007
   4.4100000000000000E-002     3.7068325602636537E-007
   4.4400000000000002E-002    -1.4104726200385191E-006
   4.4700000000000004E-002    -2.0302945456374845E-006
   4.4999999999999998E-002     7.1318578240564697E-006
   4.5300000000000000E-002     3.1880868855606853E-005
   4.5600000000000002E-002     6.5002913798728620E-005
   4.5899999999999996E-002     9.2944134346636351E-005
   4.6200000000000005E-002     1.1728841124417799E-004
   4.6500000000000000E-002     1.6224645509445185E-004
   4.6799999999999994E-002     2.5450359798249403E-004
   4.7100000000000003E-002     4.0402797382835454E-004
   4.7399999999999998E-002     6.1567589833711530E-004
   4.7700000000000006E-002     9.1390730065673425E-004
   4.8000000000000001E-002     1.3435001033897111E-003
   4.8300000000000010E-002     1.9508181319444996E-003
   4.8600000000000004E-002     2.7813661741693525E-003
   4.8899999999999999E-002     3.8970470958927719E-003
   4.9200000000000008E-002     5.3811044725794125E-003
   4.9500000000000002E-002     7.3204997065502908E-003
   4.9800000000000011E-002     9.7905987039870277E-003
   5.0100000000000006E-002     1.2852071010870219E-002
   5.0400000000000000E-002     1.6544451598228965E-002
   5.0700000000000009E-002     2.0866274387661757E-002
   5.1000000000000004E-002     2.5747597650418390E-002
   5.1299999999999998E-002     3.1015670586841383E-002
   5.1600000000000007E-002     3.6363282655841767E-002
   5.1900000000000002E-002     4.1329090582536553E-002
   5.2200000000000010E-002     4.5286300215283001E-002
   5.2500000000000005E-002     4.7414272309708148E-002
   5.2800000000000000E-002     4.6688844447419900E-002
   5.3099999999999994E-002     4.1929502932086644E-002
   5.3400000000000003E-002     3.1880429883459613E-002
   5.3699999999999998E-002     1.5285178287237137E-002
   5.4000000000000006E-002    -9.0068851025090144E-003
   5.4300000000000001E-002    -4.1833255425159352E-002
   5.4599999999999996E-002    -8.3482203052031329E-002
   5.4900000000000004E-002   -0.13351279691901868     
   5.5199999999999999E-002   -0.19061494654121133     
   5.5499999999999994E-002   -0.25242129245617628     
   5.5800000000000002E-002   -0.31537181971293049     
   5.6099999999999997E-002   -0.37472141120420838     
   5.6400000000000006E-002   -0.42470919345233754     
   5.6700000000000000E-002   -0.45881486807855615     
   5.6999999999999995E-002   -0.47016976218926887     
   5.7300000000000004E-002   -0.45211835092486219     
   5.7599999999999998E-002   -0.39889718781368394     
   5.7900000000000007E-002   -0.30630535509954970     
   5.8200000000000002E-002   -0.17246538387003363     
   5.8499999999999996E-002     1.6080717348567961E-003
   5.8800000000000005E-002    0.21152550550727606     
   5.9100000000000000E-002    0.44937855633761692     
   5.9400000000000008E-002    0.70379801652753549     
   5.9700000000000003E-002    0.96043848297240753     
   6.0000000000000012E-002     1.2027758899523160     
   6.0300000000000006E-002     1.4132048121716774     
   6.0600000000000001E-002     1.5743571917275505     
   6.0900000000000010E-002     1.6705260970148896     
   6.1200000000000004E-002     1.6892134599208086     
   6.1500000000000013E-002     1.6223370709433520     
   6.1800000000000008E-002     1.4672983637128199     
   6.2100000000000002E-002     1.2275625861150572     
   6.2399999999999997E-002    0.91279298937944153     
   6.2700000000000006E-002    0.53842005969536788     
   6.3000000000000000E-002    0.12468451267428113     
   6.3300000000000009E-002   -0.30483752451742202     
   6.3600000000000004E-002   -0.72485989190018751     
   6.3899999999999998E-002    -1.1105155467595589     
   6.4199999999999993E-002    -1.4391864766269793     
   6.4500000000000002E-002    -1.6924830174987262     
   6.4800000000000010E-002    -1.8575627966114296     
   6.5100000000000005E-002    -1.9281807251944203     
   6.5400000000000000E-002    -1.9050417598245928     
   6.5700000000000008E-002    -1.7956730265120828     
   6.5999999999999989E-002    -1.6134609085423561     
   6.6299999999999998E-002    -1.3764751629307646     
   6.6600000000000006E-002    -1.1056808866508643     
   6.6900000000000001E-002   -0.82321614966569001     
   6.7199999999999996E-002   -0.55029200915211618     
   6.7500000000000004E-002   -0.30568168424407360     
   6.7800000000000013E-002   -0.10426538765449897     
   6.8099999999999994E-002     4.3703600752223966E-002
   6.8400000000000002E-002    0.13325994825869836     
   6.8700000000000011E-002    0.16447269415763163     
   6.8999999999999992E-002    0.14197775975530999     
   6.9300000000000000E-002     7.4006371547222755E-002
   6.9600000000000009E-002    -2.8602548215990370E-002
   6.9900000000000004E-002   -0.15346932849485684     
   7.0199999999999999E-002   -0.28794286180758977     
   7.0500000000000007E-002   -0.41985631624618713     
   7.0800000000000016E-002   -0.53838558679471338     
   7.1099999999999997E-002   -0.63423114263916636     
   7.1400000000000005E-002   -0.70012988919369123     
   7.1700000000000000E-002   -0.73066999071115446     
   7.1999999999999995E-002   -0.72228288655192840     
   7.2300000000000003E-002   -0.67295977325605438     
   7.2600000000000012E-002   -0.58229133430479252     
   7.2900000000000006E-002   -0.45108449093070607     
   7.3200000000000001E-002   -0.28159641758204168     
   7.3499999999999996E-002    -7.7138069633223172E-002
   7.3800000000000004E-002    0.15739177451626790     
   7.4099999999999999E-002    0.41614498746401879     
   7.4400000000000008E-002    0.69168828043806518     
   7.4700000000000003E-002    0.97568309686289867     
   7.5000000000000011E-002     1.2585438055633418     
   7.5299999999999992E-002     1.5303841235636935     
   7.5600000000000001E-002     1.7806453530096391     
   7.5900000000000009E-002     1.9992781295231983     
   7.6200000000000004E-002     2.1764111742998562     
   7.6499999999999999E-002     2.3036763346397904     
   7.6800000000000007E-002     2.3738249426340698     
   7.7099999999999988E-002     2.3817871139647044     
   7.7399999999999997E-002     2.3243850416060923     
   7.7700000000000005E-002     2.2011627359856440     
   7.8000000000000014E-002     2.0138403792814348     
   7.8299999999999995E-002     1.7669040401781821     
   7.8600000000000003E-002     1.4672361170821751     
   7.8900000000000012E-002     1.1240217911113883     
   7.9199999999999993E-002    0.74841889934414874     
   7.9500000000000001E-002    0.35305617357295155     
   7.9800000000000010E-002    -4.8293029788833958E-002
   8.0100000000000018E-002   -0.44167244103370024     
   8.0399999999999999E-002   -0.81327734878101876     
   8.0700000000000008E-002    -1.1504624056320356     
   8.1000000000000003E-002    -1.4421548985754729     
   8.1299999999999997E-002    -1.6797631283573082     
   8.1600000000000006E-002    -1.8573478103848509     
   8.1900000000000014E-002    -1.9721230693785778     
   8.2199999999999995E-002    -2.0243223128840007     
   8.2500000000000004E-002    -2.0172589984267755     
   8.2799999999999999E-002    -1.9567259880385435     
   8.3100000000000007E-002    -1.8506170623671598     
   8.3400000000000002E-002    -1.7082483962136359     
   8.3700000000000011E-002    -1.5395917472283149     
   8.4000000000000005E-002    -1.3546039938117329     
   8.4300000000000000E-002    -1.1625265187644689     
   8.4599999999999995E-002   -0.97141226617249887     
   8.4900000000000003E-002   -0.78767888427807042     
   8.5199999999999998E-002   -0.61589754736108193     
   8.5500000000000007E-002   -0.45876903741105890     
   8.5800000000000001E-002   -0.31721111655572298     
   8.6100000000000010E-002   -0.19045522857127822     
   8.6399999999999991E-002    -7.6521547010557051E-002
   8.6699999999999999E-002     2.7545883727778518E-002
   8.7000000000000008E-002    0.12516260951531999     
   8.7300000000000003E-002    0.21992826810209018     
   8.7599999999999997E-002    0.31512589344644110     
   8.7900000000000006E-002    0.41335817321354890     
   8.8200000000000014E-002    0.51623625964338793     
   8.8499999999999995E-002    0.62408512844694197     
   8.8800000000000004E-002    0.73573905147988650     
   8.9100000000000013E-002    0.84838006170574165     
   8.9399999999999993E-002    0.95764731098859091     
   8.9700000000000002E-002     1.0576606052212640     
   9.0000000000000011E-002     1.1414883119644907     
   9.0299999999999991E-002     1.2014136898503203     
   9.0600000000000000E-002     1.2296890265248894     
   9.0900000000000009E-002     1.2190374359898679     
   9.1200000000000017E-002     1.1635927738234504     
   9.1499999999999998E-002     1.0595126939477324     
   9.1800000000000007E-002    0.90566401542076203     
   9.2100000000000001E-002    0.70410376303734634     
   9.2399999999999996E-002    0.46025756395393747     
   9.2700000000000005E-002    0.18300142446685175     
   9.3000000000000013E-002   -0.11596452136608607     
   9.3300000000000008E-002   -0.42233181817878512     
   9.3600000000000003E-002   -0.72059587341405462     
   9.3899999999999997E-002   -0.99451747035840843     
   9.4200000000000006E-002    -1.2290264537815063     
   9.4500000000000001E-002    -1.4104177638238420     
   9.4800000000000009E-002    -1.5283388230166275     
   9.5100000000000004E-002    -1.5755744891172758     
   9.5399999999999999E-002    -1.5495277740231521     
   9.5699999999999993E-002    -1.4512532525970057     
   9.6000000000000002E-002    -1.2864840016648675     
   9.6300000000000011E-002    -1.0639803965064678     
   9.6600000000000005E-002   -0.79598856574500321     
   9.6900000000000000E-002   -0.49622403282647842     
   9.7200000000000009E-002   -0.18008718232891824     
   9.7499999999999989E-002    0.13740718786327080     
   9.7799999999999998E-002    0.44144834207319650     
   9.8100000000000007E-002    0.71926228906878831     
   9.8400000000000015E-002    0.95965860578056772     
   9.8699999999999996E-002     1.1543956577065406     
   9.9000000000000005E-002     1.2974877823033171     
   9.9300000000000013E-002     1.3861583372742015     
   9.9599999999999994E-002     1.4200237845767223     
   9.9900000000000003E-002     1.4014423624576293     
  0.10020000000000001          1.3346161132926264     
  0.10049999999999999          1.2256434675029007     
  0.10080000000000000          1.0817671572131453     
  0.10110000000000001         0.91126751357454960     
  0.10140000000000000         0.72269851438889154     
  0.10170000000000000         0.52467683438444346     
  0.10200000000000001         0.32550137894066411     
  0.10230000000000002         0.13311707627759725     
  0.10260000000000000         -4.5224903632059277E-002
  0.10290000000000001        -0.20305595416331224     
  0.10320000000000000        -0.33471755205123294     
  0.10350000000000001        -0.43560011760904022     
  0.10380000000000000        -0.50193970300187885     
  0.10410000000000001        -0.53127850137377819     
  0.10440000000000001        -0.52250893189277181     
  0.10470000000000000        -0.47623060090623037     
  0.10500000000000000        -0.39472851751593907     
  0.10530000000000000        -0.28242756237535049     
  0.10560000000000000        -0.14575455482393584     
  0.10590000000000001          6.7367788902430656E-003
  0.10620000000000000         0.16477092683278755     
  0.10650000000000001         0.31687789751130613     
  0.10679999999999999         0.45086004679306896     
  0.10710000000000000         0.55484338029234803     
  0.10740000000000001         0.61804663152240003     
  0.10770000000000000         0.63201005250162501     
  0.10800000000000000         0.59100408827844120     
  0.10830000000000001         0.49308064692782649     
  0.10859999999999999         0.34009005638861989     
  0.10890000000000000         0.13811596787085834     
  0.10920000000000001        -0.10341382164287588     
  0.10950000000000001        -0.37182122992290823     
  0.10979999999999999        -0.65268902759881853     
  0.11009999999999999        -0.93030410858414025     
  0.11040000000000001         -1.1895897651343457     
  0.11070000000000001         -1.4162750034999751     
  0.11100000000000000         -1.5987532252243966     
  0.11130000000000000         -1.7278197945490590     
  0.11160000000000002         -1.7980052021679964     
  0.11190000000000001         -1.8065137223560184     
  0.11220000000000001         -1.7542705796879223     
  0.11250000000000000         -1.6443942222078516     
  0.11280000000000000         -1.4828360981604720     
  0.11309999999999999         -1.2766895936977400     
  0.11340000000000001         -1.0349586881447479     
  0.11369999999999998        -0.76699794295197432     
  0.11400000000000000        -0.48330208785809359     
  0.11430000000000000        -0.19418597277604477     
  0.11460000000000002          8.9223297203939886E-002
  0.11489999999999999         0.35636263296257720     
  0.11520000000000001         0.59645009951904226     
  0.11550000000000001         0.79985363844005875     
  0.11580000000000000         0.95753502670342161     
  0.11609999999999999          1.0627740873800211     
  0.11640000000000002          1.1107005910857084     
  0.11670000000000001          1.0999320939049775     
  0.11700000000000001          1.0319860320208631     
  0.11730000000000000         0.91266192872357688     
  0.11760000000000000         0.75078759611099721     
  0.11789999999999999         0.55908738847529005     
  0.11820000000000001         0.35217882177606458     
  0.11850000000000001         0.14682691889526567     
  0.11880000000000000         -4.0724428550038438E-002
  0.11910000000000000        -0.19451478212536391     
  0.11940000000000002        -0.30161326086947671     
  0.11970000000000001        -0.35183829329511440     
  0.12000000000000001        -0.33976268346473165     
  0.12030000000000000        -0.26377240626449638     
  0.12060000000000000        -0.12734613127047906     
  0.12089999999999999          6.2594822615388845E-002
  0.12119999999999999         0.29547034431095737     
  0.12150000000000001         0.55896800989172446     
  0.12180000000000001         0.83914904943618640     
  0.12210000000000000          1.1221698513892520     
  0.12239999999999999          1.3945560860612718     
  0.12270000000000002          1.6444460900289464     
  0.12300000000000001          1.8612586692784316     
  0.12330000000000001          2.0363611653738789     
  0.12360000000000000          2.1624162506592106     
  0.12390000000000000          2.2337040450107017     
  0.12419999999999999          2.2454326696702402     
  0.12450000000000001          2.1937957336181477     
  0.12480000000000001          2.0757394751812086     
  0.12509999999999999          1.8892342994946358     
  0.12540000000000001          1.6335218018498090     
  0.12570000000000003          1.3095030794633828     
  0.12600000000000000         0.92035879184931302     
  0.12630000000000002         0.47200409537436128     
  0.12659999999999999         -2.6261203973485359E-002
  0.12690000000000001        -0.56194321058516605     
  0.12719999999999998         -1.1187745240285683     
  0.12750000000000000         -1.6777554689385386     
  0.12780000000000002         -2.2170786550582369     
  0.12809999999999999         -2.7140075905361165     
  0.12840000000000001         -3.1451456199180461     
  0.12869999999999998         -3.4889843273457868     
  0.12900000000000000         -3.7261284427766039     
  0.12930000000000003         -3.8419702809754321     
  0.12959999999999999         -3.8264106204368273     
  0.12990000000000002         -3.6761110701787150     
  0.13019999999999998         -3.3935665856673909     
  0.13050000000000000         -2.9884262898516294     
  0.13080000000000003         -2.4754045387245678     
  0.13109999999999999         -1.8750932224396593     
  0.13140000000000002         -1.2113816503488288     
  0.13169999999999998        -0.51124327130316716     
  0.13200000000000001         0.19793185716667078     
  0.13229999999999997         0.88861353611309213     
  0.13260000000000000          1.5355468920357087     
  0.13290000000000002          2.1158074300826049     
  0.13319999999999999          2.6106771688393113     
  0.13350000000000001          3.0054643379692139     
  0.13380000000000003          3.2905137467229841     
  0.13410000000000000          3.4605175689183634     
  0.13440000000000002          3.5151202098089613     
  0.13469999999999999          3.4580389989444957     
  0.13500000000000001          3.2971578404731208     
  0.13529999999999998          3.0433164695070651     
  0.13560000000000000          2.7102502228668639     
  0.13590000000000002          2.3133688889364885     
  0.13619999999999999          1.8694309216492364     
  0.13650000000000001          1.3951737669599746     
  0.13680000000000003         0.90706738935260822     
  0.13710000000000000         0.42023282427347841     
  0.13740000000000002         -5.1861338628909875E-002
  0.13769999999999999        -0.49819637988573906     
  0.13800000000000001        -0.91001767353592544     
  0.13829999999999998         -1.2810343938817821     
  0.13860000000000000         -1.6071764144088032     
  0.13890000000000002         -1.8860167318802643     
  0.13919999999999999         -2.1164665650732637     
  0.13950000000000001         -2.2981551743059803     
  0.13979999999999998         -2.4308614996255411     
  0.14010000000000000         -2.5143026243066937     
  0.14040000000000002         -2.5480752060060587     
  0.14069999999999999         -2.5319906943854007     
  0.14100000000000001         -2.4662423054615505     
  0.14130000000000004         -2.3524144339713815     
  0.14160000000000000         -2.1935508775244843     
  0.14189999999999997         -1.9955318304602416     
  0.14219999999999999         -1.7666691537536743     
  0.14250000000000002         -1.5184195644484220     
  0.14279999999999998         -1.2640137063471455     
  0.14310000000000000         -1.0186089707564907     
  0.14339999999999997        -0.79666687544124803     
  0.14369999999999999        -0.61162664936715605     
  0.14400000000000002        -0.47259649891020561     
  0.14429999999999998        -0.38422482022385696     
  0.14460000000000001        -0.34402242066071825     
  0.14490000000000003        -0.34306446967531751     
  0.14520000000000000        -0.36465071837557594     
  0.14550000000000002        -0.38687358192100529     
  0.14579999999999999        -0.38289808256831043     
  0.14610000000000001        -0.32524555606707428     
  0.14640000000000003        -0.18728670051627086     
  0.14670000000000000          5.1818483390750680E-002
  0.14699999999999996         0.40567407030321395     
  0.14729999999999999         0.87639998415255749     
  0.14760000000000001          1.4546430777527193     
  0.14789999999999998          2.1174092528268815     
  0.14820000000000000          2.8304580968138806     