  -1.4999999999999999E-002     0.0000000000000000     
  -1.4700000000000000E-002     0.0000000000000000     
  -1.4400000000000000E-002     0.0000000000000000     
  -1.4100000000000000E-002     0.0000000000000000     
  -1.3800000000000000E-002     0.0000000000000000     
  -1.3500000000000000E-002     0.0000000000000000     
  -1.3200000000000000E-002     0.0000000000000000     
  -1.2899999999999998E-002     0.0000000000000000     
  -1.2600000000000000E-002     0.0000000000000000     
  -1.2299999999999998E-002     0.0000000000000000     
  -1.2000000000000000E-002     0.0000000000000000     
  -1.1699999999999999E-002     0.0000000000000000     
  -1.1399999999999999E-002     0.0000000000000000     
  -1.1099999999999999E-002     0.0000000000000000     
  -1.0799999999999999E-002     0.0000000000000000     
  -1.0499999999999999E-002     0.0000000000000000     
  -1.0199999999999999E-002     0.0000000000000000     
  -9.8999999999999991E-003     0.0000000000000000     
  -9.5999999999999992E-003     0.0000000000000000     
  -9.2999999999999992E-003     0.0000000000000000     
  -8.9999999999999993E-003     0.0000000000000000     
  -8.6999999999999994E-003     0.0000000000000000     
  -8.3999999999999995E-003     0.0000000000000000     
  -8.0999999999999996E-003     0.0000000000000000     
  -7.7999999999999988E-003     0.0000000000000000     
  -7.4999999999999997E-003     0.0000000000000000     
  -7.1999999999999998E-003     0.0000000000000000     
  -6.8999999999999981E-003     0.0000000000000000     
  -6.5999999999999982E-003     0.0000000000000000     
  -6.3000000000000000E-003     0.0000000000000000     
  -6.0000000000000001E-003     0.0000000000000000     
  -5.6999999999999985E-003     0.0000000000000000     
  -5.3999999999999986E-003     0.0000000000000000     
  -5.1000000000000004E-003     0.0000000000000000     
  -4.7999999999999987E-003     0.0000000000000000     
  -4.5000000000000005E-003     0.0000000000000000     
  -4.1999999999999989E-003     0.0000000000000000     
  -3.8999999999999990E-003     0.0000000000000000     
  -3.5999999999999990E-003     0.0000000000000000     
  -3.2999999999999991E-003     0.0000000000000000     
  -2.9999999999999992E-003     0.0000000000000000     
  -2.6999999999999993E-003     0.0000000000000000     
  -2.3999999999999994E-003     0.0000000000000000     
  -2.0999999999999977E-003     0.0000000000000000     
  -1.7999999999999995E-003     0.0000000000000000     
  -1.4999999999999979E-003     0.0000000000000000     
  -1.1999999999999997E-003     0.0000000000000000     
  -8.9999999999999976E-004     0.0000000000000000     
  -5.9999999999999810E-004     0.0000000000000000     
  -2.9999999999999992E-004     0.0000000000000000     
   0.0000000000000000          0.0000000000000000     
   3.0000000000000165E-004     0.0000000000000000     
   5.9999999999999984E-004     0.0000000000000000     
   9.0000000000000149E-004     0.0000000000000000     
   1.2000000000000031E-003     0.0000000000000000     
   1.5000000000000013E-003     0.0000000000000000     
   1.8000000000000030E-003     0.0000000000000000     
   2.1000000000000012E-003     0.0000000000000000     
   2.3999999999999994E-003     0.0000000000000000     
   2.7000000000000010E-003     0.0000000000000000     
   2.9999999999999992E-003     0.0000000000000000     
   3.3000000000000008E-003     0.0000000000000000     
   3.6000000000000025E-003     0.0000000000000000     
   3.9000000000000007E-003     0.0000000000000000     
   4.2000000000000023E-003     0.0000000000000000     
   4.5000000000000005E-003     0.0000000000000000     
   4.7999999999999987E-003     0.0000000000000000     
   5.1000000000000004E-003     0.0000000000000000     
   5.4000000000000020E-003     0.0000000000000000     
   5.7000000000000037E-003     0.0000000000000000     
   5.9999999999999984E-003     0.0000000000000000     
   6.3000000000000000E-003     0.0000000000000000     
   6.6000000000000017E-003     0.0000000000000000     
   6.9000000000000034E-003     0.0000000000000000     
   7.2000000000000015E-003     0.0000000000000000     
   7.5000000000000032E-003     0.0000000000000000     
   7.8000000000000014E-003     0.0000000000000000     
   8.0999999999999996E-003     0.0000000000000000     
   8.4000000000000012E-003     0.0000000000000000     
   8.7000000000000029E-003     0.0000000000000000     
   9.0000000000000011E-003     0.0000000000000000     
   9.2999999999999992E-003     0.0000000000000000     
   9.6000000000000009E-003     0.0000000000000000     
   9.8999999999999991E-003     0.0000000000000000     
   1.0200000000000001E-002     0.0000000000000000     
   1.0500000000000002E-002     0.0000000000000000     
   1.0800000000000004E-002     0.0000000000000000     
   1.1099999999999999E-002     0.0000000000000000     
   1.1400000000000000E-002     0.0000000000000000     
   1.1700000000000002E-002     0.0000000000000000     
   1.2000000000000004E-002     0.0000000000000000     
   1.2300000000000002E-002     0.0000000000000000     
   1.2600000000000000E-002     0.0000000000000000     
   1.2900000000000002E-002     0.0000000000000000     
   1.3200000000000000E-002     0.0000000000000000     
   1.3500000000000002E-002     0.0000000000000000     
   1.3800000000000003E-002     0.0000000000000000     
   1.4100000000000001E-002     0.0000000000000000     
   1.4400000000000000E-002     0.0000000000000000     
   1.4700000000000001E-002     0.0000000000000000     
   1.4999999999999999E-002     0.0000000000000000     
   1.5300000000000001E-002     0.0000000000000000     
   1.5600000000000003E-002     0.0000000000000000     
   1.5899999999999997E-002     0.0000000000000000     
   1.6199999999999999E-002     0.0000000000000000     
   1.6500000000000001E-002     0.0000000000000000     
   1.6800000000000002E-002     0.0000000000000000     
   1.7100000000000004E-002     0.0000000000000000     
   1.7400000000000006E-002     0.0000000000000000     
   1.7700000000000000E-002     0.0000000000000000     
   1.8000000000000002E-002     0.0000000000000000     
   1.8300000000000004E-002     0.0000000000000000     
   1.8600000000000005E-002     0.0000000000000000     
   1.8900000000000000E-002     0.0000000000000000     
   1.9200000000000002E-002     2.8534040899697866E-044
   1.9500000000000003E-002    -1.0401598604497415E-043
   1.9799999999999998E-002     5.5153617255123802E-043
   2.0100000000000000E-002    -1.0483130695633649E-042
   2.0400000000000001E-002     5.9746173158040540E-043
   2.0700000000000003E-002     6.7694669957242141E-037
   2.0999999999999998E-002    -4.5089125745643199E-036
   2.1299999999999999E-002     7.7962605477548646E-036
   2.1600000000000001E-002     4.3588739640661314E-036
   2.1900000000000003E-002    -8.9919052177265138E-035
   2.2200000000000004E-002     1.4254091647129815E-034
   2.2500000000000006E-002    -9.7990487028619027E-035
   2.2800000000000001E-002     6.4276478640478791E-035
   2.3100000000000002E-002    -4.7899782790859505E-035
   2.3400000000000004E-002    -1.4819164820857596E-033
   2.3699999999999999E-002     8.8653852375836649E-033
   2.4000000000000000E-002    -3.2373731495253739E-032
   2.4300000000000002E-002     9.7177345570744288E-032
   2.4599999999999997E-002    -2.3841696046347062E-031
   2.4900000000000005E-002     4.4906564268820047E-031
   2.5200000000000000E-002    -5.3280170172481535E-031
   2.5499999999999995E-002    -1.1275110685033947E-031
   2.5800000000000003E-002     2.3542011791226448E-030
   2.6099999999999998E-002    -6.2255327489882384E-030
   2.6400000000000007E-002     1.3858403531915442E-029
   2.6700000000000002E-002    -7.8076953394408877E-029
   2.6999999999999996E-002     5.8431806581842698E-028
   2.7300000000000005E-002    -3.3786198976317761E-027
   2.7600000000000000E-002     1.5213730244711124E-026
   2.7900000000000008E-002    -5.5501675024118488E-026
   2.8200000000000003E-002     1.6479003671736390E-025
   2.8499999999999998E-002    -3.7479416200413587E-025
   2.8800000000000006E-002     4.6258890212152247E-025
   2.9100000000000001E-002     1.0724389591864945E-024
   2.9400000000000003E-002    -9.9977353663106670E-024
   2.9700000000000004E-002     4.1906456687740728E-023
   3.0000000000000006E-002    -1.2217857916173424E-022
   3.0300000000000001E-002     2.3681718272733438E-022
   3.0600000000000002E-002    -1.1042854720337794E-022
   3.0900000000000004E-002    -1.3553340252111793E-021
   3.1199999999999999E-002     6.6692370575138752E-021
   3.1500000000000007E-002    -1.7804678797213031E-020
   3.1800000000000002E-002     2.4254348665155606E-020
   3.2099999999999997E-002     2.7762568000553344E-020
   3.2400000000000005E-002    -2.6298544821968240E-019
   3.2700000000000000E-002     7.6293330464920862E-019
   3.3000000000000002E-002    -9.9225042440189753E-019
   3.3300000000000003E-002    -1.3402818557529095E-018
   3.3599999999999998E-002     1.0229538403089211E-017
   3.3900000000000000E-002    -2.4054072464442669E-017
   3.4200000000000001E-002     1.4043302185230974E-017
   3.4500000000000003E-002     9.3693434632125820E-017
   3.4799999999999998E-002    -3.4061723308958365E-016
   3.5099999999999999E-002     4.2106514424051794E-016
   3.5400000000000001E-002     6.9747932153833494E-016
   3.5699999999999996E-002    -3.9624218469798688E-015
   3.6000000000000004E-002     6.1382475458060592E-015
   3.6299999999999999E-002     5.4674644011421159E-015
   3.6600000000000008E-002    -4.2983721359790998E-014
   3.6900000000000002E-002     6.7677909338627429E-014
   3.7199999999999997E-002     6.4788090686882455E-014
   3.7500000000000006E-002    -4.5474025216393107E-013
   3.7800000000000000E-002     5.7862242452509241E-013
   3.8100000000000009E-002     1.0461919162281233E-012
   3.8400000000000004E-002    -4.5157905893019932E-012
   3.8699999999999998E-002     2.7853869812834319E-012
   3.9000000000000007E-002     1.5958349643271023E-011
   3.9300000000000002E-002    -3.5930420039444407E-011
   3.9600000000000003E-002    -2.0960024620815634E-011
   3.9900000000000005E-002     1.8232583979860536E-010
   4.0200000000000000E-002    -1.1968239030405176E-010
   4.0500000000000001E-002    -6.4514612079917318E-010
   4.0800000000000003E-002     1.0861780673780128E-009
   4.1100000000000005E-002     1.7770413211367565E-009
   4.1399999999999999E-002    -5.5415849066141057E-009
   4.1700000000000008E-002    -4.0388076432674212E-009
   4.2000000000000003E-002     2.3134550293511895E-008
   4.2299999999999997E-002     9.1867184185057271E-009
   4.2600000000000006E-002    -8.8608547518887097E-008
   4.2900000000000001E-002    -4.0241335899611492E-008
   4.3200000000000002E-002     3.0116859495395722E-007
   4.3500000000000004E-002     2.2022285507732659E-007
   4.3799999999999999E-002    -9.7545111124845787E-007
   4.4100000000000000E-002    -1.2388892326138073E-006
   4.4400000000000002E-002     4.1488743975494198E-006
   4.4700000000000004E-002     1.7255889909291443E-005
   4.4999999999999998E-002     3.3795649402124968E-005
   4.5300000000000000E-002     4.8378976383531145E-005
   4.5600000000000002E-002     6.3033665171470155E-005
   4.5899999999999996E-002     8.7434474407289132E-005
   4.6200000000000005E-002     1.3185971389633526E-004
   4.6500000000000000E-002     2.0450648013378302E-004
   4.6799999999999994E-002     3.1616045636414229E-004
   4.7100000000000003E-002     4.8304621040170387E-004
   4.7399999999999998E-002     7.2358016410823832E-004
   4.7700000000000006E-002     1.0572038226202517E-003
   4.8000000000000001E-002     1.5107925950752113E-003
   4.8300000000000010E-002     2.1241292624682982E-003
   4.8600000000000004E-002     2.9463855594587924E-003
   4.8899999999999999E-002     4.0302000710546442E-003
   4.9200000000000008E-002     5.4302367768350552E-003
   4.9500000000000002E-002     7.1994991075465505E-003
   4.9800000000000011E-002     9.3812828534453486E-003
   5.0100000000000006E-002     1.2005801983568772E-002
   5.0400000000000000E-002     1.5087360218895019E-002
   5.0700000000000009E-002     1.8606647522444213E-002
   5.1000000000000004E-002     2.2486978801391888E-002
   5.1299999999999998E-002     2.6589296427168282E-002
   5.1600000000000007E-002     3.0711643106038661E-002
   5.1900000000000002E-002     3.4571874673766170E-002
   5.2200000000000010E-002     3.7803027695614534E-002
   5.2500000000000005E-002     3.9979882641599317E-002
   5.2800000000000000E-002     4.0641419936178209E-002
   5.3099999999999994E-002     3.9294649564400312E-002
   5.3400000000000003E-002     3.5465621465099351E-002
   5.3699999999999998E-002     2.8791274412402389E-002
   5.4000000000000006E-002     1.9067710196218241E-002
   5.4300000000000001E-002     6.2644079489507735E-003
   5.4599999999999996E-002    -9.4018544620198177E-003
   5.4900000000000004E-002    -2.7376276590308307E-002
   5.5199999999999999E-002    -4.6763130605456768E-002
   5.5499999999999994E-002    -6.6409197992465294E-002
   5.5800000000000002E-002    -8.4958678005022215E-002
   5.6099999999999997E-002   -0.10091926780689216     
   5.6400000000000006E-002   -0.11282318812773293     
   5.6700000000000000E-002   -0.11940247678259808     
   5.6999999999999995E-002   -0.11973724032937533     
   5.7300000000000004E-002   -0.11343776116390480     
   5.7599999999999998E-002   -0.10083011383464889     
   5.7900000000000007E-002    -8.3061471547302673E-002
   5.8200000000000002E-002    -6.2074107381964415E-002
   5.8499999999999996E-002    -4.0551649539419782E-002
   5.8800000000000005E-002    -2.1797145152033470E-002
   5.9100000000000000E-002    -9.5018548157229255E-003
   5.9400000000000008E-002    -7.4366942576067760E-003
   5.9700000000000003E-002    -1.9093085627912114E-002
   6.0000000000000012E-002    -4.7305833331658026E-002
   6.0300000000000006E-002    -9.3859464225944919E-002
   6.0600000000000001E-002   -0.15913955534837673     
   6.0900000000000010E-002   -0.24189340354953115     
   6.1200000000000004E-002   -0.33901812538848342     
   6.1500000000000013E-002   -0.44547520641187160     
   6.1800000000000008E-002   -0.55439768517030286     
   6.2100000000000002E-002   -0.65732745418696448     
   6.2399999999999997E-002   -0.74460099140267555     
   6.2700000000000006E-002   -0.80588398401742944     
   6.3000000000000000E-002   -0.83081666797992237     
   6.3300000000000009E-002   -0.80988340011615345     
   6.3600000000000004E-002   -0.73527901164396114     
   6.3899999999999998E-002   -0.60171198081138544     
   6.4199999999999993E-002   -0.40732368551725295     
   6.4500000000000002E-002   -0.15438059205333929     
   6.4800000000000010E-002    0.15037014351862341     
   6.5100000000000005E-002    0.49546955835983886     
   6.5400000000000000E-002    0.86501149764249308     
   6.5700000000000008E-002     1.2393333727512121     
   6.5999999999999989E-002     1.5960619247708998     
   6.6299999999999998E-002     1.9115479976947114     
   6.6600000000000006E-002     2.1627425945647927     
   6.6900000000000001E-002     2.3289248757951806     
   6.7199999999999996E-002     2.3935286839221774     
   6.7500000000000004E-002     2.3459963672083286     
   6.7800000000000013E-002     2.1829113871764565     
   6.8099999999999994E-002     1.9087176274881470     
   6.8400000000000002E-002     1.5358111850851641     
   6.8700000000000011E-002     1.0838154585393096     
   6.8999999999999992E-002    0.57840282379606822     
   6.9300000000000000E-002     4.9335332681775083E-002
   6.9600000000000009E-002   -0.47194643649126494     
   6.9900000000000004E-002   -0.95465319045428298     
   7.0199999999999999E-002    -1.3711230618321444     
   7.0500000000000007E-002    -1.6991346939922878     
   7.0800000000000016E-002    -1.9234982603952497     
   7.1099999999999997E-002    -2.0369396101423125     
   7.1400000000000005E-002    -2.0405168447964384     
   7.1700000000000000E-002    -1.9431604089360839     
   7.1999999999999995E-002    -1.7603784773233233     
   7.2300000000000003E-002    -1.5126074559353220     
   7.2600000000000012E-002    -1.2231462041885990     
   7.2900000000000006E-002   -0.91592050317381946     
   7.3200000000000001E-002   -0.61353392412856267     
   7.3499999999999996E-002   -0.33537544061952296     
   7.3800000000000004E-002    -9.6256270353340681E-002
   7.4099999999999999E-002     9.4073362143918690E-002
   7.4400000000000008E-002    0.23141921962057674     
   7.4700000000000003E-002    0.31675611365129164     
   7.5000000000000011E-002    0.35510508736559493     
   7.5299999999999992E-002    0.35473661300612302     
   7.5600000000000001E-002    0.32597886408298066     
   7.5900000000000009E-002    0.27955784536883049     
   7.6200000000000004E-002    0.22572114493604564     
   7.6499999999999999E-002    0.17353217041366145     
   7.6800000000000007E-002    0.12996521651608914     
   7.7099999999999988E-002     9.9906619759948925E-002
   7.7399999999999997E-002     8.6075372579668269E-002
   7.7700000000000005E-002     8.9327330529244464E-002
   7.8000000000000014E-002    0.10917486788585198     
   7.8299999999999995E-002    0.14403528007962546     
   7.8600000000000003E-002    0.19178134431155883     
   7.8900000000000012E-002    0.25021435686988991     
   7.9199999999999993E-002    0.31697465920833384     
   7.9500000000000001E-002    0.38972421438208971     
   7.9800000000000010E-002    0.46609931075575034     
   8.0100000000000018E-002    0.54337795322980298     
   8.0399999999999999E-002    0.61835874657713863     
   8.0700000000000008E-002    0.68714351732876688     
   8.1000000000000003E-002    0.74505938068774391     
   8.1299999999999997E-002    0.78677863522611391     
   8.1600000000000006E-002    0.80627024477821008     
   8.1900000000000014E-002    0.79738068561394448     
   8.2199999999999995E-002    0.75439834279237894     
   8.2500000000000004E-002    0.67235302359437454     
   8.2799999999999999E-002    0.54793446496757348     
   8.3100000000000007E-002    0.38001536431687993     
   8.3400000000000002E-002    0.16997492844210343     
   8.3700000000000011E-002    -7.7924223966070932E-002
   8.4000000000000005E-002   -0.35642606941013905     
   8.4300000000000000E-002   -0.65552026867989266     
   8.4599999999999995E-002   -0.96285320050638235     
   8.4900000000000003E-002    -1.2644805967876076     
   8.5199999999999998E-002    -1.5454433011718762     
   8.5500000000000007E-002    -1.7907619513025352     
   8.5800000000000001E-002    -1.9864228992411723     
   8.6100000000000010E-002    -2.1202168488168338     
   8.6399999999999991E-002    -2.1823694728062719     
   8.6699999999999999E-002    -2.1663272404968987     
   8.7000000000000008E-002    -2.0691444902838869     
   8.7300000000000003E-002    -1.8916021621307850     
   8.7599999999999997E-002    -1.6382240100846563     
   8.7900000000000006E-002    -1.3174741319281866     
   8.8200000000000014E-002   -0.94100589124855505     
   8.8499999999999995E-002   -0.52348918306821624     
   8.8800000000000004E-002    -8.1963276490020498E-002
   8.9100000000000013E-002    0.36469652773371081     
   8.9399999999999993E-002    0.79681712056933596     
   8.9700000000000002E-002     1.1945090281156516     
   9.0000000000000011E-002     1.5386778129400867     
   9.0299999999999991E-002     1.8119300647474172     
   9.0600000000000000E-002     1.9999229984282125     
   9.0900000000000009E-002     2.0919408907308701     
   9.1200000000000017E-002     2.0818553110618625     
   9.1499999999999998E-002     1.9691610501456942     
   9.1800000000000007E-002     1.7591598216626119     
   9.2100000000000001E-002     1.4630171251433175     
   9.2399999999999996E-002     1.0980011412131039     
   9.2700000000000005E-002    0.68631871272204492     
   9.3000000000000013E-002    0.25422622215815649     
   9.3300000000000008E-002   -0.16944610015909989     
   9.3600000000000003E-002   -0.55526518242109479     
   9.3899999999999997E-002   -0.87515038213176544     
   9.4200000000000006E-002    -1.1043577248102314     
   9.4500000000000001E-002    -1.2237914912111989     
   9.4800000000000009E-002    -1.2213256524611935     
   9.5100000000000004E-002    -1.0930805419622687     
   9.5399999999999999E-002   -0.84435012475793725     
   9.5699999999999993E-002   -0.48922303130420242     
   9.6000000000000002E-002    -4.9632079516164961E-002
   9.6300000000000011E-002    0.44576483981922643     
   9.6600000000000005E-002    0.96383151534981959     
   9.6900000000000000E-002     1.4695164893567454     
   9.7200000000000009E-002     1.9282915360092203     
   9.7499999999999989E-002     2.3088066385429964     
   9.7799999999999998E-002     2.5855438561475372     
   9.8100000000000007E-002     2.7400996585008950     
   9.8400000000000015E-002     2.7626266427844377     
   9.8699999999999996E-002     2.6522488588664626     
   9.9000000000000005E-002     2.4163763560477398     
   9.9300000000000013E-002     2.0699682311072434     
   9.9599999999999994E-002     1.6339336740550074     
   9.9900000000000003E-002     1.1326145065938749     
  0.10020000000000001         0.59231980165396447     
  0.10049999999999999          3.9061041096453364E-002
  0.10080000000000000        -0.50340126247172645     
  0.10110000000000001         -1.0141898222310943     
  0.10140000000000000         -1.4764628242297118     
  0.10170000000000000         -1.8779222803701214     
  0.10200000000000001         -2.2097432462059090     
  0.10230000000000002         -2.4668061595396251     
  0.10260000000000000         -2.6468899127636760     
  0.10290000000000001         -2.7492930784803766     
  0.10320000000000000         -2.7750527774639600     
  0.10350000000000001         -2.7264618810709527     
  0.10380000000000000         -2.6064152676804389     
  0.10410000000000001         -2.4191424827530454     
  0.10440000000000001         -2.1704037189946921     
  0.10470000000000000         -1.8676716106202849     
  0.10500000000000000         -1.5207257299511630     
  0.10530000000000000         -1.1415847574313347     
  0.10560000000000000        -0.74446887108947657     
  0.10590000000000001        -0.34531158453196198     
  0.10620000000000000          3.8983459643440466E-002
  0.10650000000000001         0.39143324030650756     
  0.10679999999999999         0.69630682864064264     
  0.10710000000000000         0.94010472978957360     
  0.10740000000000001          1.1125651694619085     
  0.10770000000000000          1.2076231363310612     
  0.10800000000000000          1.2236366414219726     
  0.10830000000000001          1.1636600649459505     
  0.10859999999999999          1.0350994030722314     
  0.10890000000000000         0.84900881399383787     
  0.10920000000000001         0.61971242633351542     
  0.10950000000000001         0.36366848327657020     
  0.10979999999999999          9.8134489225167029E-002
  0.11009999999999999        -0.15903861276560829     
  0.11040000000000001        -0.39064466773982559     
  0.11070000000000001        -0.58102441022806506     
  0.11100000000000000        -0.71629018135803757     
  0.11130000000000000        -0.78513927141109008     
  0.11160000000000002        -0.77943612310422805     
  0.11190000000000001        -0.69466359836853009     
  0.11220000000000001        -0.53037382785820275     
  0.11250000000000000        -0.29051249008720664     
  0.11280000000000000          1.5893447998811878E-002
  0.11309999999999999         0.37498022169490930     
  0.11340000000000001         0.76828948692276677     
  0.11369999999999998          1.1730351256206275     
  0.11400000000000000          1.5631576593069676     
  0.11430000000000000          1.9110417195664149     
  0.11460000000000002          2.1888413276946559     
  0.11489999999999999          2.3707616199502559     
  0.11520000000000001          2.4352834121189830     
  0.11550000000000001          2.3669199869103936     
  0.11580000000000000          2.1582179025318315     
  0.11609999999999999          1.8108708843888548     
  0.11640000000000002          1.3362119210722163     
  0.11670000000000001         0.75523448349798472     
  0.11700000000000001          9.7301071218951152E-002
  0.11730000000000000        -0.60158532228043837     
  0.11760000000000000         -1.3010457688915529     
  0.11789999999999999         -1.9592176616492321     
  0.11820000000000001         -2.5360093070704708     
  0.11850000000000001         -2.9957067939938318     
  0.11880000000000000         -3.3096454141432212     
  0.11910000000000000         -3.4584767843465594     
  0.11940000000000002         -3.4331982188540975     
  0.11970000000000001         -3.2355697234576528     
  0.12000000000000001         -2.8781309231006311     
  0.12030000000000000         -2.3828082206387533     
  0.12060000000000000         -1.7788546220034300     
  0.12089999999999999         -1.1011631629604282     
  0.12119999999999999        -0.38759435615045024     
  0.12150000000000001         0.32377194060087083     
  0.12180000000000001         0.99676739045377849     
  0.12210000000000000          1.5993258865750561     
  0.12239999999999999          2.1048359816370801     
  0.12270000000000002          2.4935126290320717     
  0.12300000000000001          2.7529103788782918     
  0.12330000000000001          2.8779983606396282     
  0.12360000000000000          2.8706751013929201     
  0.12390000000000000          2.7393908706848564     
  0.12419999999999999          2.4980349810594147     
  0.12450000000000001          2.1646907662960708     
  0.12480000000000001          1.7607556975492671     
  0.12509999999999999          1.3096423597222078     
  0.12540000000000001         0.83520977656631779     
  0.12570000000000003         0.36080809715833712     
  0.12600000000000000         -9.1506784765830976E-002
  0.12630000000000002        -0.50217730408460381     
  0.12659999999999999        -0.85507000353463403     
  0.12690000000000001         -1.1372800605432438     
  0.12719999999999998         -1.3400357576015431     
  0.12750000000000000         -1.4587424705781891     
  0.12780000000000002         -1.4926426242523383     
  0.12809999999999999         -1.4445027082666486     
  0.12840000000000001         -1.3204146744229355     
  0.12869999999999998         -1.1290233414072872     
  0.12900000000000000        -0.88115773997876423     
  0.12930000000000003        -0.58930993005431875     
  0.12959999999999999        -0.26710141996227105     
  0.12990000000000002          7.1091702049176253E-002
  0.13019999999999998         0.41068103587710869     
  0.13050000000000000         0.73711409308306064     
  0.13080000000000003          1.0360984997910883     
  0.13109999999999999          1.2943431356064115     
  0.13140000000000002          1.4998683013817879     
  0.13169999999999998          1.6427700890534460     
  0.13200000000000001          1.7153574725865954     
  0.13229999999999997          1.7134559805012408     
  0.13260000000000000          1.6365944969888893     
  0.13290000000000002          1.4880522305370130     
  0.13319999999999999          1.2755715853166802     
  0.13350000000000001          1.0107995465629303     
  0.13380000000000003         0.70837501443258966     
  0.13410000000000000         0.38577511318662833     
  0.13440000000000002          6.1733455484034180E-002
  0.13469999999999999        -0.24536930962475081     
  0.13500000000000001        -0.51846030367817464     
  0.13529999999999998        -0.74335362887076573     
  0.13560000000000000        -0.90999378797801400     
  0.13590000000000002         -1.0131309231232126     
  0.13619999999999999         -1.0529117808292279     
  0.13650000000000001         -1.0344975271902970     
  0.13680000000000003        -0.96799114928350127     
  0.13710000000000000        -0.86728124434793896     
  0.13740000000000002        -0.74877500385703888     
  0.13769999999999999        -0.63010664042911435     
  0.13800000000000001        -0.52870407495885918     
  0.13829999999999998        -0.46050237027702562     
  0.13860000000000000        -0.43830677911778482     
  0.13890000000000002        -0.47111426439143711     
  0.13919999999999999        -0.56373021145109437     
  0.13950000000000001        -0.71601830377330500     
  0.13979999999999998        -0.92315542225351765     
  0.14010000000000000         -1.1762734083443598     
  0.14040000000000002         -1.4625368781749464     
  0.14069999999999999         -1.7666065164096216     
  0.14100000000000001         -2.0712004330327902     
  0.14130000000000004         -2.3581355160870552     
  0.14160000000000000         -2.6096821259533565     
  0.14189999999999997         -2.8090915966629857     
  0.14219999999999999         -2.9417061934926036     
  0.14250000000000002         -2.9961085286659181     
  0.14279999999999998         -2.9636921698494638     
  0.14310000000000000         -2.8402938532382125     
  0.14339999999999997         -2.6264154511566868     
  0.14369999999999999         -2.3262817420977249     
  0.14400000000000002         -1.9491171415927033     
  0.14429999999999998         -1.5087283504769307     
  0.14460000000000001         -1.0217568663437426     
  0.14490000000000003        -0.50890689803031430     
  0.14520000000000000          7.0775112157451569E-003
  0.14550000000000002         0.50315203009609299     
  0.14579999999999999         0.95552634611978593     
  0.14610000000000001          1.3429972266409331     
  0.14640000000000003          1.6480391199538726     
  0.14670000000000000          1.8572001538549916     
  0.14699999999999996          1.9640580483020225     
  0.14729999999999999          1.9692815680186611     
  0.14760000000000001          1.8806097802021740     
  0.14789999999999998          1.7137902311465969     
  0.14820000000000000          1.4911162485141964     