  -1.4999999999999999E-002     0.0000000000000000     
  -1.4700000000000000E-002     0.0000000000000000     
  -1.4400000000000000E-002     0.0000000000000000     
  -1.4100000000000000E-002     0.0000000000000000     
  -1.3800000000000000E-002     0.0000000000000000     
  -1.3500000000000000E-002     0.0000000000000000     
  -1.3200000000000000E-002     0.0000000000000000     
  -1.2899999999999998E-002     0.0000000000000000     
  -1.2600000000000000E-002     0.0000000000000000     
  -1.2299999999999998E-002     0.0000000000000000     
  -1.2000000000000000E-002     0.0000000000000000     
  -1.1699999999999999E-002     0.0000000000000000     
  -1.1399999999999999E-002     0.0000000000000000     
  -1.1099999999999999E-002     0.0000000000000000     
  -1.0799999999999999E-002     0.0000000000000000     
  -1.0499999999999999E-002     0.0000000000000000     
  -1.0199999999999999E-002     0.0000000000000000     
  -9.8999999999999991E-003     0.0000000000000000     
  -9.5999999999999992E-003     0.0000000000000000     
  -9.2999999999999992E-003     0.0000000000000000     
  -8.9999999999999993E-003     0.0000000000000000     
  -8.6999999999999994E-003     0.0000000000000000     
  -8.3999999999999995E-003     0.0000000000000000     
  -8.0999999999999996E-003     0.0000000000000000     
  -7.7999999999999988E-003     0.0000000000000000     
  -7.4999999999999997E-003     0.0000000000000000     
  -7.1999999999999998E-003     0.0000000000000000     
  -6.8999999999999981E-003     0.0000000000000000     
  -6.5999999999999982E-003     0.0000000000000000     
  -6.3000000000000000E-003     0.0000000000000000     
  -6.0000000000000001E-003     0.0000000000000000     
  -5.6999999999999985E-003     0.0000000000000000     
  -5.3999999999999986E-003     0.0000000000000000     
  -5.1000000000000004E-003     0.0000000000000000     
  -4.7999999999999987E-003     0.0000000000000000     
  -4.5000000000000005E-003     0.0000000000000000     
  -4.1999999999999989E-003     0.0000000000000000     
  -3.8999999999999990E-003     0.0000000000000000     
  -3.5999999999999990E-003     0.0000000000000000     
  -3.2999999999999991E-003     0.0000000000000000     
  -2.9999999999999992E-003     0.0000000000000000     
  -2.6999999999999993E-003     0.0000000000000000     
  -2.3999999999999994E-003     0.0000000000000000     
  -2.0999999999999977E-003     0.0000000000000000     
  -1.7999999999999995E-003     0.0000000000000000     
  -1.4999999999999979E-003     0.0000000000000000     
  -1.1999999999999997E-003     0.0000000000000000     
  -8.9999999999999976E-004     0.0000000000000000     
  -5.9999999999999810E-004     0.0000000000000000     
  -2.9999999999999992E-004     0.0000000000000000     
   0.0000000000000000          0.0000000000000000     
   3.0000000000000165E-004     0.0000000000000000     
   5.9999999999999984E-004     0.0000000000000000     
   9.0000000000000149E-004     0.0000000000000000     
   1.2000000000000031E-003     0.0000000000000000     
   1.5000000000000013E-003     0.0000000000000000     
   1.8000000000000030E-003     0.0000000000000000     
   2.1000000000000012E-003     0.0000000000000000     
   2.3999999999999994E-003     0.0000000000000000     
   2.7000000000000010E-003     0.0000000000000000     
   2.9999999999999992E-003     0.0000000000000000     
   3.3000000000000008E-003     0.0000000000000000     
   3.6000000000000025E-003     0.0000000000000000     
   3.9000000000000007E-003     0.0000000000000000     
   4.2000000000000023E-003     0.0000000000000000     
   4.5000000000000005E-003     0.0000000000000000     
   4.7999999999999987E-003     0.0000000000000000     
   5.1000000000000004E-003     0.0000000000000000     
   5.4000000000000020E-003     0.0000000000000000     
   5.7000000000000037E-003     0.0000000000000000     
   5.9999999999999984E-003     0.0000000000000000     
   6.3000000000000000E-003     0.0000000000000000     
   6.6000000000000017E-003     0.0000000000000000     
   6.9000000000000034E-003     0.0000000000000000     
   7.2000000000000015E-003     0.0000000000000000     
   7.5000000000000032E-003     0.0000000000000000     
   7.8000000000000014E-003     0.0000000000000000     
   8.0999999999999996E-003     0.0000000000000000     
   8.4000000000000012E-003     0.0000000000000000     
   8.7000000000000029E-003     0.0000000000000000     
   9.0000000000000011E-003     0.0000000000000000     
   9.2999999999999992E-003     0.0000000000000000     
   9.6000000000000009E-003     0.0000000000000000     
   9.8999999999999991E-003     0.0000000000000000     
   1.0200000000000001E-002     0.0000000000000000     
   1.0500000000000002E-002     0.0000000000000000     
   1.0800000000000004E-002     0.0000000000000000     
   1.1099999999999999E-002     0.0000000000000000     
   1.1400000000000000E-002     0.0000000000000000     
   1.1700000000000002E-002     0.0000000000000000     
   1.2000000000000004E-002     0.0000000000000000     
   1.2300000000000002E-002     0.0000000000000000     
   1.2600000000000000E-002     0.0000000000000000     
   1.2900000000000002E-002     0.0000000000000000     
   1.3200000000000000E-002     0.0000000000000000     
   1.3500000000000002E-002     0.0000000000000000     
   1.3800000000000003E-002     0.0000000000000000     
   1.4100000000000001E-002     0.0000000000000000     
   1.4400000000000000E-002     0.0000000000000000     
   1.4700000000000001E-002     0.0000000000000000     
   1.4999999999999999E-002     0.0000000000000000     
   1.5300000000000001E-002     0.0000000000000000     
   1.5600000000000003E-002     0.0000000000000000     
   1.5899999999999997E-002     0.0000000000000000     
   1.6199999999999999E-002     0.0000000000000000     
   1.6500000000000001E-002     0.0000000000000000     
   1.6800000000000002E-002     0.0000000000000000     
   1.7100000000000004E-002     0.0000000000000000     
   1.7400000000000006E-002     0.0000000000000000     
   1.7700000000000000E-002     0.0000000000000000     
   1.8000000000000002E-002     0.0000000000000000     
   1.8300000000000004E-002     0.0000000000000000     
   1.8600000000000005E-002     0.0000000000000000     
   1.8900000000000000E-002     0.0000000000000000     
   1.9200000000000002E-002     0.0000000000000000     
   1.9500000000000003E-002     0.0000000000000000     
   1.9799999999999998E-002     0.0000000000000000     
   2.0100000000000000E-002     0.0000000000000000     
   2.0400000000000001E-002     0.0000000000000000     
   2.0700000000000003E-002     0.0000000000000000     
   2.0999999999999998E-002     0.0000000000000000     
   2.1299999999999999E-002     0.0000000000000000     
   2.1600000000000001E-002     0.0000000000000000     
   2.1900000000000003E-002     0.0000000000000000     
   2.2200000000000004E-002     0.0000000000000000     
   2.2500000000000006E-002     0.0000000000000000     
   2.2800000000000001E-002     0.0000000000000000     
   2.3100000000000002E-002     0.0000000000000000     
   2.3400000000000004E-002     0.0000000000000000     
   2.3699999999999999E-002     0.0000000000000000     
   2.4000000000000000E-002     0.0000000000000000     
   2.4300000000000002E-002     0.0000000000000000     
   2.4599999999999997E-002     0.0000000000000000     
   2.4900000000000005E-002     0.0000000000000000     
   2.5200000000000000E-002     0.0000000000000000     
   2.5499999999999995E-002     0.0000000000000000     
   2.5800000000000003E-002     0.0000000000000000     
   2.6099999999999998E-002     0.0000000000000000     
   2.6400000000000007E-002     0.0000000000000000     
   2.6700000000000002E-002     0.0000000000000000     
   2.6999999999999996E-002     0.0000000000000000     
   2.7300000000000005E-002     0.0000000000000000     
   2.7600000000000000E-002     0.0000000000000000     
   2.7900000000000008E-002     0.0000000000000000     
   2.8200000000000003E-002     0.0000000000000000     
   2.8499999999999998E-002     0.0000000000000000     
   2.8800000000000006E-002     0.0000000000000000     
   2.9100000000000001E-002     0.0000000000000000     
   2.9400000000000003E-002     0.0000000000000000     
   2.9700000000000004E-002     0.0000000000000000     
   3.0000000000000006E-002     0.0000000000000000     
   3.0300000000000001E-002     0.0000000000000000     
   3.0600000000000002E-002     8.5994981201222063E-043
   3.0900000000000004E-002     3.2588779199406729E-041
   3.1199999999999999E-002    -2.7993926259155155E-040
   3.1500000000000007E-002    -1.1271316878103139E-039
   3.1800000000000002E-002    -1.2025260525961208E-037
   3.2099999999999997E-002     2.8682078745179628E-036
   3.2400000000000005E-002    -1.5605019382073457E-035
   3.2700000000000000E-002    -1.7681570346593027E-035
   3.3000000000000002E-002     4.9339314592392859E-034
   3.3300000000000003E-002    -4.3607496866970579E-033
   3.3599999999999998E-002     1.7328436960918013E-032
   3.3900000000000000E-002    -6.6171386627822698E-032
   3.4200000000000001E-002     2.4189766449749391E-031
   3.4500000000000003E-002    -8.2698992017887340E-031
   3.4799999999999998E-002     2.6278438287469259E-030
   3.5099999999999999E-002    -7.6048518252657421E-030
   3.5400000000000001E-002     1.9208793242791695E-029
   3.5699999999999996E-002    -3.7811171537861574E-029
   3.6000000000000004E-002     2.9608681490581862E-029
   3.6299999999999999E-002     2.1224981116781573E-028
   3.6600000000000008E-002    -1.5763575405274435E-027
   3.6900000000000002E-002     7.2456932535664093E-027
   3.7199999999999997E-002    -2.7153810056208045E-026
   3.7500000000000006E-002     8.8398478903264327E-026
   3.7800000000000000E-002    -2.5343647483825051E-025
   3.8100000000000009E-002     6.2872985824022924E-025
   3.8400000000000004E-002    -1.2534874875994172E-024
   3.8699999999999998E-002     1.4251537632282533E-024
   3.9000000000000007E-002     2.9276787648947257E-024
   3.9300000000000002E-002    -2.7175938788675405E-023
   3.9600000000000003E-002     1.1604835247653634E-022
   3.9900000000000005E-002    -3.6596671125325859E-022
   4.0200000000000000E-002     8.7910377569909517E-022
   4.0500000000000001E-002    -1.3514814108752589E-021
   4.0800000000000003E-002    -4.5976439031341695E-022
   4.1100000000000005E-002     1.2245432425394328E-020
   4.1399999999999999E-002    -5.0045454938669558E-020
   4.1700000000000008E-002     1.2280366284852753E-019
   4.2000000000000003E-002    -1.4796923978208908E-019
   4.2299999999999997E-002    -2.5912512412770573E-019
   4.2600000000000006E-002     1.9491487498394025E-018
   4.2900000000000001E-002    -5.3107338024976493E-018
   4.3200000000000002E-002     5.9271205155049762E-018
   4.3500000000000004E-002     1.3351982063800627E-017
   4.3799999999999999E-002    -7.8124100735039245E-017
   4.4100000000000000E-002     1.5680175781917180E-016
   4.4400000000000002E-002     2.2555508164367202E-018
   4.4700000000000004E-002    -9.0390610951084041E-016
   4.4999999999999998E-002     2.3712793495824294E-015
   4.5300000000000000E-002    -9.7100465986194456E-016
   4.5600000000000002E-002    -1.0534322634114086E-014
   4.5899999999999996E-002     2.9098027560340503E-014
   4.6200000000000005E-002    -7.5003000895394764E-015
   4.6500000000000000E-002    -1.3436332570601344E-013
   4.6799999999999994E-002     2.9559934944642094E-013
   4.7100000000000003E-002     1.3444517786919494E-013
   4.7399999999999998E-002    -1.6693009511664203E-012
   4.7700000000000006E-002     1.9810590557865201E-012
   4.8000000000000001E-002     4.9761325474131554E-012
   4.8300000000000010E-002    -1.5870527563877352E-011
   4.8600000000000004E-002    -3.0867972473688275E-012
   4.8899999999999999E-002     7.4406609379994461E-011
   4.9200000000000008E-002    -6.1220140004726600E-011
   4.9500000000000002E-002    -2.6644552691256996E-010
   4.9800000000000011E-002     4.6588635716297455E-010
   5.0100000000000006E-002     8.0143942965334951E-010
   5.0400000000000000E-002    -2.3334447822930761E-009
   5.0700000000000009E-002    -2.2286735170998716E-009
   5.1000000000000004E-002     9.8281316247234253E-009
   5.1299999999999998E-002     6.9223931671152746E-009
   5.1600000000000007E-002    -3.7519958347752686E-008
   5.1900000000000002E-002    -3.0476146824357288E-008
   5.2200000000000010E-002     1.2472856539522551E-007
   5.2500000000000005E-002     1.4868187359999314E-007
   5.2800000000000000E-002    -3.6889864534989516E-007
   5.3099999999999994E-002    -7.6960323375189186E-007
   5.3400000000000003E-002     9.4690676678716780E-007
   5.3699999999999998E-002     6.1253360017965245E-006
   5.4000000000000006E-002     1.4014922643013055E-005
   5.4300000000000001E-002     2.3840230919343501E-005
   5.4599999999999996E-002     3.7186618313524471E-005
   5.4900000000000004E-002     5.6700010629047510E-005
   5.5199999999999999E-002     8.5021686362417488E-005
   5.5499999999999994E-002     1.2810354128437015E-004
   5.5800000000000002E-002     1.9633953569901181E-004
   5.6099999999999997E-002     2.9876205962461151E-004
   5.6400000000000006E-002     4.4181593285008019E-004
   5.6700000000000000E-002     6.4069145372373250E-004
   5.6999999999999995E-002     9.2645260479979480E-004
   5.7300000000000004E-002     1.3339478449955582E-003
   5.7599999999999998E-002     1.8888337289212054E-003
   5.7900000000000007E-002     2.6164445968177041E-003
   5.8200000000000002E-002     3.5579031742875768E-003
   5.8499999999999996E-002     4.7655113178476319E-003
   5.8800000000000005E-002     6.2820034005010694E-003
   5.9100000000000000E-002     8.1285604174272698E-003
   5.9400000000000008E-002     1.0303996301354281E-002
   5.9700000000000003E-002     1.2780363187144844E-002
   6.0000000000000012E-002     1.5485678794452468E-002
   6.0300000000000006E-002     1.8281066852002748E-002
   6.0600000000000001E-002     2.0941280049391879E-002
   6.0900000000000010E-002     2.3149056534109140E-002
   6.1200000000000004E-002     2.4488841331527803E-002
   6.1500000000000013E-002     2.4433655360524303E-002
   6.1800000000000008E-002     2.2338450833886386E-002
   6.2100000000000002E-002     1.7478624386261295E-002
   6.2399999999999997E-002     9.1108201788577588E-003
   6.2700000000000006E-002    -3.4674514859884408E-003
   6.3000000000000000E-002    -2.0868080243922251E-002
   6.3300000000000009E-002    -4.3508376714165770E-002
   6.3600000000000004E-002    -7.1471733461406811E-002
   6.3899999999999998E-002   -0.10437077577052399     
   6.4199999999999993E-002   -0.14125869465376226     
   6.4500000000000002E-002   -0.18055710313631973     
   6.4800000000000010E-002   -0.22001126480881522     
   6.5100000000000005E-002   -0.25668566640221835     
   6.5400000000000000E-002   -0.28704733995167730     
   6.5700000000000008E-002   -0.30713640887384241     
   6.5999999999999989E-002   -0.31281501764625441     
   6.6299999999999998E-002   -0.30009371038300303     
   6.6600000000000006E-002   -0.26549169300049452     
   6.6900000000000001E-002   -0.20645440289316183     
   6.7199999999999996E-002   -0.12174428472355148     
   6.7500000000000004E-002    -1.1796827757260299E-002
   6.7800000000000013E-002    0.12105107759900882     
   6.8099999999999994E-002    0.27242320106127821     
   6.8400000000000002E-002    0.43597363718944349     
   6.8700000000000011E-002    0.60355917514932766     
   6.8999999999999992E-002    0.76571801472553880     
   6.9300000000000000E-002    0.91216168084725457     
   6.9600000000000009E-002     1.0325523857156260     
   6.9900000000000004E-002     1.1171694811511332     
   7.0199999999999999E-002     1.1577587811322889     
   7.0500000000000007E-002     1.1481456234475951     
   7.0800000000000016E-002     1.0849218275727794     
   7.1099999999999997E-002    0.96770318281002110     
   7.1400000000000005E-002    0.79943535051535242     
   7.1700000000000000E-002    0.58617139659139095     
   7.1999999999999995E-002    0.33686060686786184     
   7.2300000000000003E-002     6.2773187205046682E-002
   7.2600000000000012E-002   -0.22320657909914254     
   7.2900000000000006E-002   -0.50738404798588366     
   7.3200000000000001E-002   -0.77612771885887222     
   7.3499999999999996E-002    -1.0166096629441130     
   7.3800000000000004E-002    -1.2177405751221331     
   7.4099999999999999E-002    -1.3705106139059988     
   7.4400000000000008E-002    -1.4687637447628175     
   7.4700000000000003E-002    -1.5091469698191611     
   7.5000000000000011E-002    -1.4914843963537190     
   7.5299999999999992E-002    -1.4183607728198901     
   7.5600000000000001E-002    -1.2951866869721531     
   7.5900000000000009E-002    -1.1295785447743516     
   7.6200000000000004E-002   -0.93109413004705233     
   7.6499999999999999E-002   -0.71047017190555795     
   7.6800000000000007E-002   -0.47923445116203567     
   7.7099999999999988E-002   -0.24899129620989091     
   7.7399999999999997E-002    -3.0933592811676722E-002
   7.7700000000000005E-002    0.16480312778476336     
   7.8000000000000014E-002    0.32957772532453028     
   7.8299999999999995E-002    0.45672964841460573     
   7.8600000000000003E-002    0.54184900733987518     
   7.8900000000000012E-002    0.58304802523950627     
   7.9199999999999993E-002    0.58104961451391068     
   7.9500000000000001E-002    0.53907777800887047     
   7.9800000000000010E-002    0.46272635944816753     
   8.0100000000000018E-002    0.35944345035031905     
   8.0399999999999999E-002    0.23827746116875359     
   8.0700000000000008E-002    0.10904964487838764     
   8.1000000000000003E-002    -1.8010005610592961E-002
   8.1299999999999997E-002   -0.13328934869690076     
   8.1600000000000006E-002   -0.22794418344292583     
   8.1900000000000014E-002   -0.29495479961356746     
   8.2199999999999995E-002   -0.32897699257503354     
   8.2500000000000004E-002   -0.32723709929949829     
   8.2799999999999999E-002   -0.28900049271168993     
   8.3100000000000007E-002   -0.21612967452471160     
   8.3400000000000002E-002   -0.11230781328377221     
   8.3700000000000011E-002     1.6686419361541166E-002
   8.4000000000000005E-002    0.16399461569175619     
   8.4300000000000000E-002    0.32162358399071822     
   8.4599999999999995E-002    0.48136557430256233     
   8.4900000000000003E-002    0.63482628898250748     
   8.5199999999999998E-002    0.77419669242708822     
   8.5500000000000007E-002    0.89239368565904509     
   8.5800000000000001E-002    0.98348129479094371     
   8.6100000000000010E-002     1.0427770192833679     
   8.6399999999999991E-002     1.0669698560356664     
   8.6699999999999999E-002     1.0542863078183882     
   8.7000000000000008E-002     1.0044209709256529     
   8.7300000000000003E-002    0.91869936699531785     
   8.7599999999999997E-002    0.79981064099832766     
   8.7900000000000006E-002    0.65199249818955507     
   8.8200000000000014E-002    0.48066028643820768     
   8.8499999999999995E-002    0.29262690364464217     
   8.8800000000000004E-002     9.5536386028167011E-002
   8.9100000000000013E-002   -0.10206947474209131     
   8.9399999999999993E-002   -0.29136880063547416     
   8.9700000000000002E-002   -0.46331505273275608     
   9.0000000000000011E-002   -0.60940008261050971     
   9.0299999999999991E-002   -0.72199980797907792     
   9.0600000000000000E-002   -0.79496317708584874     
   9.0900000000000009E-002   -0.82404329095872642     
   9.1200000000000017E-002   -0.80725207284189882     
   9.1499999999999998E-002   -0.74533101952263281     
   9.1800000000000007E-002   -0.64165522608948333     
   9.2100000000000001E-002   -0.50243365168452758     
   9.2399999999999996E-002   -0.33612117351758963     
   9.2700000000000005E-002   -0.15339412889963996     
   9.3000000000000013E-002     3.3915471527983264E-002
   9.3300000000000008E-002    0.21303674115857146     
   9.3600000000000003E-002    0.37162188300177107     
   9.3899999999999997E-002    0.49799116047654168     
   9.4200000000000006E-002    0.58247237626656989     
   9.4500000000000001E-002    0.61753376215083122     
   9.4800000000000009E-002    0.59878781986594964     
   9.5100000000000004E-002    0.52484983818625375     
   9.5399999999999999E-002    0.39794602596981887     
   9.5699999999999993E-002    0.22337703040692591     
   9.6000000000000002E-002     9.6847100458988811E-003
   9.6300000000000011E-002   -0.23221253361415792     
   9.6600000000000005E-002   -0.48931166692952999     
   9.6900000000000000E-002   -0.74750719047138081     
   9.7200000000000009E-002   -0.99221711755610942     
   9.7499999999999989E-002    -1.2094107747704685     
   9.7799999999999998E-002    -1.3862768818528011     
   9.8100000000000007E-002    -1.5120920946854577     
   9.8400000000000015E-002    -1.5787823288041687     
   9.8699999999999996E-002    -1.5814660761641659     
   9.9000000000000005E-002    -1.5185913015553787     
   9.9300000000000013E-002    -1.3920372571369364     
   9.9599999999999994E-002    -1.2070035128777210     
   9.9900000000000003E-002   -0.97154050001358705     
  0.10020000000000001        -0.69600040709510380     
  0.10049999999999999        -0.39223256863668970     
  0.10080000000000000         -7.3105603307541192E-002
  0.10110000000000001         0.24848507370970180     
  0.10140000000000000         0.56008271165558399     
  0.10170000000000000         0.85051582950223892     
  0.10200000000000001          1.1099416183035431     
  0.10230000000000002          1.3305793283724849     
  0.10260000000000000          1.5063530815103898     
  0.10290000000000001          1.6334359873446669     
  0.10320000000000000          1.7095600536059135     
  0.10350000000000001          1.7346418732427868     
  0.10380000000000000          1.7098196525008613     
  0.10410000000000001          1.6382013706654370     
  0.10440000000000001          1.5237936054648664     
  0.10470000000000000          1.3723364196126198     
  0.10500000000000000          1.1901015310842067     
  0.10530000000000000         0.98473382744931826     
  0.10560000000000000         0.76403486537003817     
  0.10590000000000001         0.53654724649131613     
  0.10620000000000000         0.31020440531395915     
  0.10650000000000001          9.2830551209545031E-002
  0.10679999999999999        -0.10916151033887195     
  0.10710000000000000        -0.29040210066255728     
  0.10740000000000001        -0.44755331325968151     
  0.10770000000000000        -0.57880398643381226     
  0.10800000000000000        -0.68457652925284040     
  0.10830000000000001        -0.76660327037636766     
  0.10859999999999999        -0.82825037239503263     
  0.10890000000000000        -0.87331881455098692     
  0.10920000000000001        -0.90611155212080274     
  0.10950000000000001        -0.93025918900759397     
  0.10979999999999999        -0.94861955588871139     
  0.11009999999999999        -0.96233077764153929     
  0.11040000000000001        -0.97114839847725531     
  0.11070000000000001        -0.97299785158673391     
  0.11100000000000000        -0.96451678256383633     
  0.11130000000000000        -0.94122130137176674     
  0.11160000000000002        -0.89830999245512921     
  0.11190000000000001        -0.83123398325488584     
  0.11220000000000001        -0.73652394993295345     
  0.11250000000000000        -0.61228397992885208     
  0.11280000000000000        -0.45871381765151320     
  0.11309999999999999        -0.27835132584371314     
  0.11340000000000001         -7.6038331142932972E-002
  0.11369999999999998         0.14128049645115670     
  0.11400000000000000         0.36504275751807269     
  0.11430000000000000         0.58582303471606734     
  0.11460000000000002         0.79386383806477545     
  0.11489999999999999         0.98000011442465640     
  0.11520000000000001          1.1362474571096497     
  0.11550000000000001          1.2565042619338125     
  0.11580000000000000          1.3367138036360724     
  0.11609999999999999          1.3751559668546556     
  0.11640000000000002          1.3722175574763447     
  0.11670000000000001          1.3304066315957859     
  0.11700000000000001          1.2536853921867370     
  0.11730000000000000          1.1471569129885038     
  0.11760000000000000          1.0163948723793212     
  0.11789999999999999         0.86725995533748468     
  0.11820000000000001         0.70513710474291036     
  0.11850000000000001         0.53505789036559503     
  0.11880000000000000         0.36131356262539188     
  0.11910000000000000         0.18765388893197238     
  0.11940000000000002          1.7138139109518870E-002
  0.11970000000000001        -0.14754367558286022     
  0.12000000000000001        -0.30383991540419431     
  0.12030000000000000        -0.44930935804505967     
  0.12060000000000000        -0.58144000825282927     
  0.12089999999999999        -0.69762646269822526     
  0.12119999999999999        -0.79513023246641779     
  0.12150000000000001        -0.87133546176633669     
  0.12180000000000001        -0.92380102869037595     
  0.12210000000000000        -0.95057190788694301     
  0.12239999999999999        -0.95033495512165755     
  0.12270000000000002        -0.92283950160516492     
  0.12300000000000001        -0.86898044553150244     
  0.12330000000000001        -0.79081422207332797     
  0.12360000000000000        -0.69183860387109131     
  0.12390000000000000        -0.57690423164254312     
  0.12419999999999999        -0.45209324223619130     
  0.12450000000000001        -0.32435417640894493     
  0.12480000000000001        -0.20126587065132756     
  0.12509999999999999         -9.0553271945895186E-002
  0.12540000000000001          3.0946805370380727E-004
  0.12570000000000003          6.4694159528063885E-002
  0.12600000000000000          9.7265474721016432E-002
  0.12630000000000002          9.4581527807944196E-002
  0.12659999999999999          5.5347362544963433E-002
  0.12690000000000001         -1.9283515442550178E-002
  0.12719999999999998        -0.12568181316970442     
  0.12750000000000000        -0.25776958896376356     
  0.12780000000000002        -0.40732559091686188     
  0.12809999999999999        -0.56443968501976083     
  0.12840000000000001        -0.71821410733844160     
  0.12869999999999998        -0.85731283502188704     
  0.12900000000000000        -0.97091058245960293     
  0.12930000000000003         -1.0493592252741712     
  0.12959999999999999         -1.0850388313661381     
  0.12990000000000002         -1.0725764669214333     
  0.13019999999999998         -1.0096411137208339     
  0.13050000000000000        -0.89665009100180826     
  0.13080000000000003        -0.73724992923777144     
  0.13109999999999999        -0.53735636491969152     
  0.13140000000000002        -0.30552934745556987     
  0.13169999999999998         -5.1492613611478943E-002
  0.13200000000000001         0.21359328770408495     
  0.13229999999999997         0.47869254666531824     
  0.13260000000000000         0.73249584015135627     
  0.13290000000000002         0.96514434776415547     
  0.13319999999999999          1.1674001737505646     
  0.13350000000000001          1.3321155028794622     
  0.13380000000000003          1.4531620619326437     
  0.13410000000000000          1.5268332833123230     
  0.13440000000000002          1.5505912562085880     
  0.13469999999999999          1.5242820256321399     
  0.13500000000000001          1.4487455928380861     
  0.13529999999999998          1.3272346733526446     
  0.13560000000000000          1.1641132521386286     
  0.13590000000000002         0.96611541630192166     
  0.13619999999999999         0.74108329695717789     
  0.13650000000000001         0.49896458564875790     
  0.13680000000000003         0.25062314385554763     
  0.13710000000000000          8.6504008804151045E-003
  0.13740000000000002        -0.21441437477379938     
  0.13769999999999999        -0.40550849625168633     
  0.13800000000000001        -0.55302717635175469     
  0.13829999999999998        -0.64645985715496568     
  0.13860000000000000        -0.67850375257328754     
  0.13890000000000002        -0.64471173288392614     
  0.13919999999999999        -0.54528866852865754     
  0.13950000000000001        -0.38427805866931286     
  0.13979999999999998        -0.17080794609976765     
  0.14010000000000000          8.2477888452556686E-002
  0.14040000000000002         0.35874365543819453     
  0.14069999999999999         0.63927230439052529     
  0.14100000000000001         0.90359866230400154     
  0.14130000000000004          1.1320425615094443     
  0.14160000000000000          1.3061628213949441     
  0.14189999999999997          1.4110677493133412     
  0.14219999999999999          1.4357614977193642     
  0.14250000000000002          1.3747844736831845     
  0.14279999999999998          1.2281375269274517     
  0.14310000000000000          1.0017636083791315     
  0.14339999999999997         0.70674353922950206     
  0.14369999999999999         0.35891494750262332     
  0.14400000000000002         -2.2382056724980809E-002
  0.14429999999999998        -0.41566522600591183     
  0.14460000000000001        -0.79858326872878993     
  0.14490000000000003         -1.1497687584576473     
  0.14520000000000000         -1.4497659651443235     
  0.14550000000000002         -1.6827104986701371     
  0.14579999999999999         -1.8368006935995846     
  0.14610000000000001         -1.9054337925791791     
  0.14640000000000003         -1.8870234365419649     
  0.14670000000000000         -1.7854691644272012     
  0.14699999999999996         -1.6090263420615567     
  0.14729999999999999         -1.3704369707164834     
  0.14760000000000001         -1.0851788237428581     
  0.14789999999999998        -0.77116377770665834     
  0.14820000000000000        -0.44676894278091384     