  -1.4999999999999999E-002     0.0000000000000000     
  -1.4700000000000000E-002    -4.2945439859458667E-005
  -1.4400000000000000E-002     6.2076181229956016E-005
  -1.4100000000000000E-002     2.6656985990403082E-004
  -1.3800000000000000E-002     4.3825125292517680E-004
  -1.3500000000000000E-002     3.3546483880429826E-004
  -1.3200000000000000E-002     1.3091951983737541E-004
  -1.2899999999999998E-002    -2.9403397004073645E-004
  -1.2600000000000000E-002    -6.7298920481664946E-004
  -1.2299999999999998E-002    -1.0833627640614832E-003
  -1.2000000000000000E-002    -1.6608188681786927E-003
  -1.1699999999999999E-002    -3.1048236492399613E-003
  -1.1399999999999999E-002    -5.3254509771159114E-003
  -1.1099999999999999E-002    -8.7237371342784066E-003
  -1.0799999999999999E-002    -1.4639779051647149E-002
  -1.0499999999999999E-002    -2.3267061737996086E-002
  -1.0199999999999999E-002    -3.7142411503960956E-002
  -9.8999999999999991E-003    -5.8252442570448239E-002
  -9.5999999999999992E-003    -8.9404660581132583E-002
  -9.2999999999999992E-003   -0.13459641756140078     
  -8.9999999999999993E-003   -0.19906714103729450     
  -8.6999999999999994E-003   -0.28851264328102516     
  -8.3999999999999995E-003   -0.41194608647645004     
  -8.0999999999999996E-003   -0.57746654975559442     
  -7.7999999999999988E-003   -0.79579205204023884     
  -7.4999999999999997E-003    -1.0775281377875507     
  -7.1999999999999998E-003    -1.4335707756015044     
  -6.8999999999999981E-003    -1.8733310032449826     
  -6.5999999999999982E-003    -2.4040959664239825     
  -6.3000000000000000E-003    -3.0279022370739508     
  -6.0000000000000001E-003    -3.7407099320192536     
  -5.6999999999999985E-003    -4.5290820181529439     
  -5.3999999999999986E-003    -5.3684070212691992     
  -5.1000000000000004E-003    -6.2208197772839924     
  -4.7999999999999987E-003    -7.0345939418959427     
  -4.5000000000000005E-003    -7.7425784408867759     
  -4.1999999999999989E-003    -8.2650189162561070     
  -3.8999999999999990E-003    -8.5117573759153711     
  -3.5999999999999990E-003    -8.3871598291132070     
  -3.2999999999999991E-003    -7.7984061015555177     
  -2.9999999999999992E-003    -6.6629189583994801     
  -2.6999999999999993E-003    -4.9189680100663589     
  -2.3999999999999994E-003    -2.5363856748218119     
  -2.0999999999999977E-003    0.47520630734679298     
  -1.7999999999999995E-003     4.0564840246303815     
  -1.4999999999999979E-003     8.0959754578200815     
  -1.1999999999999997E-003     12.428480002980066     
  -8.9999999999999976E-004     16.839806683681960     
  -5.9999999999999810E-004     21.077823065056979     
  -2.9999999999999992E-004     24.867818471694893     
   0.0000000000000000          27.931648047143444     
   3.0000000000000165E-004     30.010587561189830     
   5.9999999999999984E-004     30.888271186048623     
   9.0000000000000149E-004     30.413453797168927     
   1.2000000000000031E-003     28.515777117248316     
   1.5000000000000013E-003     25.219205081608191     
   1.8000000000000030E-003     20.645279681888461     
   2.1000000000000012E-003     15.006762817967363     
   2.3999999999999994E-003     8.5961893443710764     
   2.7000000000000010E-003     1.7642602652000203     
   2.9999999999999992E-003    -5.1083909167967541     
   3.3000000000000008E-003    -11.637510790597499     
   3.6000000000000025E-003    -17.468528586284801     
   3.9000000000000007E-003    -22.303916973702396     
   4.2000000000000023E-003    -25.921714921289887     
   4.5000000000000005E-003    -28.193483478094567     
   4.7999999999999987E-003    -29.089765558736055     
   5.1000000000000004E-003    -28.675527378185091     
   5.4000000000000020E-003    -27.101130970524682     
   5.7000000000000037E-003    -24.583613559463110     
   5.9999999999999984E-003    -21.384251414277653     
   6.3000000000000000E-003    -17.784120990031859     
   6.6000000000000017E-003    -14.058889498439626     
   6.9000000000000034E-003    -10.456867045620397     
   7.2000000000000015E-003    -7.1820011883232064     
   7.5000000000000032E-003    -4.3802923187217466     
   7.8000000000000014E-003    -2.1346342868414716     
   8.0999999999999996E-003   -0.46555498914617655     
   8.4000000000000012E-003    0.66327431397234315     
   8.7000000000000029E-003     1.3350683326396418     
   9.0000000000000011E-003     1.6631848001383358     
   9.2999999999999992E-003     1.7782760364077357     
   9.6000000000000009E-003     1.8115831353669531     
   9.8999999999999991E-003     1.8798649295358025     
   1.0200000000000001E-002     2.0747506927115040     
   1.0500000000000002E-002     2.4558496048519975     
   1.0800000000000004E-002     3.0454205464352424     
   1.1099999999999999E-002     3.8288427371579834     
   1.1400000000000000E-002     4.7594409705737855     
   1.1700000000000002E-002     5.7673369053596550     
   1.2000000000000004E-002     6.7642255414579440     
   1.2300000000000002E-002     7.6581574128841448     
   1.2600000000000000E-002     8.3624220635393574     
   1.2900000000000002E-002     8.8029757395927106     
   1.3200000000000000E-002     8.9270964613195503     
   1.3500000000000002E-002     8.7087889725908170     
   1.3800000000000003E-002     8.1485110356125396     
   1.4100000000000001E-002     7.2745696110859175     
   1.4400000000000000E-002     6.1382361375163432     
   1.4700000000000001E-002     4.8083368134538054     
   1.4999999999999999E-002     3.3678784990987358     
   1.5300000000000001E-002     1.9028565116840499     
   1.5600000000000003E-002    0.49704982957089450     
   1.5899999999999997E-002   -0.77188646817449613     
   1.6199999999999999E-002    -1.8425959554230813     
   1.6500000000000001E-002    -2.6699042706334932     
   1.6800000000000002E-002    -3.2270036273071296     
   1.7100000000000004E-002    -3.5085178053031845     
   1.7400000000000006E-002    -3.5263274403265705     
   1.7700000000000000E-002    -3.3079345920393597     
   1.8000000000000002E-002    -2.8947086994483890     
   1.8300000000000004E-002    -2.3351634136880715     
   1.8600000000000005E-002    -1.6837728514928656     
   1.8900000000000000E-002   -0.99400053229081198     
   1.9200000000000002E-002   -0.31646331751006862     
   1.9500000000000003E-002    0.30292277063782574     
   1.9799999999999998E-002    0.82770329232135109     
   2.0100000000000000E-002     1.2303843531081611     
   2.0400000000000001E-002     1.4917633619398776     
   2.0700000000000003E-002     1.6051607247996642     
   2.0999999999999998E-002     1.5710619807636026     
   2.1299999999999999E-002     1.3991669515399681     
   2.1600000000000001E-002     1.1068538484150603     
   2.1900000000000003E-002    0.71733468739092576     
   2.2200000000000004E-002    0.25885682526209020     
   2.2500000000000006E-002   -0.23658098377149014     
   2.2800000000000001E-002   -0.73601468862566299     
   2.3100000000000002E-002    -1.2061932413947849     
   2.3400000000000004E-002    -1.6165291472007115     
   2.3699999999999999E-002    -1.9403653605101752     
   2.4000000000000000E-002    -2.1569498083899981     
   2.4300000000000002E-002    -2.2535672701914762     
   2.4599999999999997E-002    -2.2256293800450813     
   2.4900000000000005E-002    -2.0779228678808463     
   2.5200000000000000E-002    -1.8228412083770063     
   2.5499999999999995E-002    -1.4806441400612385     
   2.5800000000000003E-002    -1.0770795588509476     
   2.6099999999999998E-002   -0.64037026460444080     
   2.6400000000000007E-002   -0.19995329332855327     
   2.6700000000000002E-002    0.21621661195032216     
   2.6999999999999996E-002    0.58443052617215829     
   2.7300000000000005E-002    0.88622589549979069     
   2.7600000000000000E-002     1.1083682979175633     
   2.7900000000000008E-002     1.2449615229457021     
   2.8200000000000003E-002     1.2958669899232744     
   2.8499999999999998E-002     1.2655760279641159     
   2.8800000000000006E-002     1.1640725346933620     
   2.9100000000000001E-002     1.0038312856695804     
   2.9400000000000003E-002    0.79853029506454021     
   2.9700000000000004E-002    0.56469203063773177     
   3.0000000000000006E-002    0.31787282787404891     
   3.0300000000000001E-002     7.3177122398987007E-002
   3.0600000000000002E-002   -0.15479131402550128     
   3.0900000000000004E-002   -0.35379380734332699     
   3.1199999999999999E-002   -0.51354194740117975     
   3.1500000000000007E-002   -0.62597830334629290     
   3.1800000000000002E-002   -0.68715990889265222     
   3.2099999999999997E-002   -0.69502301249264475     
   3.2400000000000005E-002   -0.65152163342536962     
   3.2700000000000000E-002   -0.56152404097711417     
   3.3000000000000002E-002   -0.43213117504001747     
   3.3300000000000003E-002   -0.27306371914034722     
   3.3599999999999998E-002    -9.4848800033455791E-002
   3.3900000000000000E-002     9.1548301854584208E-002
   3.4200000000000001E-002    0.27502251838262837     
   3.4500000000000003E-002    0.44508065284989246     
   3.4799999999999998E-002    0.59293629555501581     
   3.5099999999999999E-002    0.70977874719221279     
   3.5400000000000001E-002    0.78969546575104643     
   3.5699999999999996E-002    0.82740589672156439     
   3.6000000000000004E-002    0.81903800285784234     
   3.6299999999999999E-002    0.76350721791322040     
   3.6600000000000008E-002    0.66046562888495319     
   3.6900000000000002E-002    0.51228710924787879     
   3.7199999999999997E-002    0.32552042129045267     
   3.7500000000000006E-002    0.10797082982573726     
   3.7800000000000000E-002   -0.12863438430263119     
   3.8100000000000009E-002   -0.36849805970005894     
   3.8400000000000004E-002   -0.59598584582787029     
   3.8699999999999998E-002   -0.79188182949890962     
   3.9000000000000007E-002   -0.93773601740805668     
   3.9300000000000002E-002    -1.0182554064124785     
   3.9600000000000003E-002    -1.0198442348317422     
   3.9900000000000005E-002   -0.93499237578248384     
   4.0200000000000000E-002   -0.76391524034329339     
   4.0500000000000001E-002   -0.51166950689256585     
   4.0800000000000003E-002   -0.19260234202625204     
   4.1100000000000005E-002    0.17245931728338118     
   4.1399999999999999E-002    0.55888641358071867     
   4.1700000000000008E-002    0.93675765125009136     
   4.2000000000000003E-002     1.2760204555800556     
   4.2299999999999997E-002     1.5499752226095680     
   4.2600000000000006E-002     1.7333927938565936     
   4.2900000000000001E-002     1.8096238027175711     
   4.3200000000000002E-002     1.7707636002604488     
   4.3500000000000004E-002     1.6152455371367791     
   4.3799999999999999E-002     1.3535302295823599     
   4.4100000000000000E-002     1.0043651281376547     
   4.4400000000000002E-002    0.59091087016393984     
   4.4700000000000004E-002    0.14360983016373011     
   4.4999999999999998E-002   -0.30579033544280015     
   4.5300000000000000E-002   -0.72802864727176964     
   4.5600000000000002E-002    -1.0947538111882038     
   4.5899999999999996E-002    -1.3842959015821421     
   4.6200000000000005E-002    -1.5839519172084606     
   4.6500000000000000E-002    -1.6853449009988193     
   4.6799999999999994E-002    -1.6915034854034199     
   4.7100000000000003E-002    -1.6115736465272956     
   4.7399999999999998E-002    -1.4589762053355890     
   4.7700000000000006E-002    -1.2530790966683736     
   4.8000000000000001E-002    -1.0155167819551398     
   4.8300000000000010E-002   -0.76449478466994869     
   4.8600000000000004E-002   -0.52067434157184189     
   4.8899999999999999E-002   -0.29917196565071569     
   4.9200000000000008E-002   -0.11102686933915375     
   4.9500000000000002E-002     3.5560089216800699E-002
   4.9800000000000011E-002    0.13737138811908314     
   5.0100000000000006E-002    0.19539071677359846     
   5.0400000000000000E-002    0.21307209371394634     
   5.0700000000000009E-002    0.19599782183046519     
   5.1000000000000004E-002    0.15252582885905408     
   5.1299999999999998E-002     9.0924903112093697E-002
   5.1600000000000007E-002     1.9904426957867188E-002
   5.1900000000000002E-002    -5.0965049094475252E-002
   5.2200000000000010E-002   -0.11386143236338897     
   5.2500000000000005E-002   -0.16233994465706006     
   5.2800000000000000E-002   -0.18958155299807591     
   5.3099999999999994E-002   -0.19317476563416691     
   5.3400000000000003E-002   -0.17096307097639707     
   5.3699999999999998E-002   -0.12297831989241971     
   5.4000000000000006E-002    -5.2905305247645043E-002
   5.4300000000000001E-002     3.5207897904360110E-002
   5.4599999999999996E-002    0.13514037879745161     
   5.4900000000000004E-002    0.23970337394191332     
   5.5199999999999999E-002    0.34183053670037228     
   5.5499999999999994E-002    0.43411923814528763     
   5.5800000000000002E-002    0.51082877629224477     
   5.6099999999999997E-002    0.56663070429587825     
   5.6400000000000006E-002    0.59863255766054690     
   5.6700000000000000E-002    0.60620294469991964     
   5.6999999999999995E-002    0.58820830354211295     
   5.7300000000000004E-002    0.54791610182129069     
   5.7599999999999998E-002    0.48793150925284529     
   5.7900000000000007E-002    0.41128080204853190     
   5.8200000000000002E-002    0.32418864286015636     
   5.8499999999999996E-002    0.23077168551688690     
   5.8800000000000005E-002    0.13553097443663656     
   5.9100000000000000E-002     4.4438064648579710E-002
   5.9400000000000008E-002    -3.8453879805659466E-002
   5.9700000000000003E-002   -0.10966335557180844     
   6.0000000000000012E-002   -0.16498783598219627     
   6.0300000000000006E-002   -0.20265254827458626     
   6.0600000000000001E-002   -0.22134382071048980     
   6.0900000000000010E-002   -0.22069562091809733     
   6.1200000000000004E-002   -0.20142475415045519     
   6.1500000000000013E-002   -0.16635156351537930     
   6.1800000000000008E-002   -0.11728826808112205     
   6.2100000000000002E-002    -5.8178408315054504E-002
   6.2399999999999997E-002     6.8090804519934734E-003
   6.2700000000000006E-002     7.4776742278599109E-002
   6.3000000000000000E-002    0.14118119762408024     
   6.3300000000000009E-002    0.20315301198245925     
   6.3600000000000004E-002    0.25848695523375959     
   6.3899999999999998E-002    0.30414596160532947     
   6.4199999999999993E-002    0.33897590664435501     
   6.4500000000000002E-002    0.36191690067698107     
   6.4800000000000010E-002    0.37156760835956548     
   6.5100000000000005E-002    0.36785179561451059     
   6.5400000000000000E-002    0.35076353177450326     
   6.5700000000000008E-002    0.32015380496228546     
   6.5999999999999989E-002    0.27722954988299703     
   6.6299999999999998E-002    0.22321599949353763     
   6.6600000000000006E-002    0.16001664302428248     
   6.6900000000000001E-002     9.0165311227684244E-002
   6.7199999999999996E-002     1.7003397791328003E-002
   6.7500000000000004E-002    -5.6274510072721010E-002
   6.7800000000000013E-002   -0.12586191237260236     
   6.8099999999999994E-002   -0.18853509378224625     
   6.8400000000000002E-002   -0.24126960281001666     
   6.8700000000000011E-002   -0.28157943402450036     
   6.8999999999999992E-002   -0.30805888642709295     
   6.9300000000000000E-002   -0.32001808108432978     
   6.9600000000000009E-002   -0.31756177305779432     
   6.9900000000000004E-002   -0.30239936421959546     
   7.0199999999999999E-002   -0.27607082990683263     
   7.0500000000000007E-002   -0.24120327476355485     
   7.0800000000000016E-002   -0.20060430092558518     
   7.1099999999999997E-002   -0.15801003214183060     
   7.1400000000000005E-002   -0.11581834788151085     
   7.1700000000000000E-002    -7.7817049211791264E-002
   7.1999999999999995E-002    -4.6172001043077671E-002
   7.2300000000000003E-002    -2.2675799920923743E-002
   7.2600000000000012E-002    -9.2920819790598408E-003
   7.2900000000000006E-002    -6.0099017024046386E-003
   7.3200000000000001E-002    -1.2431475827140485E-002
   7.3499999999999996E-002    -2.7838705093937273E-002
   7.3800000000000004E-002    -4.9187006634284873E-002
   7.4099999999999999E-002    -7.4690959139718877E-002
   7.4400000000000008E-002   -0.10117908504235693     
   7.4700000000000003E-002   -0.12458793036306381     
   7.5000000000000011E-002   -0.14355552219544793     
   7.5299999999999992E-002   -0.15467478401169618     
   7.5600000000000001E-002   -0.15621434249732202     
   7.5900000000000009E-002   -0.14809332928979452     
   7.6200000000000004E-002   -0.12967682047248652     
   7.6499999999999999E-002   -0.10260620901480456     
   7.6800000000000007E-002    -6.8467291312005171E-002
   7.7099999999999988E-002    -2.9335458118702969E-002
   7.7399999999999997E-002     1.1498299890418657E-002
   7.7700000000000005E-002     5.1886343957034523E-002
   7.8000000000000014E-002     8.8476603589902711E-002
   7.8299999999999995E-002    0.11898144143298181     
   7.8600000000000003E-002    0.14181919256266126     
   7.8900000000000012E-002    0.15491801409652095     
   7.9199999999999993E-002    0.15777312195688370     
   7.9500000000000001E-002    0.15037603734175678     
   7.9800000000000010E-002    0.13310252268413128     
   8.0100000000000018E-002    0.10708135574461945     
   8.0399999999999999E-002     7.4412996842049745E-002
   8.0700000000000008E-002     3.7177953350392479E-002
   8.1000000000000003E-002    -2.0067703622827777E-003
   8.1299999999999997E-002    -4.0260754720926994E-002
   8.1600000000000006E-002    -7.4764434552143808E-002
   8.1900000000000014E-002   -0.10347853303816727     
   8.2199999999999995E-002   -0.12370954944582484     
   8.2500000000000004E-002   -0.13471101031737098     
   8.2799999999999999E-002   -0.13569706561918116     
   8.3100000000000007E-002   -0.12608991510683681     
   8.3400000000000002E-002   -0.10746523027688661     
   8.3700000000000011E-002    -8.0819958099998132E-002
   8.4000000000000005E-002    -4.8038804876993170E-002
   8.4300000000000000E-002    -1.1658925317523270E-002
   8.4599999999999995E-002     2.6146000774923111E-002
   8.4900000000000003E-002     6.3449803912421249E-002
   8.5199999999999998E-002     9.7266513719710929E-002
   8.5500000000000007E-002    0.12576379976779620     
   8.5800000000000001E-002    0.14786195393548857     
   8.6100000000000010E-002    0.16149495219872315     
   8.6399999999999991E-002    0.16606302297529091     
   8.6699999999999999E-002    0.16151511498857729     
   8.7000000000000008E-002    0.14732839090043540     
   8.7300000000000003E-002    0.12394113845094216     
   8.7599999999999997E-002     9.3096853426076362E-002
   8.7900000000000006E-002     5.5075073629765062E-002
   8.8200000000000014E-002     1.1846993797655688E-002
   8.8499999999999995E-002    -3.4403298519672297E-002
   8.8800000000000004E-002    -8.2463335324010525E-002
   8.9100000000000013E-002   -0.13008176881072134     
   8.9399999999999993E-002   -0.17542720892996622     
   8.9700000000000002E-002   -0.21741625214683796     
   9.0000000000000011E-002   -0.25417023432340485     
   9.0299999999999991E-002   -0.28430383916093843     
   9.0600000000000000E-002   -0.30732914340775247     
   9.0900000000000009E-002   -0.32166122941523484     
   9.1200000000000017E-002   -0.32645496304785016     
   9.1499999999999998E-002   -0.32122325538091262     
   9.1800000000000007E-002   -0.30465268788927785     
   9.2100000000000001E-002   -0.27667003643446486     
   9.2399999999999996E-002   -0.23734365269296753     
   9.2700000000000005E-002   -0.18678206154676891     
   9.3000000000000013E-002   -0.12635737689817972     
   9.3300000000000008E-002    -5.7872121436450229E-002
   9.3600000000000003E-002     1.6233509373095027E-002
   9.3899999999999997E-002     9.3061392508368007E-002
   9.4200000000000006E-002    0.16879252777171522     
   9.4500000000000001E-002    0.24005749453210001     
   9.4800000000000009E-002    0.30343707980311618     
   9.5100000000000004E-002    0.35575866235478454     
   9.5399999999999999E-002    0.39459025339825249     
   9.5699999999999993E-002    0.41935944020712146     
   9.6000000000000002E-002    0.42827319523413471     
   9.6300000000000011E-002    0.42222129701394495     
   9.6600000000000005E-002    0.40287011284617202     
   9.6900000000000000E-002    0.37081702966686397     
   9.7200000000000009E-002    0.32945805244345233     
   9.7499999999999989E-002    0.28130569564389218     
   9.7799999999999998E-002    0.22827876644633732     
   9.8100000000000007E-002    0.17415399447086252     
   9.8400000000000015E-002    0.12093475859560325     
   9.8699999999999996E-002     7.0530366592392132E-002
   9.9000000000000005E-002     2.6534590071249264E-002
   9.9300000000000013E-002    -1.0933047711508844E-002
   9.9599999999999994E-002    -4.0011344718979928E-002
   9.9900000000000003E-002    -5.9775756385693567E-002
  0.10020000000000001         -7.0819893079173885E-002
  0.10049999999999999         -7.3247165066079492E-002
  0.10080000000000000         -6.7731685672348829E-002
  0.10110000000000001         -5.6524856918878374E-002
  0.10140000000000000         -4.1132735262626834E-002
  0.10170000000000000         -2.3642289824216369E-002
  0.10200000000000001         -6.2395434107639924E-003
  0.10230000000000002          8.8002603760403073E-003
  0.10260000000000000          2.0315485005219163E-002
  0.10290000000000001          2.6596870272215498E-002
  0.10320000000000000          2.6575714139021236E-002
  0.10350000000000001          2.0606500767826594E-002
  0.10380000000000000          7.6669033127230533E-003
  0.10410000000000001         -1.0854569318695044E-002
  0.10440000000000001         -3.4181819553068718E-002
  0.10470000000000000         -6.1706455133354168E-002
  0.10500000000000000         -9.1260103473569304E-002
  0.10530000000000000        -0.12151732869924370     
  0.10560000000000000        -0.15113375951054234     
  0.10590000000000001        -0.17731103191701489     
  0.10620000000000000        -0.19912885053538398     
  0.10650000000000001        -0.21486787458918066     
  0.10679999999999999        -0.22273877233650025     
  0.10710000000000000        -0.22268414487816168     
  0.10740000000000001        -0.21410171679075379     
  0.10770000000000000        -0.19733127926261973     
  0.10800000000000000        -0.17310145430390975     
  0.10830000000000001        -0.14320865173806657     
  0.10859999999999999        -0.10883556155313993     
  0.10890000000000000         -7.2015708165038161E-002
  0.10920000000000001         -3.4733766212932643E-002
  0.10950000000000001          2.0497373958569412E-003
  0.10979999999999999          3.7140286339024040E-002
  0.11009999999999999          6.9662811752286058E-002
  0.11040000000000001          9.9459299924394076E-002
  0.11070000000000001         0.12656624754989826     
  0.11100000000000000         0.15094429312754781     
  0.11130000000000000         0.17295998313454058     
  0.11160000000000002         0.19215017440695198     
  0.11190000000000001         0.20829418098386634     
  0.11220000000000001         0.22017281941895256     
  0.11250000000000000         0.22729330867212921     
  0.11280000000000000         0.22792534051212318     
  0.11309999999999999         0.22138989911569676     
  0.11340000000000001         0.20664460352941427     
  0.11369999999999998         0.18278380582129608     
  0.11400000000000000         0.15009484531442735     
  0.11430000000000000         0.10907147205621838     
  0.11460000000000002          6.0318661850175134E-002
  0.11489999999999999          5.9153271202347178E-003
  0.11520000000000001         -5.2054031957607438E-002
  0.11550000000000001        -0.11191816763543309     
  0.11580000000000000        -0.17073534364762341     
  0.11609999999999999        -0.22615577012498253     
  0.11640000000000002        -0.27587994470915511     
  0.11670000000000001        -0.31771474444717124     
  0.11700000000000001        -0.34927826327243028     
  0.11730000000000000        -0.37012275161588509     
  0.11760000000000000        -0.37882645959628963     
  0.11789999999999999        -0.37491082149301153     
  0.11820000000000001        -0.35952969413516339     
  0.11850000000000001        -0.33290474681271487     
  0.11880000000000000        -0.29688610775984631     
  0.11910000000000000        -0.25412999850313944     
  0.11940000000000002        -0.20626271644284688     
  0.11970000000000001        -0.15650920091091433     
  0.12000000000000001        -0.10762496731870652     
  0.12030000000000000         -6.0603002274546659E-002
  0.12060000000000000         -1.8498893751617972E-002
  0.12089999999999999          1.7946063009436658E-002
  0.12119999999999999          4.8684244166922810E-002
  0.12150000000000001          7.2851505047673196E-002
  0.12180000000000001          9.1504591541994112E-002
  0.12210000000000000         0.10579754657853203     
  0.12239999999999999         0.11606189826742100     
  0.12270000000000002         0.12399883803751835     
  0.12300000000000001         0.13015986508954516     
  0.12330000000000001         0.13505000943514861     
  0.12360000000000000         0.13944257441962249     
  0.12390000000000000         0.14296824936145475     
  0.12419999999999999         0.14565254518045337     
  0.12450000000000001         0.14679084547232277     
  0.12480000000000001         0.14530539382256463     
  0.12509999999999999         0.14098197136869173     
  0.12540000000000001         0.13311648334881279     
  0.12570000000000003         0.12037648991292987     
  0.12600000000000000         0.10364542939897571     
  0.12630000000000002          8.2141198949681596E-002
  0.12659999999999999          5.6679048693977420E-002
  0.12690000000000001          2.8716163279155021E-002
  0.12719999999999998         -6.0640237995857450E-004
  0.12750000000000000         -2.9222509023569765E-002
  0.12780000000000002         -5.4371854370837386E-002
  0.12809999999999999         -7.4143072934574408E-002
  0.12840000000000001         -8.5902637567650389E-002
  0.12869999999999998         -8.7719037450423420E-002
  0.12900000000000000         -7.8218385569394408E-002
  0.12930000000000003         -5.6405876504582453E-002
  0.12959999999999999         -2.2876796860458216E-002
  0.12990000000000002          2.1546577713515432E-002
  0.13019999999999998          7.4412998572829667E-002
  0.13050000000000000         0.13319177559943232     
  0.13080000000000003         0.19462351081142537     
  0.13109999999999999         0.25450288764156043     
  0.13140000000000002         0.30998119192139145     
  0.13169999999999998         0.35711898853427160     
  0.13200000000000001         0.39271678946287075     
  0.13229999999999997         0.41527214079236241     
  0.13260000000000000         0.42269938631886744     
  0.13290000000000002         0.41440978115910143     
  0.13319999999999999         0.39125006917213478     
  0.13350000000000001         0.35343485654805384     
  0.13380000000000003         0.30264934540112698     
  0.13410000000000000         0.24177027961340450     
  0.13440000000000002         0.17300054230015116     
  0.13469999999999999          9.9140448971134651E-002
  0.13500000000000001          2.3804595003153080E-002
  0.13529999999999998         -5.0137862536127328E-002
  0.13560000000000000        -0.12043699577543303     
  0.13590000000000002        -0.18342576814548150     
  0.13619999999999999        -0.23747818009974603     
  0.13650000000000001        -0.28117793602515845     
  0.13680000000000003        -0.31209423871610187     
  0.13710000000000000        -0.33100306679905855     
  0.13740000000000002        -0.33718338266809383     
  0.13769999999999999        -0.33014356683932006     
  0.13800000000000001        -0.31208872373312196     
  0.13829999999999998        -0.28307771244577901     
  0.13860000000000000        -0.24462848451927399     
  0.13890000000000002        -0.19915006630172086     
  0.13919999999999999        -0.14800934108423766     
  0.13950000000000001         -9.3287635914700753E-002
  0.13979999999999998         -3.7978326227880527E-002
  0.14010000000000000          1.6304794565095659E-002
  0.14040000000000002          6.6607625037668566E-002
  0.14069999999999999         0.11065310215563633     
  0.14100000000000001         0.14603584869623387     
  0.14130000000000004         0.17162628250420639     
  0.14160000000000000         0.18553852726297201     
  0.14189999999999997         0.18709888672158309     
  0.14219999999999999         0.17673456250254460     
  0.14250000000000002         0.15451444242632120     
  0.14279999999999998         0.12211956388448530     
  0.14310000000000000          8.1901896572079649E-002
  0.14339999999999997          3.5559010179618662E-002
  0.14369999999999999         -1.3673977564017564E-002
  0.14400000000000002         -6.2756584309437979E-002
  0.14429999999999998        -0.10959637167253604     
  0.14460000000000001        -0.15151688335488223     
  0.14490000000000003        -0.18600378672173426     
  0.14520000000000000        -0.21251782412321027     
  0.14550000000000002        -0.22975579937554758     
  0.14579999999999999        -0.23734943028505276     
  0.14610000000000001        -0.23644840138571627     
  0.14640000000000003        -0.22744130486057909     
  0.14670000000000000        -0.21167100354211224     
  0.14699999999999996        -0.19136998964934643     
  0.14729999999999999        -0.16763775990719743     
  0.14760000000000001        -0.14247121903908017     
  0.14789999999999998        -0.11766176979375884     
  0.14820000000000000         -9.3861449471252356E-002