  -1.4999999999999999E-002     0.0000000000000000     
  -1.4700000000000000E-002     0.0000000000000000     
  -1.4400000000000000E-002     0.0000000000000000     
  -1.4100000000000000E-002     0.0000000000000000     
  -1.3800000000000000E-002     0.0000000000000000     
  -1.3500000000000000E-002     0.0000000000000000     
  -1.3200000000000000E-002     0.0000000000000000     
  -1.2899999999999998E-002     0.0000000000000000     
  -1.2600000000000000E-002     0.0000000000000000     
  -1.2299999999999998E-002     0.0000000000000000     
  -1.2000000000000000E-002     0.0000000000000000     
  -1.1699999999999999E-002     0.0000000000000000     
  -1.1399999999999999E-002     0.0000000000000000     
  -1.1099999999999999E-002     0.0000000000000000     
  -1.0799999999999999E-002     0.0000000000000000     
  -1.0499999999999999E-002     0.0000000000000000     
  -1.0199999999999999E-002     0.0000000000000000     
  -9.8999999999999991E-003     0.0000000000000000     
  -9.5999999999999992E-003     0.0000000000000000     
  -9.2999999999999992E-003     0.0000000000000000     
  -8.9999999999999993E-003     0.0000000000000000     
  -8.6999999999999994E-003     0.0000000000000000     
  -8.3999999999999995E-003     0.0000000000000000     
  -8.0999999999999996E-003     0.0000000000000000     
  -7.7999999999999988E-003     0.0000000000000000     
  -7.4999999999999997E-003     0.0000000000000000     
  -7.1999999999999998E-003     0.0000000000000000     
  -6.8999999999999981E-003     0.0000000000000000     
  -6.5999999999999982E-003     0.0000000000000000     
  -6.3000000000000000E-003     0.0000000000000000     
  -6.0000000000000001E-003     0.0000000000000000     
  -5.6999999999999985E-003     0.0000000000000000     
  -5.3999999999999986E-003     0.0000000000000000     
  -5.1000000000000004E-003     0.0000000000000000     
  -4.7999999999999987E-003     0.0000000000000000     
  -4.5000000000000005E-003     0.0000000000000000     
  -4.1999999999999989E-003     0.0000000000000000     
  -3.8999999999999990E-003     0.0000000000000000     
  -3.5999999999999990E-003     0.0000000000000000     
  -3.2999999999999991E-003     0.0000000000000000     
  -2.9999999999999992E-003     0.0000000000000000     
  -2.6999999999999993E-003     0.0000000000000000     
  -2.3999999999999994E-003     0.0000000000000000     
  -2.0999999999999977E-003     0.0000000000000000     
  -1.7999999999999995E-003     0.0000000000000000     
  -1.4999999999999979E-003     0.0000000000000000     
  -1.1999999999999997E-003     0.0000000000000000     
  -8.9999999999999976E-004     0.0000000000000000     
  -5.9999999999999810E-004     0.0000000000000000     
  -2.9999999999999992E-004     0.0000000000000000     
   0.0000000000000000          0.0000000000000000     
   3.0000000000000165E-004     0.0000000000000000     
   5.9999999999999984E-004     0.0000000000000000     
   9.0000000000000149E-004     0.0000000000000000     
   1.2000000000000031E-003     0.0000000000000000     
   1.5000000000000013E-003     0.0000000000000000     
   1.8000000000000030E-003     0.0000000000000000     
   2.1000000000000012E-003     0.0000000000000000     
   2.3999999999999994E-003     0.0000000000000000     
   2.7000000000000010E-003     0.0000000000000000     
   2.9999999999999992E-003     0.0000000000000000     
   3.3000000000000008E-003     0.0000000000000000     
   3.6000000000000025E-003     0.0000000000000000     
   3.9000000000000007E-003     0.0000000000000000     
   4.2000000000000023E-003     0.0000000000000000     
   4.5000000000000005E-003     0.0000000000000000     
   4.7999999999999987E-003     0.0000000000000000     
   5.1000000000000004E-003     0.0000000000000000     
   5.4000000000000020E-003     0.0000000000000000     
   5.7000000000000037E-003     0.0000000000000000     
   5.9999999999999984E-003     0.0000000000000000     
   6.3000000000000000E-003     0.0000000000000000     
   6.6000000000000017E-003     0.0000000000000000     
   6.9000000000000034E-003     0.0000000000000000     
   7.2000000000000015E-003     0.0000000000000000     
   7.5000000000000032E-003     0.0000000000000000     
   7.8000000000000014E-003     0.0000000000000000     
   8.0999999999999996E-003     0.0000000000000000     
   8.4000000000000012E-003     0.0000000000000000     
   8.7000000000000029E-003     0.0000000000000000     
   9.0000000000000011E-003     0.0000000000000000     
   9.2999999999999992E-003     0.0000000000000000     
   9.6000000000000009E-003     0.0000000000000000     
   9.8999999999999991E-003     0.0000000000000000     
   1.0200000000000001E-002     0.0000000000000000     
   1.0500000000000002E-002     0.0000000000000000     
   1.0800000000000004E-002     0.0000000000000000     
   1.1099999999999999E-002     0.0000000000000000     
   1.1400000000000000E-002     0.0000000000000000     
   1.1700000000000002E-002     0.0000000000000000     
   1.2000000000000004E-002     0.0000000000000000     
   1.2300000000000002E-002     0.0000000000000000     
   1.2600000000000000E-002     0.0000000000000000     
   1.2900000000000002E-002     0.0000000000000000     
   1.3200000000000000E-002     0.0000000000000000     
   1.3500000000000002E-002     0.0000000000000000     
   1.3800000000000003E-002     0.0000000000000000     
   1.4100000000000001E-002     0.0000000000000000     
   1.4400000000000000E-002     0.0000000000000000     
   1.4700000000000001E-002     0.0000000000000000     
   1.4999999999999999E-002     0.0000000000000000     
   1.5300000000000001E-002     0.0000000000000000     
   1.5600000000000003E-002     0.0000000000000000     
   1.5899999999999997E-002     0.0000000000000000     
   1.6199999999999999E-002     0.0000000000000000     
   1.6500000000000001E-002     0.0000000000000000     
   1.6800000000000002E-002     0.0000000000000000     
   1.7100000000000004E-002     0.0000000000000000     
   1.7400000000000006E-002     0.0000000000000000     
   1.7700000000000000E-002     0.0000000000000000     
   1.8000000000000002E-002     0.0000000000000000     
   1.8300000000000004E-002     0.0000000000000000     
   1.8600000000000005E-002     0.0000000000000000     
   1.8900000000000000E-002     0.0000000000000000     
   1.9200000000000002E-002     0.0000000000000000     
   1.9500000000000003E-002     0.0000000000000000     
   1.9799999999999998E-002     0.0000000000000000     
   2.0100000000000000E-002     0.0000000000000000     
   2.0400000000000001E-002     0.0000000000000000     
   2.0700000000000003E-002     0.0000000000000000     
   2.0999999999999998E-002     0.0000000000000000     
   2.1299999999999999E-002     0.0000000000000000     
   2.1600000000000001E-002     0.0000000000000000     
   2.1900000000000003E-002     0.0000000000000000     
   2.2200000000000004E-002     0.0000000000000000     
   2.2500000000000006E-002     0.0000000000000000     
   2.2800000000000001E-002     0.0000000000000000     
   2.3100000000000002E-002     0.0000000000000000     
   2.3400000000000004E-002     0.0000000000000000     
   2.3699999999999999E-002     0.0000000000000000     
   2.4000000000000000E-002     0.0000000000000000     
   2.4300000000000002E-002     0.0000000000000000     
   2.4599999999999997E-002     0.0000000000000000     
   2.4900000000000005E-002     0.0000000000000000     
   2.5200000000000000E-002     0.0000000000000000     
   2.5499999999999995E-002     0.0000000000000000     
   2.5800000000000003E-002     0.0000000000000000     
   2.6099999999999998E-002     0.0000000000000000     
   2.6400000000000007E-002     0.0000000000000000     
   2.6700000000000002E-002     0.0000000000000000     
   2.6999999999999996E-002     0.0000000000000000     
   2.7300000000000005E-002     0.0000000000000000     
   2.7600000000000000E-002     0.0000000000000000     
   2.7900000000000008E-002     0.0000000000000000     
   2.8200000000000003E-002     0.0000000000000000     
   2.8499999999999998E-002     0.0000000000000000     
   2.8800000000000006E-002     0.0000000000000000     
   2.9100000000000001E-002     0.0000000000000000     
   2.9400000000000003E-002     0.0000000000000000     
   2.9700000000000004E-002     0.0000000000000000     
   3.0000000000000006E-002     0.0000000000000000     
   3.0300000000000001E-002     0.0000000000000000     
   3.0600000000000002E-002     0.0000000000000000     
   3.0900000000000004E-002     0.0000000000000000     
   3.1199999999999999E-002     0.0000000000000000     
   3.1500000000000007E-002     0.0000000000000000     
   3.1800000000000002E-002     0.0000000000000000     
   3.2099999999999997E-002     0.0000000000000000     
   3.2400000000000005E-002     0.0000000000000000     
   3.2700000000000000E-002     0.0000000000000000     
   3.3000000000000002E-002     0.0000000000000000     
   3.3300000000000003E-002     0.0000000000000000     
   3.3599999999999998E-002     0.0000000000000000     
   3.3900000000000000E-002     0.0000000000000000     
   3.4200000000000001E-002     0.0000000000000000     
   3.4500000000000003E-002    -2.4721075738492844E-044
   3.4799999999999998E-002     1.5011838430276531E-042
   3.5099999999999999E-002    -3.2612430983406606E-042
   3.5400000000000001E-002     3.4075293571573408E-041
   3.5699999999999996E-002    -1.7429005997922882E-037
   3.6000000000000004E-002     1.2335873107946971E-036
   3.6299999999999999E-002    -5.4380730719305433E-037
   3.6600000000000008E-002    -1.6292470340173435E-035
   3.6900000000000002E-002     2.7276807385851024E-035
   3.7199999999999997E-002     3.4276624656419314E-034
   3.7500000000000006E-002    -2.3443353114090358E-033
   3.7800000000000000E-002     7.4952280015314681E-033
   3.8100000000000009E-002    -1.8320306106748883E-032
   3.8400000000000004E-002     3.4710016852160985E-032
   3.8699999999999998E-002    -2.1157785010876560E-032
   3.9000000000000007E-002    -2.8306170177507006E-031
   3.9300000000000002E-002     2.1839611767798771E-030
   3.9600000000000003E-002    -1.1251937934236928E-029
   3.9900000000000005E-002     4.8677213893534202E-029
   4.0200000000000000E-002    -1.8771026091123352E-028
   4.0500000000000001E-002     6.5976562706483702E-028
   4.0800000000000003E-002    -2.1306569454929749E-027
   4.1100000000000005E-002     6.3206208761984258E-027
   4.1399999999999999E-002    -1.7081594362833284E-026
   4.1700000000000008E-002     4.1143988864772285E-026
   4.2000000000000003E-002    -8.3393604066974617E-026
   4.2299999999999997E-002     1.1513832357095848E-025
   4.2600000000000006E-002     6.0522757026826434E-026
   4.2900000000000001E-002    -1.2818594896026574E-024
   4.3200000000000002E-002     6.4644375633414363E-024
   4.3500000000000004E-002    -2.4217782652156399E-023
   4.3799999999999999E-002     7.5169017330306198E-023
   4.4100000000000000E-002    -1.9171806861819740E-022
   4.4400000000000002E-002     3.5783400046625413E-022
   4.4700000000000004E-002    -2.0962183142043250E-022
   4.4999999999999998E-002    -1.8755965449580371E-021
   4.5300000000000000E-002     1.0433690152116201E-020
   4.5600000000000002E-002    -3.2726921031562535E-020
   4.5899999999999996E-002     6.4710163887810561E-020
   4.6200000000000005E-002    -3.5128974407361553E-020
   4.6500000000000000E-002    -3.0797304615198857E-019
   4.6799999999999994E-002     1.4142452603156277E-018
   4.7100000000000003E-002    -3.1781092563506140E-018
   4.7399999999999998E-002     2.1943033427840258E-018
   4.7700000000000006E-002     1.2278108806150726E-017
   4.8000000000000001E-002    -5.2902469595806278E-017
   4.8300000000000010E-002     9.1065833992365746E-017
   4.8600000000000004E-002     3.6112161490030444E-017
   4.8899999999999999E-002    -6.1673857686317783E-016
   4.9200000000000008E-002     1.4639655016699574E-015
   4.9500000000000002E-002    -4.1708374188124885E-016
   4.9800000000000011E-002    -6.7771047400150991E-015
   5.0100000000000006E-002     1.7954318782426552E-014
   5.0400000000000000E-002    -4.8473259151426834E-015
   5.0700000000000009E-002    -8.0383448781898991E-014
   5.1000000000000004E-002     1.8248765340752660E-013
   5.1299999999999998E-002     5.2475958233610608E-014
   5.1600000000000007E-002    -9.6346249097694085E-013
   5.1900000000000002E-002     1.3187820825759743E-012
   5.2200000000000010E-002     2.4543512306371860E-012
   5.2500000000000005E-002    -9.4053865411540940E-012
   5.2800000000000000E-002     1.1201616562650115E-012
   5.3099999999999994E-002     3.9864255018374698E-011
   5.3400000000000003E-002    -4.6797305830067509E-011
   5.3699999999999998E-002    -1.2453040108577465E-010
   5.4000000000000006E-002     2.9662123409440305E-010
   5.4300000000000001E-002     2.9843640164237744E-010
   5.4599999999999996E-002    -1.3616847350679317E-009
   5.4900000000000004E-002    -5.3586152998242700E-010
   5.5199999999999999E-002     5.4346675744423246E-009
   5.5499999999999994E-002     8.3621322881486263E-010
   5.5800000000000002E-002    -2.0322347868156728E-008
   5.6099999999999997E-002    -4.5225835037846174E-009
   5.6400000000000006E-002     6.9799571235658921E-008
   5.6700000000000000E-002     3.5208706824232237E-008
   5.6999999999999995E-002    -2.2693496568361937E-007
   5.7300000000000004E-002    -2.4929520140564328E-007
   5.7599999999999998E-002     7.5692927998660388E-007
   5.7900000000000007E-002     2.6773634643180863E-006
   5.8200000000000002E-002     4.3778631779371342E-006
   5.8499999999999996E-002     5.6999522599646521E-006
   5.8800000000000005E-002     8.6012376125305149E-006
   5.9100000000000000E-002     1.5029516735620596E-005
   5.9400000000000008E-002     2.4842552018103893E-005
   5.9700000000000003E-002     3.7675302934453267E-005
   6.0000000000000012E-002     5.5877261168389873E-005
   6.0300000000000006E-002     8.3788289824011190E-005
   6.0600000000000001E-002     1.2536230715734989E-004
   6.0900000000000010E-002     1.8465555877717350E-004
   6.1200000000000004E-002     2.6797094712748871E-004
   6.1500000000000013E-002     3.8423077265424012E-004
   6.1800000000000008E-002     5.4413529361433408E-004
   6.2100000000000002E-002     7.5962875007726130E-004
   6.2399999999999997E-002     1.0434163998022893E-003
   6.2700000000000006E-002     1.4092205522190427E-003
   6.3000000000000000E-002     1.8729405765584798E-003
   6.3300000000000009E-002     2.4513855311162742E-003
   6.3600000000000004E-002     3.1579206610854223E-003
   6.3899999999999998E-002     3.9989429794292392E-003
   6.4199999999999993E-002     4.9721695032351812E-003
   6.4500000000000002E-002     6.0638467246103746E-003
   6.4800000000000010E-002     7.2449086201259779E-003
   6.5100000000000005E-002     8.4683697236911104E-003
   6.5400000000000000E-002     9.6652852736498224E-003
   6.5700000000000008E-002     1.0738851264138769E-002
   6.5999999999999989E-002     1.1566046510226326E-002
   6.6299999999999998E-002     1.2005439339450780E-002
   6.6600000000000006E-002     1.1903068887915333E-002
   6.6900000000000001E-002     1.1096276241824025E-002
   6.7199999999999996E-002     9.4258940161683208E-003
   6.7500000000000004E-002     6.7592569165638074E-003
   6.7800000000000013E-002     3.0120201299102399E-003
   6.8099999999999994E-002    -1.8318338119463740E-003
   6.8400000000000002E-002    -7.6996411320549331E-003
   6.8700000000000011E-002    -1.4415867519876323E-002
   6.8999999999999992E-002    -2.1689974910996734E-002
   6.9300000000000000E-002    -2.9111948670092917E-002
   6.9600000000000009E-002    -3.6163792747408843E-002
   6.9900000000000004E-002    -4.2248323567654109E-002
   7.0199999999999999E-002    -4.6721875027098500E-002
   7.0500000000000007E-002    -4.8936719659424810E-002
   7.0800000000000016E-002    -4.8302264069635843E-002
   7.1099999999999997E-002    -4.4351178557768552E-002
   7.1400000000000005E-002    -3.6817483290435493E-002
   7.1700000000000000E-002    -2.5677213091197696E-002
   7.1999999999999995E-002    -1.1198627985049059E-002
   7.2300000000000003E-002     6.0280583506976786E-003
   7.2600000000000012E-002     2.5099576711703167E-002
   7.2900000000000006E-002     4.4821375169011538E-002
   7.3200000000000001E-002     6.3751751032519566E-002
   7.3499999999999996E-002     8.0281552019653896E-002
   7.3800000000000004E-002     9.2743522510790904E-002
   7.4099999999999999E-002     9.9522126815940221E-002
   7.4400000000000008E-002     9.9187118503283087E-002
   7.4700000000000003E-002     9.0601885996275305E-002
   7.5000000000000011E-002     7.3043839535696611E-002
   7.5299999999999992E-002     4.6292034266647554E-002
   7.5600000000000001E-002     1.0690507704278658E-002
   7.5900000000000009E-002    -3.2817815200639172E-002
   7.6200000000000004E-002    -8.2698158697616597E-002
   7.6499999999999999E-002   -0.13685152197997946     
   7.6800000000000007E-002   -0.19273741603686692     
   7.7099999999999988E-002   -0.24747701401446692     
   7.7399999999999997E-002   -0.29800959372720076     
   7.7700000000000005E-002   -0.34128581037834749     
   7.8000000000000014E-002   -0.37445883563452537     
   7.8299999999999995E-002   -0.39508440798496497     
   7.8600000000000003E-002   -0.40130412735738830     
   7.8900000000000012E-002   -0.39204776164850308     
   7.9199999999999993E-002   -0.36705555876002649     
   7.9500000000000001E-002   -0.32701796279705642     
   7.9800000000000010E-002   -0.27348702077345133     
   8.0100000000000018E-002   -0.20887713770924893     
   8.0399999999999999E-002   -0.13617511725824683     
   8.0700000000000008E-002    -5.8763182357758681E-002
   8.1000000000000003E-002     1.9821235541505753E-002
   8.1299999999999997E-002     9.6219367068691247E-002
   8.1600000000000006E-002    0.16752969861321729     
   8.1900000000000014E-002    0.23155903355408558     
   8.2199999999999995E-002    0.28691520618488831     
   8.2500000000000004E-002    0.33315874929436562     
   8.2799999999999999E-002    0.37064559469194136     
   8.3100000000000007E-002    0.40046299331945046     
   8.3400000000000002E-002    0.42416952809202207     
   8.3700000000000011E-002    0.44341861356121937     
   8.4000000000000005E-002    0.45976527929229283     
   8.4300000000000000E-002    0.47422293589460285     
   8.4599999999999995E-002    0.48713315381129307     
   8.4900000000000003E-002    0.49792810921981157     
   8.5199999999999998E-002    0.50525902684308999     
   8.5500000000000007E-002    0.50699388049411032     
   8.5800000000000001E-002    0.50055710715807966     
   8.6100000000000010E-002    0.48328216330752072     
   8.6399999999999991E-002    0.45273128939025287     
   8.6699999999999999E-002    0.40722086898563414     
   8.7000000000000008E-002    0.34607971493169354     
   8.7300000000000003E-002    0.26996493586707743     
   8.7599999999999997E-002    0.18086537746019346     
   8.7900000000000006E-002     8.2197366767260596E-002
   8.8200000000000014E-002    -2.1522422087017053E-002
   8.8499999999999995E-002   -0.12504498017440963     
   8.8800000000000004E-002   -0.22273076766121760     
   8.9100000000000013E-002   -0.30928013728640269     
   8.9399999999999993E-002   -0.38001698567193432     
   8.9700000000000002E-002   -0.43152967184426927     
   9.0000000000000011E-002   -0.46188139819833679     
   9.0299999999999991E-002   -0.47088546823121180     
   9.0600000000000000E-002   -0.46000576329737941     
   9.0900000000000009E-002   -0.43225680748469986     
   9.1200000000000017E-002   -0.39184703401760662     
   9.1499999999999998E-002   -0.34358176756766107     
   9.1800000000000007E-002   -0.29258729551367213     
   9.2100000000000001E-002   -0.24345114326744777     
   9.2399999999999996E-002   -0.19987788427315994     
   9.2700000000000005E-002   -0.16424071479095004     
   9.3000000000000013E-002   -0.13730167380261268     
   9.3300000000000008E-002   -0.11816605723767348     
   9.3600000000000003E-002   -0.10437750680759576     
   9.3899999999999997E-002    -9.2264253661833898E-002
   9.4200000000000006E-002    -7.7322575634194646E-002
   9.4500000000000001E-002    -5.4971257190146131E-002
   9.4800000000000009E-002    -2.0982427654553264E-002
   9.5100000000000004E-002     2.7745878108437830E-002
   9.5399999999999999E-002     9.2771192983330336E-002
   9.5699999999999993E-002    0.17374398341017255     
   9.6000000000000002E-002    0.26814434494527356     
   9.6300000000000011E-002    0.37142267424458697     
   9.6600000000000005E-002    0.47726243264819512     
   9.6900000000000000E-002    0.57818510463496198     
   9.7200000000000009E-002    0.66600963022607751     
   9.7499999999999989E-002    0.73273289641999440     
   9.7799999999999998E-002    0.77134440160161721     
   9.8100000000000007E-002    0.77644069990651576     
   9.8400000000000015E-002    0.74482444304060680     
   9.8699999999999996E-002    0.67595208535749429     
   9.9000000000000005E-002    0.57205227631144528     
   9.9300000000000013E-002    0.43793312441586396     
   9.9599999999999994E-002    0.28081862384915757     
   9.9900000000000003E-002    0.10961863157593998     
  0.10020000000000001         -6.5743831335627834E-002
  0.10049999999999999        -0.23514824394926578     
  0.10080000000000000        -0.38912521350307583     
  0.10110000000000001        -0.51958717340756544     
  0.10140000000000000        -0.62051520207740718     
  0.10170000000000000        -0.68849291761330722     
  0.10200000000000001        -0.72280095730573923     
  0.10230000000000002        -0.72546639746517205     
  0.10260000000000000        -0.70121370828633600     
  0.10290000000000001        -0.65672922848254556     
  0.10320000000000000        -0.60019270054806650     
  0.10350000000000001        -0.54063867018055278     
  0.10380000000000000        -0.48694103152030621     
  0.10410000000000001        -0.44711946062002828     
  0.10440000000000001        -0.42762670608285158     
  0.10470000000000000        -0.43273176195727875     
  0.10500000000000000        -0.46402928192759707     
  0.10530000000000000        -0.52023640039729235     
  0.10560000000000000        -0.59732932127773686     
  0.10590000000000001        -0.68859548902308509     
  0.10620000000000000        -0.78520686604907786     
  0.10650000000000001        -0.87696013328046407     
  0.10679999999999999        -0.95295680151143314     
  0.10710000000000000         -1.0026060243626178     
  0.10740000000000001         -1.0164763425842231     
  0.10770000000000000        -0.98721726516710651     
  0.10800000000000000        -0.91028402632605787     
  0.10830000000000001        -0.78436542675381682     
  0.10859999999999999        -0.61174166874008062     
  0.10890000000000000        -0.39826215023059003     
  0.10920000000000001        -0.15294135504291956     
  0.10950000000000001         0.11247497934835241     
  0.10979999999999999         0.38447519256921053     
  0.11009999999999999         0.64869012533508175     
  0.11040000000000001         0.89096630890849937     
  0.11070000000000001          1.0984448169006298     
  0.11100000000000000          1.2604374508909197     
  0.11130000000000000          1.3692319715038581     
  0.11160000000000002          1.4206499599474323     
  0.11190000000000001          1.4141457157741857     
  0.11220000000000001          1.3528146370300183     
  0.11250000000000000          1.2430075519260502     
  0.11280000000000000          1.0936377407577147     
  0.11309999999999999         0.91555956529715088     
  0.11340000000000001         0.72052995528334685     
  0.11369999999999998         0.52042493997721340     
  0.11400000000000000         0.32633943692795464     
  0.11430000000000000         0.14801514693578316     
  0.11460000000000002         -6.8024903770122908E-003
  0.11489999999999999        -0.13264543648628588     
  0.11520000000000001        -0.22632685524856705     
  0.11550000000000001        -0.28702036054447855     
  0.11580000000000000        -0.31594010827180502     
  0.11609999999999999        -0.31597161348580471     
  0.11640000000000002        -0.29134119078089915     
  0.11670000000000001        -0.24720962197975738     
  0.11700000000000001        -0.18891566308889396     
  0.11730000000000000        -0.12198918766320327     
  0.11760000000000000         -5.1738046033990209E-002
  0.11789999999999999          1.7438335199286791E-002
  0.11820000000000001          8.1711672594630316E-002
  0.11850000000000001         0.13832667320805314     
  0.11880000000000000         0.18557394132595600     
  0.11910000000000000         0.22261999474633379     
  0.11940000000000002         0.24961326703948311     
  0.11970000000000001         0.26753069198659296     
  0.12000000000000001         0.27770109914853913     
  0.12030000000000000         0.28203540836442065     
  0.12060000000000000         0.28238917966498533     
  0.12089999999999999         0.28029018611963519     
  0.12119999999999999         0.27714599665135364     
  0.12150000000000001         0.27361784746758100     
  0.12180000000000001         0.26967988502195989     
  0.12210000000000000         0.26494050826275678     
  0.12239999999999999         0.25825529816749093     
  0.12270000000000002         0.24826664877267152     
  0.12300000000000001         0.23339468906221431     
  0.12330000000000001         0.21234872779941519     
  0.12360000000000000         0.18407233533416825     
  0.12390000000000000         0.14820416218701910     
  0.12419999999999999         0.10501219500134018     
  0.12450000000000001          5.5519002506034559E-002
  0.12480000000000001          1.4517004522923531E-003
  0.12509999999999999         -5.5038902798366512E-002
  0.12540000000000001        -0.11135429727638282     
  0.12570000000000003        -0.16484144100111667     
  0.12600000000000000        -0.21301081751359258     
  0.12630000000000002        -0.25370433379599289     
  0.12659999999999999        -0.28521614231808556     
  0.12690000000000001        -0.30647892455507947     
  0.12719999999999998        -0.31705386835792787     
  0.12750000000000000        -0.31710217274362651     
  0.12780000000000002        -0.30745678232515061     
  0.12809999999999999        -0.28931158261717227     
  0.12840000000000001        -0.26447425189788498     
  0.12869999999999998        -0.23498712170395686     
  0.12900000000000000        -0.20319958030875465     
  0.12930000000000003        -0.17176560927038559     
  0.12959999999999999        -0.14340326289885705     
  0.12990000000000002        -0.12101453178020768     
  0.13019999999999998        -0.10729143259292125     
  0.13050000000000000        -0.10490689639424497     
  0.13080000000000003        -0.11591813563100606     
  0.13109999999999999        -0.14179447591500544     
  0.13140000000000002        -0.18312355485673018     
  0.13169999999999998        -0.23938221349718208     
  0.13200000000000001        -0.30885953085703705     
  0.13229999999999997        -0.38824630431835883     
  0.13260000000000000        -0.47308635793818316     
  0.13290000000000002        -0.55768619000675834     
  0.13319999999999999        -0.63551618883549554     
  0.13350000000000001        -0.69956476644319998     
  0.13380000000000003        -0.74309416266909767     
  0.13410000000000000        -0.75998009803796962     
  0.13440000000000002        -0.74555374413600206     
  0.13469999999999999        -0.69718963448165761     
  0.13500000000000001        -0.61445666075785621     
  0.13529999999999998        -0.49988214632971351     
  0.13560000000000000        -0.35844991859239439     
  0.13590000000000002        -0.19767912708897714     
  0.13619999999999999         -2.7090670126102750E-002
  0.13650000000000001         0.14262988995014195     
  0.13680000000000003         0.30051724194753354     
  0.13710000000000000         0.43634390077809432     
  0.13740000000000002         0.54162491064277285     
  0.13769999999999999         0.61058181616514351     
  0.13800000000000001         0.64057298031250820     
  0.13829999999999998         0.63286003848227468     
  0.13860000000000000         0.59221434687491881     
  0.13890000000000002         0.52672396120000375     
  0.13919999999999999         0.44709938446359077     
  0.13950000000000001         0.36516563736353380     
  0.13979999999999998         0.29312956171612636     
  0.14010000000000000         0.24162122717961276     
  0.14040000000000002         0.21910571068580711     
  0.14069999999999999         0.23020796911311553     
  0.14100000000000001         0.27545810137528859     
  0.14130000000000004         0.35100435158210680     
  0.14160000000000000         0.44876914669695922     
  0.14189999999999997         0.55742109267299744     
  0.14219999999999999         0.66351559699289120     
  0.14250000000000002         0.75302322563272706     
  0.14279999999999998         0.81275433508709416     
  0.14310000000000000         0.83212976589060095     
  0.14339999999999997         0.80400158666340116     
  0.14369999999999999         0.72605155550838063     
  0.14400000000000002         0.60065850374649299     
  0.14429999999999998         0.43469682551126887     
  0.14460000000000001         0.23921112885854756     
  0.14490000000000003          2.7476461437181632E-002
  0.14520000000000000        -0.18572167510776943     
  0.14550000000000002        -0.38618953730224570     
  0.14579999999999999        -0.56141644765255405     
  0.14610000000000001        -0.70203733326743578     
  0.14640000000000003        -0.80240645366307284     
  0.14670000000000000        -0.86083290137050328     
  0.14699999999999996        -0.87959095635124052     
  0.14729999999999999        -0.86395814882949018     
  0.14760000000000001        -0.82149290054466240     
  0.14789999999999998        -0.76062076104479681     
  0.14820000000000000        -0.69000795034158902     