  -1.4999999999999999E-002     0.0000000000000000     
  -1.4700000000000000E-002     0.0000000000000000     
  -1.4400000000000000E-002     0.0000000000000000     
  -1.4100000000000000E-002     0.0000000000000000     
  -1.3800000000000000E-002     0.0000000000000000     
  -1.3500000000000000E-002     0.0000000000000000     
  -1.3200000000000000E-002     2.6981400740451956E-037
  -1.2899999999999998E-002    -8.0895334310148840E-035
  -1.2600000000000000E-002    -1.7700275747746516E-033
  -1.2299999999999998E-002     4.4944285218974362E-032
  -1.2000000000000000E-002     4.9070124861803129E-031
  -1.1699999999999999E-002    -7.9021278244265108E-030
  -1.1399999999999999E-002    -2.4263714944543268E-029
  -1.1099999999999999E-002     5.0077647290524881E-028
  -1.0799999999999999E-002    -5.8031517591308571E-029
  -1.0499999999999999E-002    -1.3657340689924666E-026
  -1.0199999999999999E-002     2.0171356160672897E-026
  -9.8999999999999991E-003     1.8943943685826994E-025
  -9.5999999999999992E-003    -3.9986788635226464E-025
  -9.2999999999999992E-003    -1.6192897478109574E-024
  -8.9999999999999993E-003     3.5911075165224018E-024
  -8.6999999999999994E-003     1.1189832925246194E-023
  -8.3999999999999995E-003    -1.8790098136444226E-023
  -8.0999999999999996E-003    -7.4208002488442026E-023
  -7.7999999999999988E-003     6.7091769966412331E-023
  -7.4999999999999997E-003     4.1685538621800311E-022
  -7.1999999999999998E-003    -1.2154295120714713E-022
  -6.8999999999999981E-003    -1.7839501197486608E-021
  -6.5999999999999982E-003    -5.5722682444432065E-022
  -6.3000000000000000E-003     5.7705025016714616E-021
  -6.0000000000000001E-003     5.2116461464943538E-021
  -5.6999999999999985E-003    -9.7532782276448346E-021
  -5.3999999999999986E-003    -2.4264075855974729E-020
  -5.1000000000000004E-003    -1.7085334432837847E-020
  -4.7999999999999987E-003     7.6879545555481185E-020
  -4.5000000000000005E-003     1.5946925285123898E-019
  -4.1999999999999989E-003    -3.6246702678646617E-020
  -3.8999999999999990E-003    -7.0073218743219055E-019
  -3.5999999999999990E-003    -6.3104890479561649E-019
  -3.2999999999999991E-003     2.3257256547274574E-018
  -2.9999999999999992E-003     1.8515991446201730E-018
  -2.6999999999999993E-003    -3.7068616215429022E-018
  -2.3999999999999994E-003    -7.4423671869312863E-019
  -2.0999999999999977E-003    -4.6209797121126968E-018
  -1.7999999999999995E-003    -9.1046554186301316E-018
  -1.4999999999999979E-003     3.8724652804839807E-017
  -1.1999999999999997E-003     3.4070287724085458E-017
  -8.9999999999999976E-004    -8.7499181625105373E-017
  -5.9999999999999810E-004    -5.7196363013699059E-017
  -2.9999999999999992E-004     8.6521817076003674E-018
   0.0000000000000000          4.2743900286577851E-017
   3.0000000000000165E-004     5.1432044436356059E-016
   5.9999999999999984E-004    -1.1544839370770702E-016
   9.0000000000000149E-004    -1.3889092357305263E-015
   1.2000000000000031E-003     7.5930315923219907E-016
   1.5000000000000013E-003     7.8907290180015090E-016
   1.8000000000000030E-003    -2.6249901992673281E-015
   2.1000000000000012E-003     4.9769086812866441E-015
   2.3999999999999994E-003     5.9529117575375695E-015
   2.7000000000000010E-003    -1.7185872878515602E-014
   2.9999999999999992E-003    -9.4480890801060862E-015
   3.3000000000000008E-003     2.6102727828453321E-014
   3.6000000000000025E-003     9.2341295583272584E-015
   3.9000000000000007E-003    -9.5203022899910647E-015
   4.2000000000000023E-003    -3.9782266867548926E-015
   4.5000000000000005E-003    -4.0144191701261969E-014
   4.7999999999999987E-003     1.7975895586663111E-014
   5.1000000000000004E-003     6.2261141488751983E-014
   5.4000000000000020E-003    -1.4230768578385348E-013
   5.7000000000000037E-003     8.8454174281474770E-014
   5.9999999999999984E-003     5.3860859439857762E-013
   6.3000000000000000E-003    -5.4020722343546299E-013
   6.6000000000000017E-003    -1.2930623051521795E-012
   6.9000000000000034E-003     1.2431129756319321E-012
   7.2000000000000015E-003     2.1367207758997219E-012
   7.5000000000000032E-003    -2.0284517267956024E-012
   7.8000000000000014E-003    -2.4265093501450272E-012
   8.0999999999999996E-003     3.0198830740203173E-012
   8.4000000000000012E-003     1.9114968756705619E-012
   8.7000000000000029E-003    -4.7593269428210359E-012
   9.0000000000000011E-003    -1.9363728243556919E-012
   9.2999999999999992E-003     7.1208502797440101E-012
   9.6000000000000009E-003     5.3164820748261143E-012
   9.8999999999999991E-003    -7.9682197962918099E-012
   1.0200000000000001E-002    -1.3647787003863840E-011
   1.0500000000000002E-002     5.1528562599121236E-012
   1.0800000000000004E-002     2.4566359228035539E-011
   1.1099999999999999E-002    -3.3930155108726783E-012
   1.1400000000000000E-002    -3.3649381337322715E-011
   1.1700000000000002E-002     2.0207319092145003E-011
   1.2000000000000004E-002     4.0552303374402886E-011
   1.2300000000000002E-002    -8.7229166272130106E-011
   1.2600000000000000E-002    -5.6804562818645547E-011
   1.2900000000000002E-002     2.7488266535546388E-010
   1.3200000000000000E-002     1.4500584802421719E-010
   1.3500000000000002E-002    -8.2352676656074455E-010
   1.3800000000000003E-002    -6.3054019087946008E-010
   1.4100000000000001E-002     2.4726378753253128E-009
   1.4400000000000000E-002     2.9244408296475831E-009
   1.4700000000000001E-002    -6.7027288736867976E-009
   1.4999999999999999E-002    -1.2133575363436081E-008
   1.5300000000000001E-002     1.2513986964356181E-008
   1.5600000000000003E-002     3.9012568430354162E-008
   1.5899999999999997E-002    -4.7405382972192993E-009
   1.6199999999999999E-002    -8.8060791857766635E-008
   1.6500000000000001E-002    -5.4324688964173367E-008
   1.6800000000000002E-002     1.7894563950296658E-007
   1.7100000000000004E-002     6.7119613430824374E-007
   1.7400000000000006E-002     1.9699777385983738E-006
   1.7700000000000000E-002     5.4287622456653577E-006
   1.8000000000000002E-002     1.2777127496965798E-005
   1.8300000000000004E-002     2.4815495667565181E-005
   1.8600000000000005E-002     3.9338035121852036E-005
   1.8900000000000000E-002     5.0927016143843473E-005
   1.9200000000000002E-002     5.7073835503915443E-005
   1.9500000000000003E-002     6.6902353890061357E-005
   1.9799999999999998E-002     9.8027160668617261E-005
   2.0100000000000000E-002     1.5804184213115437E-004
   2.0400000000000001E-002     2.3367150738606661E-004
   2.0700000000000003E-002     3.0771178792218378E-004
   2.0999999999999998E-002     3.8340217002579057E-004
   2.1299999999999999E-002     4.7869464686216040E-004
   2.1600000000000001E-002     5.9341506079091920E-004
   2.1900000000000003E-002     6.9080300615559787E-004
   2.2200000000000004E-002     7.1051071605355697E-004
   2.2500000000000006E-002     5.8244031732295452E-004
   2.2800000000000001E-002     2.1352210702977508E-004
   2.3100000000000002E-002    -5.3905509656060704E-004
   2.3400000000000004E-002    -1.8828902393146713E-003
   2.3699999999999999E-002    -4.0976874849768608E-003
   2.4000000000000000E-002    -7.5520473509438392E-003
   2.4300000000000002E-002    -1.2723780153682553E-002
   2.4599999999999997E-002    -2.0203594343749010E-002
   2.4900000000000005E-002    -3.0683551116015964E-002
   2.5200000000000000E-002    -4.4949456736642197E-002
   2.5499999999999995E-002    -6.3872536921367490E-002
   2.5800000000000003E-002    -8.8372336732865348E-002
   2.6099999999999998E-002   -0.11934467374336560     
   2.6400000000000007E-002   -0.15757736154481136     
   2.6700000000000002E-002   -0.20366125135344104     
   2.6999999999999996E-002   -0.25788776703602312     
   2.7300000000000005E-002   -0.32014443598425213     
   2.7600000000000000E-002   -0.38983820805261421     
   2.7900000000000008E-002   -0.46580318658276021     
   2.8200000000000003E-002   -0.54624941678858308     
   2.8499999999999998E-002   -0.62871660806665275     
   2.8800000000000006E-002   -0.71015811371197257     
   2.9100000000000001E-002   -0.78705665113852907     
   2.9400000000000003E-002   -0.85559678134073347     
   2.9700000000000004E-002   -0.91185730557141542     
   3.0000000000000006E-002   -0.95204045373004798     
   3.0300000000000001E-002   -0.97272997083053347     
   3.0600000000000002E-002   -0.97108216839515715     
   3.0900000000000004E-002   -0.94509942185352624     
   3.1199999999999999E-002   -0.89367606830630630     
   3.1500000000000007E-002   -0.81665977801784240     
   3.1800000000000002E-002   -0.71483078615049289     
   3.2099999999999997E-002   -0.58976601616197655     
   3.2400000000000005E-002   -0.44367206513816537     
   3.2700000000000000E-002   -0.27920234433919006     
   3.3000000000000002E-002    -9.9224283672691704E-002
   3.3300000000000003E-002     9.3306623568340769E-002
   3.3599999999999998E-002    0.29544642913972141     
   3.3900000000000000E-002    0.50410986183882533     
   3.4200000000000001E-002    0.71612464782893392     
   3.4500000000000003E-002    0.92827167928755028     
   3.4799999999999998E-002     1.1368355444562626     
   3.5099999999999999E-002     1.3378283925071828     
   3.5400000000000001E-002     1.5267052140089032     
   3.5699999999999996E-002     1.6985100229988042     
   3.6000000000000004E-002     1.8481394977342438     
   3.6299999999999999E-002     1.9705081990060758     
   3.6600000000000008E-002     2.0609479350825057     
   3.6900000000000002E-002     2.1155790859716039     
   3.7199999999999997E-002     2.1316633579159339     
   3.7500000000000006E-002     2.1078536159499848     
   3.7800000000000000E-002     2.0446281984130694     
   3.8100000000000009E-002     1.9437910785674446     
   3.8400000000000004E-002     1.8088837848684647     
   3.8699999999999998E-002     1.6447964061820626     
   3.9000000000000007E-002     1.4573267610953526     
   3.9300000000000002E-002     1.2532384048448417     
   3.9600000000000003E-002     1.0396754948482045     
   3.9900000000000005E-002    0.82413271050550707     
   4.0200000000000000E-002    0.61416996265338086     
   4.0500000000000001E-002    0.41749928158586347     
   4.0800000000000003E-002    0.24164699081050572     
   4.1100000000000005E-002     9.4074420573516171E-002
   4.1399999999999999E-002    -1.8215254731328536E-002
   4.1700000000000008E-002    -8.9173181579470240E-002
   4.2000000000000003E-002   -0.11387144294678234     
   4.2299999999999997E-002    -8.9333480027291357E-002
   4.2600000000000006E-002    -1.5203292837010662E-002
   4.2900000000000001E-002    0.10574525632053228     
   4.3200000000000002E-002    0.26697661156929181     
   4.3500000000000004E-002    0.45749428705843320     
   4.3799999999999999E-002    0.66243415518100768     
   4.4100000000000000E-002    0.86313192604587874     
   4.4400000000000002E-002     1.0372742827091179     
   4.4700000000000004E-002     1.1610771803512503     
   4.4999999999999998E-002     1.2099405192098631     
   4.5300000000000000E-002     1.1604691347727722     
   4.5600000000000002E-002    0.99273490920930918     
   4.5899999999999996E-002    0.69187520736287755     
   4.6200000000000005E-002    0.24999608764678061     
   4.6500000000000000E-002   -0.33178464953715248     
   4.6799999999999994E-002    -1.0422740544858153     
   4.7100000000000003E-002    -1.8601062150050052     
   4.7399999999999998E-002    -2.7530549043039616     
   4.7700000000000006E-002    -3.6795298709460784     
   4.8000000000000001E-002    -4.5905879548089086     
   4.8300000000000010E-002    -5.4314680628457443     
   4.8600000000000004E-002    -6.1461947617090278     
   4.8899999999999999E-002    -6.6809211659788428     
   4.9200000000000008E-002    -6.9876471310922312     
   4.9500000000000002E-002    -7.0288066405612515     
   4.9800000000000011E-002    -6.7808695969405210     
   5.0100000000000006E-002    -6.2360321812689996     
   5.0400000000000000E-002    -5.4054358121807535     
   5.0700000000000009E-002    -4.3180797528321628     
   5.1000000000000004E-002    -3.0204257534748979     
   5.1299999999999998E-002    -1.5733807768541666     
   5.1600000000000007E-002    -4.8409153942158278E-002
   5.1900000000000002E-002     1.4767330114912256     
   5.2200000000000010E-002     2.9243599612572644     
   5.2500000000000005E-002     4.2214252635832930     
   5.2800000000000000E-002     5.3051726750979959     
   5.3099999999999994E-002     6.1275851168766504     
   5.3400000000000003E-002     6.6573434254070980     
   5.3699999999999998E-002     6.8834784662990085     
   5.4000000000000006E-002     6.8135423329169491     
   5.4300000000000001E-002     6.4732091299975290     
   5.4599999999999996E-002     5.9042444681410329     
   5.4900000000000004E-002     5.1591287163670074     
   5.5199999999999999E-002     4.2976939853478191     
   5.5499999999999994E-002     3.3824058665790782     
   5.5800000000000002E-002     2.4718906733863850     
   5.6099999999999997E-002     1.6184095384992672     
   5.6400000000000006E-002    0.86232042949218268     
   5.6700000000000000E-002    0.22973078094187099     
   5.6999999999999995E-002   -0.26819141877296271     
   5.7300000000000004E-002   -0.63787064618494549     
   5.7599999999999998E-002   -0.89929254012287874     
   5.7900000000000007E-002    -1.0857803415080620     
   5.8200000000000002E-002    -1.2389743962599828     
   5.8499999999999996E-002    -1.4031178143821661     
   5.8800000000000005E-002    -1.6203545383558045     
   5.9100000000000000E-002    -1.9240760637977679     
   5.9400000000000008E-002    -2.3324832996821434     
   5.9700000000000003E-002    -2.8445732503722345     
   6.0000000000000012E-002    -3.4365524878744411     
   6.0300000000000006E-002    -4.0603944273756456     
   6.0600000000000001E-002    -4.6473187705242331     
   6.0900000000000010E-002    -5.1107004823352478     
   6.1200000000000004E-002    -5.3557366241404445     
   6.1500000000000013E-002    -5.2892946831710477     
   6.1800000000000008E-002    -4.8314415218898272     
   6.2100000000000002E-002    -3.9296322254009519     
   6.2399999999999997E-002    -2.5679611328521950     
   6.2700000000000006E-002   -0.77820075166384739     
   6.3000000000000000E-002     1.3566501503117137     
   6.3300000000000009E-002     3.7014185260971000     
   6.3600000000000004E-002     6.0765959824091054     
   6.3899999999999998E-002     8.2688555974071249     
   6.4199999999999993E-002     10.049347125959020     
   6.4500000000000002E-002     11.195492611743159     
   6.4800000000000010E-002     11.512057698972708     
   6.5100000000000005E-002     10.856918528659962     
   6.5400000000000000E-002     9.1568934698009112     
   6.5700000000000008E-002     6.4247663405665323     
   6.5999999999999989E-002     2.7637877247624107     
   6.6299999999999998E-002    -1.6333996192316000     
   6.6600000000000006E-002    -6.4970239330510768     
   6.6900000000000001E-002    -11.497772015743632     
   6.7199999999999996E-002    -16.273777260421777     
   6.7500000000000004E-002    -20.461018863708503     
   6.7800000000000013E-002    -23.721866851101229     
   6.8099999999999994E-002    -25.778034481744950     
   6.8400000000000002E-002    -26.430817990418056     
   6.8700000000000011E-002    -25.581212260729899     
   6.8999999999999992E-002    -23.236884846664253     
   6.9300000000000000E-002    -19.510455893347157     
   6.9600000000000009E-002    -14.610809723501792     
   6.9900000000000004E-002    -8.8221632259323890     
   7.0199999999999999E-002    -2.4831259727532151     
   7.0500000000000007E-002     4.0443054497423896     
   7.0800000000000016E-002     10.399595458812151     
   7.1099999999999997E-002     16.252383282239130     
   7.1400000000000005E-002     21.322095628755513     
   7.1700000000000000E-002     25.395598428194134     
   7.1999999999999995E-002     28.335573883886077     
   7.2300000000000003E-002     30.082300408411228     
   7.2600000000000012E-002     30.651319517252574     
   7.2900000000000006E-002     30.120404227535822     
   7.3200000000000001E-002     28.620639145741109     
   7.3499999999999996E-002     26.317388137635852     
   7.3800000000000004E-002     23.395418369138657     
   7.4099999999999999E-002     20.043832638095747     
   7.4400000000000008E-002     16.442739316020084     
   7.4700000000000003E-002     12.753521120214238     
   7.5000000000000011E-002     9.1084982453322585     
   7.5299999999999992E-002     5.6137811960376309     
   7.5600000000000001E-002     2.3408593113557123     
   7.5900000000000009E-002   -0.66617536324343840     
   7.6200000000000004E-002    -3.3878135089495180     
   7.6499999999999999E-002    -5.8254366264177158     
   7.6800000000000007E-002    -7.9937322411799432     
   7.7099999999999988E-002    -9.9135809784177873     
   7.7399999999999997E-002    -11.608198711188447     
   7.7700000000000005E-002    -13.097371709021560     
   7.8000000000000014E-002    -14.392351025875429     
   7.8299999999999995E-002    -15.496627460842671     
   7.8600000000000003E-002    -16.402372252960461     
   7.8900000000000012E-002    -17.091978027618403     
   7.9199999999999993E-002    -17.542687141212085     
   7.9500000000000001E-002    -17.726483265784296     
   7.9800000000000010E-002    -17.616183309423889     
   8.0100000000000018E-002    -17.189378206098638     
   8.0399999999999999E-002    -16.432523874894159     
   8.0700000000000008E-002    -15.343426155675150     
   8.1000000000000003E-002    -13.935354426235921     
   8.1299999999999997E-002    -12.234968752420532     
   8.1600000000000006E-002    -10.285413753688035     
   8.1900000000000014E-002    -8.1417829611639672     
   8.2199999999999995E-002    -5.8702500451833588     
   8.2500000000000004E-002    -3.5445849609161328     
   8.2799999999999999E-002    -1.2395872039848448     
   8.3100000000000007E-002    0.96944948325337310     
   8.3400000000000002E-002     3.0128667999874974     
   8.3700000000000011E-002     4.8307326106102293     
   8.4000000000000005E-002     6.3730884168551087     
   8.4300000000000000E-002     7.6053079274768312     
   8.4599999999999995E-002     8.5072669398828147     
   8.4900000000000003E-002     9.0744905057891554     
   8.5199999999999998E-002     9.3195299291126457     
   8.5500000000000007E-002     9.2676563649483175     
   8.5800000000000001E-002     8.9581792037066954     
   8.6100000000000010E-002     8.4418486403501820     
   8.6399999999999991E-002     7.7738611483752802     
   8.6699999999999999E-002     7.0158106589579461     
   8.7000000000000008E-002     6.2291185096640271     
   8.7300000000000003E-002     5.4689919780380505     
   8.7599999999999997E-002     4.7851948386388434     
   8.7900000000000006E-002     4.2157128964273323     
   8.8200000000000014E-002     3.7840242151033525     
   8.8499999999999995E-002     3.4996710748990978     
   8.8800000000000004E-002     3.3562381110667858     
   8.9100000000000013E-002     3.3331263114284715     
   8.9399999999999993E-002     3.3975407343162241     
   8.9700000000000002E-002     3.5070944451805612     
   9.0000000000000011E-002     3.6150501402469146     
   9.0299999999999991E-002     3.6727819601604672     
   9.0600000000000000E-002     3.6364308101517553     
   9.0900000000000009E-002     3.4683011676389253     
   9.1200000000000017E-002     3.1426447122682628     
   9.1499999999999998E-002     2.6465752576032164     
   9.1800000000000007E-002     1.9808483459138206     
   9.2100000000000001E-002     1.1616576618978574     
   9.2399999999999996E-002    0.21890318449370960     
   9.2700000000000005E-002   -0.80769972372258259     
   9.3000000000000013E-002    -1.8683476095185054     
   9.3300000000000008E-002    -2.9088317260636449     
   9.3600000000000003E-002    -3.8753800441504422     
   9.3899999999999997E-002    -4.7148741702937347     
   9.4200000000000006E-002    -5.3825060444912083     
   9.4500000000000001E-002    -5.8430576178536970     
   9.4800000000000009E-002    -6.0726516384417426     
   9.5100000000000004E-002    -6.0633990976435141     
   9.5399999999999999E-002    -5.8194982052013451     
   9.5699999999999993E-002    -5.3614171585937722     
   9.6000000000000002E-002    -4.7219731969058785     
   9.6300000000000011E-002    -3.9438277274486691     
   9.6600000000000005E-002    -3.0780578203628952     
   9.6900000000000000E-002    -2.1795092792315436     
   9.7200000000000009E-002    -1.3029086539323798     
   9.7499999999999989E-002   -0.49945179420568964     
   9.7799999999999998E-002    0.18608885904834876     
   9.8100000000000007E-002    0.72042202202818328     
   9.8400000000000015E-002     1.0803954575670502     
   9.8699999999999996E-002     1.2576114530376536     
   9.9000000000000005E-002     1.2561146522133497     
   9.9300000000000013E-002     1.0921700746089282     
   9.9599999999999994E-002    0.79340501810789521     
   9.9900000000000003E-002    0.39497598155287472     
  0.10020000000000001         -6.3178194165202040E-002
  0.10049999999999999        -0.53848473969968369     
  0.10080000000000000        -0.98867693571692339     
  0.10110000000000001         -1.3767979705003179     
  0.10140000000000000         -1.6701492491182055     
  0.10170000000000000         -1.8441343060401252     
  0.10200000000000001         -1.8839578909231078     
  0.10230000000000002         -1.7815369812553836     
  0.10260000000000000         -1.5403714695913935     
  0.10290000000000001         -1.1697778109135393     
  0.10320000000000000        -0.68935652757891330     
  0.10350000000000001        -0.12289649363747562     
  0.10380000000000000         0.49916857971561757     
  0.10410000000000001          1.1434732595219690     
  0.10440000000000001          1.7741581059247702     
  0.10470000000000000          2.3555217713252476     
  0.10500000000000000          2.8526813967599907     
  0.10530000000000000          3.2349749000908883     
  0.10560000000000000          3.4771768892266239     
  0.10590000000000001          3.5606420760554096     
  0.10620000000000000          3.4769569998819012     
  0.10650000000000001          3.2272736797842714     
  0.10679999999999999          2.8231422325197086     
  0.10710000000000000          2.2880638014399239     
  0.10740000000000001          1.6531978824796090     
  0.10770000000000000         0.95968606362559905     
  0.10800000000000000         0.25142202168415040     
  0.10830000000000001        -0.42384835571668572     
  0.10859999999999999         -1.0226410981155474     
  0.10890000000000000         -1.5047105517173311     
  0.10920000000000001         -1.8403991740711172     
  0.10950000000000001         -2.0109312867594253     
  0.10979999999999999         -2.0100372322380569     
  0.11009999999999999         -1.8469316323161196     
  0.11040000000000001         -1.5417541339983909     
  0.11070000000000001         -1.1266045742839101     
  0.11100000000000000        -0.64174178136707527     
  0.11130000000000000        -0.13096459995445026     
  0.11160000000000002         0.36055916111289876     
  0.11190000000000001         0.79132114881061244     
  0.11220000000000001          1.1268207783326347     
  0.11250000000000000          1.3426473464239765     
  0.11280000000000000          1.4241097458165330     
  0.11309999999999999          1.3709210807642953     
  0.11340000000000001          1.1913044099041921     
  0.11369999999999998         0.90579884096042051     
  0.11400000000000000         0.54226355990392883     
  0.11430000000000000         0.13272984740832461     
  0.11460000000000002        -0.28706943297130055     
  0.11489999999999999        -0.68358281664602416     
  0.11520000000000001         -1.0260382098049607     
  0.11550000000000001         -1.2902366829807654     
  0.11580000000000000         -1.4577215962702765     
  0.11609999999999999         -1.5205172167378431     
  0.11640000000000002         -1.4771268770266932     
  0.11670000000000001         -1.3353520586181717     
  0.11700000000000001         -1.1101390232241288     
  0.11730000000000000        -0.82092643485769179     
  0.11760000000000000        -0.49255064137875026     
  0.11789999999999999        -0.15039722866124594     
  0.11820000000000001         0.17932229211997325     
  0.11850000000000001         0.47295387552302071     
  0.11880000000000000         0.71056539596733803     
  0.11910000000000000         0.87651843502714533     
  0.11940000000000002         0.96290695294069906     
  0.11970000000000001         0.96584707804423031     
  0.12000000000000001         0.89021508084165468     
  0.12030000000000000         0.74524549233450887     
  0.12060000000000000         0.54558808157553518     
  0.12089999999999999         0.30886707481671621     
  0.12119999999999999          5.6559608309036363E-002
  0.12150000000000001        -0.19209841045391524     
  0.12180000000000001        -0.41684332604685082     
  0.12210000000000000        -0.60042922303049973     
  0.12239999999999999        -0.73100962860055496     
  0.12270000000000002        -0.79889119437483902     
  0.12300000000000001        -0.80114319072996687     
  0.12330000000000001        -0.73963473606541241     
  0.12360000000000000        -0.61976043452654139     
  0.12390000000000000        -0.45290184630178654     
  0.12419999999999999        -0.25140622320646627     
  0.12450000000000001         -3.0848336271982801E-002
  0.12480000000000001         0.19345072086059301     
  0.12509999999999999         0.40469406259078966     
  0.12540000000000001         0.59051177245960706     
  0.12570000000000003         0.73777435601611341     
  0.12600000000000000         0.83819096925082415     
  0.12630000000000002         0.88688248778206957     
  0.12659999999999999         0.88168174171518843     
  0.12690000000000001         0.82457149567344046     
  0.12719999999999998         0.72127358493039995     
  0.12750000000000000         0.58018926580177466     
  0.12780000000000002         0.41094909832213755     
  0.12809999999999999         0.22689953426834597     
  0.12840000000000001          3.9537461327878803E-002
  0.12869999999999998        -0.13885151487628283     
  0.12900000000000000        -0.29620703134492271     
  0.12930000000000003        -0.42495874542856582     
  0.12959999999999999        -0.51786234578328771     
  0.12990000000000002        -0.57137483454488913     
  0.13019999999999998        -0.58558463540842842     
  0.13050000000000000        -0.56310876885586436     
  0.13080000000000003        -0.50831624059628200     
  0.13109999999999999        -0.42890729823855189     
  0.13140000000000002        -0.33382391039497089     
  0.13169999999999998        -0.23083723930226235     
  0.13200000000000001        -0.13018348712473543     
  0.13229999999999997         -3.8937633340772410E-002
  0.13260000000000000          3.5446728757690983E-002
  0.13290000000000002          8.8606799434746114E-002
  0.13319999999999999         0.11675499535064712     
  0.13350000000000001         0.11925117489978640     
  0.13380000000000003          9.6879466399838438E-002
  0.13410000000000000          5.2008366129740705E-002
  0.13440000000000002         -1.0892895319064917E-002
  0.13469999999999999         -8.7148394024735537E-002
  0.13500000000000001        -0.16939456527929772     
  0.13529999999999998        -0.25180708443090594     
  0.13560000000000000        -0.32671953042529012     
  0.13590000000000002        -0.38756837039715741     
  0.13619999999999999        -0.42879812399405204     
  0.13650000000000001        -0.44527518963446544     
  0.13680000000000003        -0.43483412451970049     
  0.13710000000000000        -0.39558503641805576     
  0.13740000000000002        -0.32943639346211201     
  0.13769999999999999        -0.23958776773428908     
  0.13800000000000001        -0.13083462852719766     
  0.13829999999999998         -1.0160443734887455E-002
  0.13860000000000000         0.11468131859758571     
  0.13890000000000002         0.23643656306658220     
  0.13919999999999999         0.34713290383308865     
  0.13950000000000001         0.43994123611100883     
  0.13979999999999998         0.51095427385259840     
  0.14010000000000000         0.55558197615262950     
  0.14040000000000002         0.57349465894109852     
  0.14069999999999999         0.56466327294485219     
  0.14100000000000001         0.53081702082177162     
  0.14130000000000004         0.47658112721715107     
  0.14160000000000000         0.40487005966000611     
  0.14189999999999997         0.32170483874901901     
  0.14219999999999999         0.23191839908007028     
  0.14250000000000002         0.14050255991807717     
  0.14279999999999998          5.2252726150957302E-002
  0.14310000000000000         -2.7674673817094271E-002
  0.14339999999999997         -9.6911541937659024E-002
  0.14369999999999999        -0.15168376414468185     
  0.14400000000000002        -0.18985162405254352     
  0.14429999999999998        -0.21117078899641895     
  0.14460000000000001        -0.21474251784289483     
  0.14490000000000003        -0.20231707610547706     
  0.14520000000000000        -0.17599458681593608     
  0.14550000000000002        -0.13830284110599317     
  0.14579999999999999         -9.3780036018594484E-002
  0.14610000000000001         -4.5296419719359923E-002
  0.14640000000000003          2.6516397861426448E-003
  0.14670000000000000          4.6161063562041443E-002
  0.14699999999999996          8.2240526115090265E-002
  0.14729999999999999         0.10918239762259248     
  0.14760000000000001         0.12403339837046221     
  0.14789999999999998         0.12806058892077307     
  0.14820000000000000         0.12034266771833194     