  -1.4999999999999999E-002     0.0000000000000000     
  -1.4700000000000000E-002     0.0000000000000000     
  -1.4400000000000000E-002     0.0000000000000000     
  -1.4100000000000000E-002     0.0000000000000000     
  -1.3800000000000000E-002     0.0000000000000000     
  -1.3500000000000000E-002     0.0000000000000000     
  -1.3200000000000000E-002     0.0000000000000000     
  -1.2899999999999998E-002     0.0000000000000000     
  -1.2600000000000000E-002     0.0000000000000000     
  -1.2299999999999998E-002    -4.5993085202252606E-050
  -1.2000000000000000E-002     1.3570098209019459E-036
  -1.1699999999999999E-002     1.2531281036397135E-034
  -1.1399999999999999E-002     4.8509891047135583E-034
  -1.1099999999999999E-002    -1.8177385991274123E-032
  -1.0799999999999999E-002     5.0504236970080646E-032
  -1.0499999999999999E-002     8.7765522666083710E-031
  -1.0199999999999999E-002    -3.8833116882630690E-030
  -9.8999999999999991E-003    -2.0130031087127008E-029
  -9.5999999999999992E-003     1.2445066750869735E-028
  -9.2999999999999992E-003     2.0540455971126730E-028
  -8.9999999999999993E-003    -2.0728296507882311E-027
  -8.6999999999999994E-003    -6.5862144838174310E-028
  -8.3999999999999995E-003     2.0956303729043203E-026
  -8.0999999999999996E-003    -2.3434310330771773E-027
  -7.7999999999999988E-003    -1.5219880381969883E-025
  -7.4999999999999997E-003     4.6337885165253687E-027
  -7.1999999999999998E-003     9.0588225832137301E-025
  -6.8999999999999981E-003     3.7254721046005517E-025
  -6.5999999999999982E-003    -4.9318556796363712E-024
  -6.3000000000000000E-003    -3.7585007212880776E-024
  -6.0000000000000001E-003     2.2529932221307030E-023
  -5.6999999999999985E-003     1.8867562047533264E-023
  -5.3999999999999986E-003    -5.9045534754270211E-023
  -5.1000000000000004E-003    -1.2756724337291334E-022
  -4.7999999999999987E-003     1.4695745818051097E-022
  -4.5000000000000005E-003     4.3949614758576415E-022
  -4.1999999999999989E-003    -2.0173237737226385E-022
  -3.8999999999999990E-003     2.3938081521470800E-024
  -3.5999999999999990E-003    -3.3619899535351050E-021
  -3.2999999999999991E-003    -2.6250368097161039E-023
  -2.9999999999999992E-003     1.3118945286420965E-020
  -2.6999999999999993E-003     3.9525472255465865E-021
  -2.3999999999999994E-003    -1.7321336706785586E-020
  -2.0999999999999977E-003    -7.8231759345990021E-020
  -1.7999999999999995E-003     9.4245248726498981E-020
  -1.4999999999999979E-003     1.4770646096935279E-019
  -1.1999999999999997E-003    -2.5401034461213562E-019
  -8.9999999999999976E-004     4.0334889323251813E-019
  -5.9999999999999810E-004    -5.6986169925296242E-019
  -2.9999999999999992E-004    -1.5457290969651702E-018
   0.0000000000000000          3.4742778846326155E-018
   3.0000000000000165E-004     1.1792360779417782E-018
   5.9999999999999984E-004    -4.3190755381773280E-018
   9.0000000000000149E-004     2.8590719630682143E-018
   1.2000000000000031E-003    -1.2226311503371162E-017
   1.5000000000000013E-003    -4.7889078037909079E-018
   1.8000000000000030E-003     6.9233299891090828E-017
   2.1000000000000012E-003    -3.9610884814597096E-017
   2.3999999999999994E-003    -1.2599603195537122E-016
   2.7000000000000010E-003     2.2517698407714170E-016
   2.9999999999999992E-003    -8.0817460358351382E-017
   3.3000000000000008E-003    -5.6420797455717808E-016
   3.6000000000000025E-003     1.0306871778115753E-015
   3.9000000000000007E-003     7.6766632113735419E-016
   4.2000000000000023E-003    -2.9732260964184732E-015
   4.5000000000000005E-003    -1.0886159667516858E-016
   4.7999999999999987E-003     5.1918292505295102E-015
   5.1000000000000004E-003    -2.6724386868440865E-015
   5.4000000000000020E-003    -5.6767272578327498E-015
   5.7000000000000037E-003     9.1057202033707213E-015
   5.9999999999999984E-003     2.7183243886530748E-015
   6.3000000000000000E-003    -1.9454235695950830E-014
   6.6000000000000017E-003     8.9243076011227862E-016
   6.9000000000000034E-003     2.9371227986970661E-014
   7.2000000000000015E-003     5.7887116564047749E-015
   7.5000000000000032E-003    -2.8453846441453413E-014
   7.8000000000000014E-003    -3.8286092169833994E-014
   8.0999999999999996E-003     1.3965382706040254E-014
   8.4000000000000012E-003     9.9542142685926665E-014
   8.7000000000000029E-003    -2.5717149885038081E-014
   9.0000000000000011E-003    -1.5935444569989650E-013
   9.2999999999999992E-003     1.6095284834922772E-013
   9.6000000000000009E-003     1.7792669376275235E-013
   9.8999999999999991E-003    -4.9804217728483129E-013
   1.0200000000000001E-002    -2.1268608358312190E-013
   1.0500000000000002E-002     9.6343990857900389E-013
   1.0800000000000004E-002     5.0435727890833118E-013
   1.1099999999999999E-002    -1.3988795541336509E-012
   1.1400000000000000E-002    -1.2462427755140418E-012
   1.1700000000000002E-002     2.0439101807892227E-012
   1.2000000000000004E-002     1.8830359178793442E-012
   1.2300000000000002E-002    -3.9005610327606488E-012
   1.2600000000000000E-002    -6.2698381257175055E-013
   1.2900000000000002E-002     7.6698742318136534E-012
   1.3200000000000000E-002    -4.1728888974782298E-012
   1.3500000000000002E-002    -1.1369750260271119E-011
   1.3800000000000003E-002     1.0226036853538371E-011
   1.4100000000000001E-002     1.1278304950158634E-011
   1.4400000000000000E-002    -1.0102449355794099E-011
   1.4700000000000001E-002    -1.3262772521660933E-011
   1.4999999999999999E-002     9.6888207861649458E-012
   1.5300000000000001E-002     5.0433368430632527E-011
   1.5600000000000003E-002    -1.0630417581866265E-010
   1.5899999999999997E-002    -1.7123271341275418E-010
   1.6199999999999999E-002     7.2848471779823814E-010
   1.6500000000000001E-002     3.2534468225925933E-010
   1.6800000000000002E-002    -3.3598289448569504E-009
   1.7100000000000004E-002    -1.2211360091879067E-010
   1.7400000000000006E-002     1.2878924184097256E-008
   1.7700000000000000E-002    -8.5492117560809122E-010
   1.8000000000000002E-002    -4.5582117663802659E-008
   1.8300000000000004E-002    -5.7478986376837451E-009
   1.8600000000000005E-002     1.4379469883312283E-007
   1.8900000000000000E-002     6.2469673414036025E-008
   1.9200000000000002E-002    -4.4787230898111329E-007
   1.9500000000000003E-002    -3.9584640877803182E-007
   1.9799999999999998E-002     2.1277839631823799E-006
   2.0100000000000000E-002     7.9173323821906531E-006
   2.0400000000000001E-002     1.5649543397125577E-005
   2.0700000000000003E-002     2.3839482523178226E-005
   2.0999999999999998E-002     3.2923362466390923E-005
   2.1299999999999999E-002     4.4165943450664958E-005
   2.1600000000000001E-002     5.8017948629140508E-005
   2.1900000000000003E-002     7.6889767598274509E-005
   2.2200000000000004E-002     1.0955157121035349E-004
   2.2500000000000006E-002     1.6752882630748528E-004
   2.2800000000000001E-002     2.5310606553747449E-004
   2.3100000000000002E-002     3.5544112718367832E-004
   2.3400000000000004E-002     4.6610337467434368E-004
   2.3699999999999999E-002     5.9518945526466297E-004
   2.4000000000000000E-002     7.5957499329565162E-004
   2.4300000000000002E-002     9.5186533915431583E-004
   2.4599999999999997E-002     1.1297016068309595E-003
   2.4900000000000005E-002     1.2341176322247726E-003
   2.5200000000000000E-002     1.1990869562631715E-003
   2.5499999999999995E-002     9.2856809979193812E-004
   2.5800000000000003E-002     2.6785719973044771E-004
   2.6099999999999998E-002    -1.0046037784197182E-003
   2.6400000000000007E-002    -3.1741206149450453E-003
   2.6700000000000002E-002    -6.5963342057202556E-003
   2.6999999999999996E-002    -1.1711888540455406E-002
   2.7300000000000005E-002    -1.9059284338945159E-002
   2.7600000000000000E-002    -2.9272560871911501E-002
   2.7900000000000008E-002    -4.3051541845071935E-002
   2.8200000000000003E-002    -6.1115765201258956E-002
   2.8499999999999998E-002    -8.4163398744305701E-002
   2.8800000000000006E-002   -0.11283218232632555     
   2.9100000000000001E-002   -0.14762766758490736     
   2.9400000000000003E-002   -0.18883112132515226     
   2.9700000000000004E-002   -0.23641312113717305     
   3.0000000000000006E-002   -0.28998145348601617     
   3.0300000000000001E-002   -0.34873911479380804     
   3.0600000000000002E-002   -0.41143425844080045     
   3.0900000000000004E-002   -0.47638397704107849     
   3.1199999999999999E-002   -0.54147516671133733     
   3.1500000000000007E-002   -0.60426490130555732     
   3.1800000000000002E-002   -0.66210345641662716     
   3.2099999999999997E-002   -0.71228084739163688     
   3.2400000000000005E-002   -0.75222149811683703     
   3.2700000000000000E-002   -0.77954372642954672     
   3.3000000000000002E-002   -0.79223849847883909     
   3.3300000000000003E-002   -0.78874560342681066     
   3.3599999999999998E-002   -0.76798190604378458     
   3.3900000000000000E-002   -0.72921385231983449     
   3.4200000000000001E-002   -0.67213358460578909     
   3.4500000000000003E-002   -0.59657713077523511     
   3.4799999999999998E-002   -0.50250699971163071     
   3.5099999999999999E-002   -0.38985548059187131     
   3.5400000000000001E-002   -0.25862212629576581     
   3.5699999999999996E-002   -0.10883663459352214     
   3.6000000000000004E-002     5.9354091854564653E-002
   3.6299999999999999E-002    0.24513353702770843     
   3.6600000000000008E-002    0.44696544407729316     
   3.6900000000000002E-002    0.66200262656041298     
   3.7199999999999997E-002    0.88602053164385086     
   3.7500000000000006E-002     1.1131138001864300     
   3.7800000000000000E-002     1.3357853011868166     
   3.8100000000000009E-002     1.5451513801865739     
   3.8400000000000004E-002     1.7314229283532174     
   3.8699999999999998E-002     1.8850219564353525     
   3.9000000000000007E-002     1.9967322748431025     
   3.9300000000000002E-002     2.0597764775848062     
   3.9600000000000003E-002     2.0695929012936545     
   3.9900000000000005E-002     2.0252692364027496     
   4.0200000000000000E-002     1.9298280333393127     
   4.0500000000000001E-002     1.7899121093498731     
   4.0800000000000003E-002     1.6154699552523251     
   4.1100000000000005E-002     1.4186828519118346     
   4.1399999999999999E-002     1.2128887681460097     
   4.1700000000000008E-002     1.0105798829487951     
   4.2000000000000003E-002    0.82269615161406373     
   4.2299999999999997E-002    0.65682000011522867     
   4.2600000000000006E-002    0.51605522125031678     
   4.2900000000000001E-002    0.39960880571485652     
   4.3200000000000002E-002    0.30203327713783606     
   4.3500000000000004E-002    0.21498294326943360     
   4.3799999999999999E-002    0.12814164197364478     
   4.4100000000000000E-002     3.1520995814524083E-002
   4.4400000000000002E-002    -8.3418838530098002E-002
   4.4700000000000004E-002   -0.22126950007935878     
   4.4999999999999998E-002   -0.38169982094875499     
   4.5300000000000000E-002   -0.55900382574248375     
   4.5600000000000002E-002   -0.74198066900526161     
   4.5899999999999996E-002   -0.91525119034053837     
   4.6200000000000005E-002    -1.0602665438554009     
   4.6500000000000000E-002    -1.1588346178130635     
   4.6799999999999994E-002    -1.1944663840622922     
   4.7100000000000003E-002    -1.1555860255427424     
   4.7399999999999998E-002    -1.0380004756302037     
   4.7700000000000006E-002   -0.84546208585020866     
   4.8000000000000001E-002   -0.59145241454001007     
   4.8300000000000010E-002   -0.29745032353251499     
   4.8600000000000004E-002     7.1787944161832264E-003
   4.8899999999999999E-002    0.28869454360924307     
   4.9200000000000008E-002    0.51173729784628275     
   4.9500000000000002E-002    0.64262152437168307     
   4.9800000000000011E-002    0.65308153911774869     
   5.0100000000000006E-002    0.52342963096323358     
   5.0400000000000000E-002    0.24501183249825964     
   5.0700000000000009E-002   -0.17899595602935947     
   5.1000000000000004E-002   -0.73135125700090997     
   5.1299999999999998E-002    -1.3839101723673031     
   5.1600000000000007E-002    -2.0972699930957828     
   5.1900000000000002E-002    -2.8251020555107247     
   5.2200000000000010E-002    -3.5161199010530724     
   5.2500000000000005E-002    -4.1188501515975480     
   5.2800000000000000E-002    -4.5849818133533953     
   5.3099999999999994E-002    -4.8725722915776251     
   5.3400000000000003E-002    -4.9504006754783498     
   5.3699999999999998E-002    -4.7986820394521335     
   5.4000000000000006E-002    -4.4125564613440531     
   5.4300000000000001E-002    -3.8010292507580794     
   5.4599999999999996E-002    -2.9879916195071510     
   5.4900000000000004E-002    -2.0101643209046300     
   5.5199999999999999E-002   -0.91502978567282001     
   5.5499999999999994E-002    0.24174808825017824     
   5.5800000000000002E-002     1.4011326751635975     
   5.6099999999999997E-002     2.5024142768294571     
   5.6400000000000006E-002     3.4898669786975955     
   5.6700000000000000E-002     4.3147434820127817     
   5.6999999999999995E-002     4.9395641505239825     
   5.7300000000000004E-002     5.3394254502796938     
   5.7599999999999998E-002     5.5061448577496144     
   5.7900000000000007E-002     5.4451826361079512     
   5.8200000000000002E-002     5.1772468698535485     
   5.8499999999999996E-002     4.7367709238599858     
   5.8800000000000005E-002     4.1662324046469861     
   5.9100000000000000E-002     3.5156968284833745     
   5.9400000000000008E-002     2.8367152972419665     
   5.9700000000000003E-002     2.1785481869769119     
   6.0000000000000012E-002     1.5852085195920698     
   6.0300000000000006E-002     1.0909363011235238     
   6.0600000000000001E-002    0.71851928047845659     
   6.0900000000000010E-002    0.47829340927174291     
   6.1200000000000004E-002    0.36745500455044555     
   6.1500000000000013E-002    0.37023673063983464     
   6.1800000000000008E-002    0.46292014235518580     
   6.2100000000000002E-002    0.61237513120884690     
   6.2399999999999997E-002    0.78159725720533235     
   6.2700000000000006E-002    0.93372912491459992     
   6.3000000000000000E-002     1.0334584397563622     
   6.3300000000000009E-002     1.0514181722969838     
   6.3600000000000004E-002    0.96592498664271120     
   6.3899999999999998E-002    0.76540640196429455     
   6.4199999999999993E-002    0.44713490852015070     
   6.4500000000000002E-002     1.9329976160538470E-002
   6.4800000000000010E-002   -0.50191547220896116     
   6.5100000000000005E-002    -1.0942442405243591     
   6.5400000000000000E-002    -1.7305921163008844     
   6.5700000000000008E-002    -2.3838075163921535     
   6.5999999999999989E-002    -3.0267601949559126     
   6.6299999999999998E-002    -3.6377070938963998     
   6.6600000000000006E-002    -4.1983836812372184     
   6.6900000000000001E-002    -4.6973256001653105     
   6.7199999999999996E-002    -5.1268948730517119     
   6.7500000000000004E-002    -5.4830579344585955     
   6.7800000000000013E-002    -5.7619648006251385     
   6.8099999999999994E-002    -5.9574533039900377     
   6.8400000000000002E-002    -6.0582467210648705     
   6.8700000000000011E-002    -6.0448419320379703     
   6.8999999999999992E-002    -5.8915512388017710     
   6.9300000000000000E-002    -5.5639598677895155     
   6.9600000000000009E-002    -5.0255406563389151     
   6.9900000000000004E-002    -4.2407778123507383     
   7.0199999999999999E-002    -3.1827171554418450     
   7.0500000000000007E-002    -1.8401834051106847     
   7.0800000000000016E-002   -0.22673299349729867     
   7.1099999999999997E-002     1.6147640205120504     
   7.1400000000000005E-002     3.6084717058238849     
   7.1700000000000000E-002     5.6430313680873336     
   7.1999999999999995E-002     7.5790152152401795     
   7.2300000000000003E-002     9.2562243057069278     
   7.2600000000000012E-002     10.505781974375996     
   7.2900000000000006E-002     11.167083726498189     
   7.3200000000000001E-002     11.104051663460320     
   7.3499999999999996E-002     10.224175547975504     
   7.3800000000000004E-002     8.4887466827073581     
   7.4099999999999999E-002     5.9285201074715212     
   7.4400000000000008E-002     2.6437224657389433     
   7.4700000000000003E-002    -1.1964506991358421     
   7.5000000000000011E-002    -5.3640112465983654     
   7.5299999999999992E-002    -9.5859015740366562     
   7.5600000000000001E-002    -13.567697241725469     
   7.5900000000000009E-002    -17.013672876942426     
   7.6200000000000004E-002    -19.653422685328550     
   7.6499999999999999E-002    -21.263120237035814     
   7.6800000000000007E-002    -21.683635419294731     
   7.7099999999999988E-002    -20.835418434185126     
   7.7399999999999997E-002    -18.720916408241372     
   7.7700000000000005E-002    -15.428820105992175     
   7.8000000000000014E-002    -11.120657173358351     
   7.8299999999999995E-002    -6.0214489912604225     
   7.8600000000000003E-002   -0.40038243544396168     
   7.8900000000000012E-002     5.4496429820226533     
   7.9199999999999993E-002     11.230652055764999     
   7.9500000000000001E-002     16.660786202464024     
   7.9800000000000010E-002     21.489291049275852     
   8.0100000000000018E-002     25.508423892759527     
   8.0399999999999999E-002     28.562775866435331     
   8.0700000000000008E-002     30.553298353061201     
   8.1000000000000003E-002     31.434298909718187     
   8.1299999999999997E-002     31.213181868442536     
   8.1600000000000006E-002     29.945081056085947     
   8.1900000000000014E-002     27.720223607073009     
   8.2199999999999995E-002     24.664107349861077     
   8.2500000000000004E-002     20.922455635558983     
   8.2799999999999999E-002     16.658402095179238     
   8.3100000000000007E-002     12.040136739259989     
   8.3400000000000002E-002     7.2409388614134791     
   8.3700000000000011E-002     2.4276590354403242     
   8.4000000000000005E-002    -2.2437378807379988     
   8.4300000000000000E-002    -6.6291602750162131     
   8.4599999999999995E-002    -10.607330811324278     
   8.4900000000000003E-002    -14.077210075143309     
   8.5199999999999998E-002    -16.966679306309228     
   8.5500000000000007E-002    -19.226069236913087     
   8.5800000000000001E-002    -20.838171768633995     
   8.6100000000000010E-002    -21.810568614189524     
   8.6399999999999991E-002    -22.173115504008898     
   8.6699999999999999E-002    -21.981011112630039     
   8.7000000000000008E-002    -21.301008831410517     
   8.7300000000000003E-002    -20.214766075708265     
   8.7599999999999997E-002    -18.807115995181558     
   8.7900000000000006E-002    -17.165829057000167     
   8.8200000000000014E-002    -15.373456267388452     
   8.8499999999999995E-002    -13.505448527104679     
   8.8800000000000004E-002    -11.625865096118153     
   8.9100000000000013E-002    -9.7838459513534168     
   8.9399999999999993E-002    -8.0192413303212700     
   8.9700000000000002E-002    -6.3495502009435629     
   9.0000000000000011E-002    -4.7861546668135810     
   9.0299999999999991E-002    -3.3236860163733764     
   9.0600000000000000E-002    -1.9488841221465119     
   9.0900000000000009E-002   -0.64288947673101760     
   9.1200000000000017E-002    0.61684826629938605     
   9.1499999999999998E-002     1.8497493743241507     
   9.1800000000000007E-002     3.0731059911097067     
   9.2100000000000001E-002     4.2932660114175736     
   9.2399999999999996E-002     5.5102545899919786     
   9.2700000000000005E-002     6.7090823491899707     
   9.3000000000000013E-002     7.8688361656217083     
   9.3300000000000008E-002     8.9548494990204031     
   9.3600000000000003E-002     9.9289315067770918     
   9.3899999999999997E-002     10.749002738477849     
   9.4200000000000006E-002     11.372864057903808     
   9.4500000000000001E-002     11.764367392245921     
   9.4800000000000009E-002     11.895665450458251     
   9.5100000000000004E-002     11.751116066280677     
   9.5399999999999999E-002     11.328095681398265     
   9.5699999999999993E-002     10.638818956896131     
   9.6000000000000002E-002     9.7097198388306190     
   9.6300000000000011E-002     8.5790940739845478     
   9.6600000000000005E-002     7.2969103838770675     
   9.6900000000000000E-002     5.9168992573855137     
   9.7200000000000009E-002     4.4999981019292159     
   9.7499999999999989E-002     3.1024191045491021     
   9.7799999999999998E-002     1.7797146314194050     
   9.8100000000000007E-002    0.57757158353519189     
   9.8400000000000015E-002   -0.46563454075830374     
   9.8699999999999996E-002    -1.3251146461441470     
   9.9000000000000005E-002    -1.9881586373629159     
   9.9300000000000013E-002    -2.4547321228058698     
   9.9599999999999994E-002    -2.7375068115231467     
   9.9900000000000003E-002    -2.8603584171194973     
  0.10020000000000001         -2.8570744300888160     
  0.10049999999999999         -2.7647902131901279     
  0.10080000000000000         -2.6276329942236307     
  0.10110000000000001         -2.4871348136181184     
  0.10140000000000000         -2.3813007865869036     
  0.10170000000000000         -2.3426049551674302     
  0.10200000000000001         -2.3946216729124035     
  0.10230000000000002         -2.5483737463391911     
  0.10260000000000000         -2.8045227880892205     
  0.10290000000000001         -3.1518149644059053     
  0.10320000000000000         -3.5678432204594834     
  0.10350000000000001         -4.0203657346618868     
  0.10380000000000000         -4.4728489128331193     
  0.10410000000000001         -4.8830657238670616     
  0.10440000000000001         -5.2102747242856537     
  0.10470000000000000         -5.4153795571658598     
  0.10500000000000000         -5.4681415938006017     
  0.10530000000000000         -5.3433990896121628     
  0.10560000000000000         -5.0309634654965825     
  0.10590000000000001         -4.5289917435369409     
  0.10620000000000000         -3.8511662901301187     
  0.10650000000000001         -3.0202317597202235     
  0.10679999999999999         -2.0712015896177167     
  0.10710000000000000         -1.0461073062388919     
  0.10740000000000001          5.9333232344649421E-003
  0.10770000000000000          1.0346687034549622     
  0.10800000000000000          1.9880460890291243     
  0.10830000000000001          2.8199103470034230     
  0.10859999999999999          3.4890013528842880     
  0.10890000000000000          3.9638598927641655     
  0.10920000000000001          4.2241607814136444     
  0.10950000000000001          4.2623630765523828     
  0.10979999999999999          4.0840035712430689     
  0.11009999999999999          3.7092927697465137     
  0.11040000000000001          3.1687730450456240     
  0.11070000000000001          2.5058921307311466     
  0.11100000000000000          1.7708779077205044     
  0.11130000000000000          1.0194657278751009     
  0.11160000000000002         0.30809254840808092     
  0.11190000000000001        -0.30814672973522639     
  0.11220000000000001        -0.78391204327982367     
  0.11250000000000000         -1.0827022202824839     
  0.11280000000000000         -1.1829852599807706     
  0.11309999999999999         -1.0785903510878065     
  0.11340000000000001        -0.78212912113741684     
  0.11369999999999998        -0.32106089391553039     
  0.11400000000000000         0.26179798847941310     
  0.11430000000000000         0.91221671430004925     
  0.11460000000000002          1.5703845233045177     
  0.11489999999999999          2.1745863456796397     
  0.11520000000000001          2.6675043851215459     
  0.11550000000000001          3.0006707641112667     
  0.11580000000000000          3.1407271457438588     
  0.11609999999999999          3.0682686399355128     
  0.11640000000000002          2.7848256560952160     
  0.11670000000000001          2.3072694086639696     
  0.11700000000000001          1.6695220949062965     
  0.11730000000000000         0.91820307281800018     
  0.11760000000000000         0.10773651190225379     
  0.11789999999999999        -0.70416479195584403     
  0.11820000000000001         -1.4602074209211922     
  0.11850000000000001         -2.1098433562098182     
  0.11880000000000000         -2.6116014721351353     
  0.11910000000000000         -2.9367114409774642     
  0.11940000000000002         -3.0688396817918937     
  0.11970000000000001         -3.0082746822320781     
  0.12000000000000001         -2.7651842792167551     
  0.12030000000000000         -2.3654547725525723     
  0.12060000000000000         -1.8393246710734703     
  0.12089999999999999         -1.2301480123087616     
  0.12119999999999999        -0.57851621491728145     
  0.12150000000000001          6.9124112120675194E-002
  0.12180000000000001         0.67155172219892523     
  0.12210000000000000          1.1900880720607245     
  0.12239999999999999          1.5943202338331330     
  0.12270000000000002          1.8611911034998747     
  0.12300000000000001          1.9770139046617601     
  0.12330000000000001          1.9388446443604879     
  0.12360000000000000          1.7532031171314291     
  0.12390000000000000          1.4358045646492388     
  0.12419999999999999          1.0100047100053291     
  0.12450000000000001         0.50559383540282232     
  0.12480000000000001         -4.0881688839616528E-002
  0.12509999999999999        -0.59697762138564681     
  0.12540000000000001         -1.1219490623354125     
  0.12570000000000003         -1.5850169673965373     
  0.12600000000000000         -1.9553543484941283     
  0.12630000000000002         -2.2120571419195105     
  0.12659999999999999         -2.3370907685217244     
  0.12690000000000001         -2.3268466444581581     
  0.12719999999999998         -2.1827402598052776     
  0.12750000000000000         -1.9158103951428120     
  0.12780000000000002         -1.5460329513800348     
  0.12809999999999999         -1.0982100169364066     
  0.12840000000000001        -0.60438707688763393     
  0.12869999999999998         -9.5421843182699639E-002
  0.12900000000000000         0.39388130924517195     
  0.12930000000000003         0.83225905762084840     
  0.12959999999999999          1.1950451224852296     
  0.12990000000000002          1.4592091020209330     
  0.13019999999999998          1.6124493131213615     
  0.13050000000000000          1.6490954456236311     
  0.13080000000000003          1.5743750661477147     
  0.13109999999999999          1.3956126305966015     
  0.13140000000000002          1.1340682827184227     
  0.13169999999999998         0.81123807943326609     
  0.13200000000000001         0.45318638749309220     
  0.13229999999999997          8.9064081078522553E-002
  0.13260000000000000        -0.25468419656441688     
  0.13290000000000002        -0.55148654422652632     
  0.13319999999999999        -0.78227859579347070     
  0.13350000000000001        -0.92834508744120514     
  0.13380000000000003        -0.98263473068615503     
  0.13410000000000000        -0.94074435051898886     
  0.13440000000000002        -0.80777908527719933     
  0.13469999999999999        -0.59439266875183494     
  0.13500000000000001        -0.31699497480156980     
  0.13529999999999998          1.8281231943976710E-003
  0.13560000000000000         0.33913373608525571     
  0.13590000000000002         0.66743880581088111     
  0.13619999999999999         0.96247548354562273     
  0.13650000000000001          1.2010490981481972     
  0.13680000000000003          1.3643083686846813     
  0.13710000000000000          1.4404796496938395     
  0.13740000000000002          1.4214874642494080     
  0.13769999999999999          1.3105446232331535     
  0.13800000000000001          1.1122408020191954     
  0.13829999999999998         0.84372425875219226     
  0.13860000000000000         0.52023381356141829     
  0.13890000000000002         0.16718630440790502     
  0.13919999999999999        -0.19387014753907225     
  0.13950000000000001        -0.53785891357672611     
  0.13979999999999998        -0.84229500545437586     
  0.14010000000000000         -1.0892825312774013     
  0.14040000000000002         -1.2627557733840675     
  0.14069999999999999         -1.3549841885022162     
  0.14100000000000001         -1.3613277931519281     
  0.14130000000000004         -1.2847965025358385     
  0.14160000000000000         -1.1329978955653972     
  0.14189999999999997        -0.91924931918715058     
  0.14219999999999999        -0.66027535987144825     
  0.14250000000000002        -0.37477095433082991     
  0.14279999999999998         -8.5744286699768635E-002
  0.14310000000000000         0.18921088765733418     
  0.14339999999999997         0.42835748356438180     
  0.14369999999999999         0.61752033924131755     
  0.14400000000000002         0.74539489718098795     
  0.14429999999999998         0.80471922474349311     
  0.14460000000000001         0.79537005970293440     
  0.14490000000000003         0.72134311822378794     
  0.14520000000000000         0.59260364196303139     
  0.14550000000000002         0.42026360471150315     
  0.14579999999999999         0.22345648651412395     
  0.14610000000000001          1.5829324744130440E-002
  0.14640000000000003        -0.18336119450448127     
  0.14670000000000000        -0.35889914163675918     
  0.14699999999999996        -0.49850070359415311     
  0.14729999999999999        -0.59054726548533309     
  0.14760000000000001        -0.63000077479194305     
  0.14789999999999998        -0.61418194266544224     
  0.14820000000000000        -0.54574103020891740     