  -1.4999999999999999E-002     0.0000000000000000     
  -1.4700000000000000E-002     0.0000000000000000     
  -1.4400000000000000E-002     0.0000000000000000     
  -1.4100000000000000E-002     0.0000000000000000     
  -1.3800000000000000E-002     0.0000000000000000     
  -1.3500000000000000E-002     0.0000000000000000     
  -1.3200000000000000E-002     0.0000000000000000     
  -1.2899999999999998E-002     0.0000000000000000     
  -1.2600000000000000E-002     0.0000000000000000     
  -1.2299999999999998E-002    -1.0122521275496137E-036
  -1.2000000000000000E-002     1.5310330483567125E-034
  -1.1699999999999999E-002    -1.4610230553803740E-033
  -1.1399999999999999E-002    -1.7502027014808986E-032
  -1.1099999999999999E-002     1.8942689935307215E-031
  -1.0799999999999999E-002     7.1276108881837906E-031
  -1.0499999999999999E-002    -1.0975722178905193E-029
  -1.0199999999999999E-002    -1.3812768607906734E-030
  -9.8999999999999991E-003     2.9242957383033726E-028
  -9.5999999999999992E-003    -4.3037796010950744E-028
  -9.2999999999999992E-003    -4.1163585366089274E-027
  -8.9999999999999993E-003     9.7149547929235420E-027
  -8.6999999999999994E-003     3.5541861263389987E-026
  -8.3999999999999995E-003    -1.0120644211825844E-025
  -8.0999999999999996E-003    -2.4319124965935513E-025
  -7.7999999999999988E-003     6.6003153661846419E-025
  -7.4999999999999997E-003     1.6416847141222467E-024
  -7.1999999999999998E-003    -3.1862442075736211E-024
  -6.8999999999999981E-003    -1.0492242675969257E-023
  -6.5999999999999982E-003     1.2055930546714902E-023
  -6.3000000000000000E-003     5.6757200453630427E-023
  -6.0000000000000001E-003    -3.8949084497665718E-023
  -5.6999999999999985E-003    -2.0726423144443171E-022
  -5.3999999999999986E-003    -1.0197786114509955E-023
  -5.1000000000000004E-003     6.1288744685137851E-022
  -4.7999999999999987E-003     7.1681089972581660E-022
  -4.5000000000000005E-003    -1.6309544825850869E-021
  -4.1999999999999989E-003    -1.8146527585566058E-021
  -3.8999999999999990E-003    -2.9899071472024609E-021
  -3.5999999999999990E-003     6.7915634411102018E-021
  -3.2999999999999991E-003     3.4786226551715726E-020
  -2.9999999999999992E-003    -3.2613564860900119E-020
  -2.6999999999999993E-003    -9.7208307883001246E-020
  -2.3999999999999994E-003     9.1219309001773075E-021
  -2.0999999999999977E-003     2.5812514760971031E-019
  -1.7999999999999995E-003     1.1914662625801014E-019
  -1.4999999999999979E-003    -4.4887803031394813E-019
  -1.1999999999999997E-003     2.3431081451857656E-019
  -8.9999999999999976E-004    -1.6058103655867271E-018
  -5.9999999999999810E-004    -2.9159512676931325E-019
  -2.9999999999999992E-004     9.0156612764532685E-018
   0.0000000000000000         -4.5632104310312222E-018
   3.0000000000000165E-004    -1.1056516324437198E-017
   5.9999999999999984E-004     7.4201003951369895E-018
   9.0000000000000149E-004    -2.7022039021575476E-017
   1.2000000000000031E-003     4.2511042207053141E-017
   1.5000000000000013E-003     1.1869102075825293E-016
   1.8000000000000030E-003    -2.3573586717892702E-016
   2.1000000000000012E-003    -8.8993501624738318E-017
   2.3999999999999994E-003     5.3313856286755947E-016
   2.7000000000000010E-003    -6.5207473550370337E-016
   2.9999999999999992E-003    -3.3018465285860337E-016
   3.3000000000000008E-003     2.8605476211444825E-015
   3.6000000000000025E-003    -1.7689311735115334E-015
   3.9000000000000007E-003    -6.1045457847522473E-015
   4.2000000000000023E-003     7.0481598402773033E-015
   4.5000000000000005E-003     6.7547931330349519E-015
   4.7999999999999987E-003    -1.4989869322591281E-014
   5.1000000000000004E-003     2.6970697884272862E-015
   5.4000000000000020E-003     2.2697880407188312E-014
   5.7000000000000037E-003    -2.9262144620636284E-014
   5.9999999999999984E-003    -2.6352603195134685E-014
   6.3000000000000000E-003     6.6771718631616701E-014
   6.6000000000000017E-003     2.2128317508855358E-014
   6.9000000000000034E-003    -8.1364794101362784E-014
   7.2000000000000015E-003    -3.8660758905140295E-015
   7.5000000000000032E-003     2.0050477105692603E-014
   7.8000000000000014E-003    -3.0934434600596458E-014
   8.0999999999999996E-003     1.2612758167252022E-013
   8.4000000000000012E-003     4.2950645303874591E-014
   8.7000000000000029E-003    -2.2384089125096917E-013
   9.0000000000000011E-003     1.0033042649396985E-013
   9.2999999999999992E-003     4.1481736890515547E-015
   9.6000000000000009E-003    -5.8364464939441997E-013
   9.8999999999999991E-003     6.6618376621297653E-013
   1.0200000000000001E-002     1.4250879813678080E-012
   1.0500000000000002E-002    -1.4346106491346589E-012
   1.0800000000000004E-002    -2.2574960536556926E-012
   1.1099999999999999E-002     1.7507444938598004E-012
   1.1400000000000000E-002     2.5641187589816958E-012
   1.1700000000000002E-002    -2.2828198221650994E-012
   1.2000000000000004E-002    -2.4737103967280372E-012
   1.2300000000000002E-002     6.3257465267386111E-012
   1.2600000000000000E-002     3.2100964402844723E-012
   1.2900000000000002E-002    -1.8871170344105628E-011
   1.3200000000000000E-002    -5.9854193608678097E-012
   1.3500000000000002E-002     4.3959660325466652E-011
   1.3800000000000003E-002     9.1092761749230944E-012
   1.4100000000000001E-002    -8.6076362432253577E-011
   1.4400000000000000E-002    -2.0149348517714801E-012
   1.4700000000000001E-002     1.5112957070915101E-010
   1.4999999999999999E-002    -5.2416255943132556E-011
   1.5300000000000001E-002    -1.7727644740112103E-010
   1.5600000000000003E-002     2.7660201959985227E-010
   1.5899999999999997E-002    -3.8184092566989034E-010
   1.6199999999999999E-002    -1.1468930713706939E-009
   1.6500000000000001E-002     4.1963081625299001E-009
   1.6800000000000002E-002     5.1668027899219309E-009
   1.7100000000000004E-002    -2.1416996826132219E-008
   1.7400000000000006E-002    -2.8771593502988176E-008
   1.7700000000000000E-002     7.3719429112945525E-008
   1.8000000000000002E-002     1.4009315063130453E-007
   1.8300000000000004E-002    -1.9023128913069339E-007
   1.8600000000000005E-002    -6.1501783402829327E-007
   1.8900000000000000E-002     4.7048901310056758E-007
   1.9200000000000002E-002     4.7532053717586753E-006
   1.9500000000000003E-002     1.2123865457767212E-005
   1.9799999999999998E-002     2.1117139635216294E-005
   2.0100000000000000E-002     3.0988110174137827E-005
   2.0400000000000001E-002     4.1661455592535323E-005
   2.0700000000000003E-002     5.2479916594952916E-005
   2.0999999999999998E-002     6.5128990032622971E-005
   2.1299999999999999E-002     8.8777447230684609E-005
   2.1600000000000001E-002     1.3660739275590166E-004
   2.1900000000000003E-002     2.1238492450080957E-004
   2.2200000000000004E-002     3.0446099312675975E-004
   2.2500000000000006E-002     4.0047897488954058E-004
   2.2800000000000001E-002     5.0644166702790562E-004
   2.3100000000000002E-002     6.4052754133568245E-004
   2.3400000000000004E-002     8.0219774032451680E-004
   2.3699999999999999E-002     9.5279653367043174E-004
   2.4000000000000000E-002     1.0287245981017638E-003
   2.4300000000000002E-002     9.5865198156995990E-004
   2.4599999999999997E-002     6.4940604547401198E-004
   2.4900000000000005E-002    -4.5961290307230853E-005
   2.5200000000000000E-002    -1.3419975633065821E-003
   2.5499999999999995E-002    -3.5201750310066516E-003
   2.5800000000000003E-002    -6.9412933139416256E-003
   2.6099999999999998E-002    -1.2066004332025268E-002
   2.6400000000000007E-002    -1.9456950472501677E-002
   2.6700000000000002E-002    -2.9763800990835546E-002
   2.6999999999999996E-002    -4.3707018947975601E-002
   2.7300000000000005E-002    -6.2054616859464791E-002
   2.7600000000000000E-002    -8.5580580181833621E-002
   2.7900000000000008E-002   -0.11500846179927440     
   2.8200000000000003E-002   -0.15093308744185760     
   2.8499999999999998E-002   -0.19372385053478910     
   2.8800000000000006E-002   -0.24343611537754997     
   2.9100000000000001E-002   -0.29974345912552069     
   2.9400000000000003E-002   -0.36188869399478846     
   2.9700000000000004E-002   -0.42862022356544455     
   3.0000000000000006E-002   -0.49816526301001252     
   3.0300000000000001E-002   -0.56827271751066988     
   3.0600000000000002E-002   -0.63628879878671951     
   3.0900000000000004E-002   -0.69926555506005106     
   3.1199999999999999E-002   -0.75415641280968326     
   3.1500000000000007E-002   -0.79795044932677583     
   3.1800000000000002E-002   -0.82789876983891275     
   3.2099999999999997E-002   -0.84160793202159800     
   3.2400000000000005E-002   -0.83719469604716967     
   3.2700000000000000E-002   -0.81340017035726542     
   3.3000000000000002E-002   -0.76948927115951993     
   3.3300000000000003E-002   -0.70528290679783534     
   3.3599999999999998E-002   -0.62102809433311434     
   3.3900000000000000E-002   -0.51717449110862712     
   3.4200000000000001E-002   -0.39445182169599630     
   3.4500000000000003E-002   -0.25361356790074163     
   3.4799999999999998E-002    -9.5539986489102779E-002
   3.5099999999999999E-002     7.8693207142813970E-002
   3.5400000000000001E-002    0.26765518188994530     
   3.5699999999999996E-002    0.46932941951404455     
   3.6000000000000004E-002    0.68076003926810136     
   3.6299999999999999E-002    0.89791260223466374     
   3.6600000000000008E-002     1.1155514221689220     
   3.6900000000000002E-002     1.3271670393867647     
   3.7199999999999997E-002     1.5252333086656582     
   3.7500000000000006E-002     1.7015690431075945     
   3.7800000000000000E-002     1.8482111454784413     
   3.8100000000000009E-002     1.9578768554048489     
   3.8400000000000004E-002     2.0248853698388376     
   3.8699999999999998E-002     2.0459050867699955     
   3.9000000000000007E-002     2.0202685921412828     
   3.9300000000000002E-002     1.9504808509475868     
   3.9600000000000003E-002     1.8417525624739826     
   3.9900000000000005E-002     1.7016701738148501     
   4.0200000000000000E-002     1.5391738947161411     
   4.0500000000000001E-002     1.3635933721560116     
   4.0800000000000003E-002     1.1834455500727936     
   4.1100000000000005E-002     1.0054549456702575     
   4.1399999999999999E-002    0.83385743256251577     
   4.1700000000000008E-002    0.66978583701951533     
   4.2000000000000003E-002    0.51189498023793767     
   4.2299999999999997E-002    0.35685122416693621     
   4.2600000000000006E-002    0.20019155202487915     
   4.2900000000000001E-002     3.8347939582106222E-002
   4.3200000000000002E-002   -0.13032444195866807     
   4.3500000000000004E-002   -0.30453473274698090     
   4.3799999999999999E-002   -0.47859748908624367     
   4.4100000000000000E-002   -0.64302796119945627     
   4.4400000000000002E-002   -0.78473431542705074     
   4.4700000000000004E-002   -0.88805420920895872     
   4.4999999999999998E-002   -0.93749460791618644     
   4.5300000000000000E-002   -0.91902452220793296     
   4.5600000000000002E-002   -0.82327140284974676     
   4.5899999999999996E-002   -0.64745778745828941     
   4.6200000000000005E-002   -0.39691175302260273     
   4.6500000000000000E-002    -8.6386003568615422E-002
   4.6799999999999994E-002    0.26045105807588204     
   4.7100000000000003E-002    0.61211074024965384     
   4.7399999999999998E-002    0.93155150797151176     
   4.7700000000000006E-002     1.1791191918889121     
   4.8000000000000001E-002     1.3160633540783910     
   4.8300000000000010E-002     1.3089074257622277     
   4.8600000000000004E-002     1.1325445889793317     
   4.8899999999999999E-002    0.77345687534082819     
   4.9200000000000008E-002    0.23238154030720803     
   4.9500000000000002E-002   -0.47500924243891285     
   4.9800000000000011E-002    -1.3183791774253004     
   5.0100000000000006E-002    -2.2533085453029411     
   5.0400000000000000E-002    -3.2252583260037118     
   5.0700000000000009E-002    -4.1718833672805209     
   5.1000000000000004E-002    -5.0285373737053174     
   5.1299999999999998E-002    -5.7319404577412465     
   5.1600000000000007E-002    -6.2254448015818573     
   5.1900000000000002E-002    -6.4637751778958856     
   5.2200000000000010E-002    -6.4154447550598821     
   5.2500000000000005E-002    -6.0668660154238374     
   5.2800000000000000E-002    -5.4225726749582286     
   5.3099999999999994E-002    -4.5061269207499350     
   5.3400000000000003E-002    -3.3586072504805160     
   5.3699999999999998E-002    -2.0360281975999133     
   5.4000000000000006E-002   -0.60605164085348318     
   5.4300000000000001E-002    0.85655399637749596     
   5.4599999999999996E-002     2.2752354753186221     
   5.4900000000000004E-002     3.5765359093726103     
   5.5199999999999999E-002     4.6944200698841323     
   5.5499999999999994E-002     5.5763114385179327     
   5.5800000000000002E-002     6.1843854297044185     
   5.6099999999999997E-002     6.4998064606104755     
   5.6400000000000006E-002     6.5222967574122226     
   5.6700000000000000E-002     6.2704262000957209     
   5.6999999999999995E-002     5.7795694826569317     
   5.7300000000000004E-002     5.0983015722065117     
   5.7599999999999998E-002     4.2861431811382360     
   5.7900000000000007E-002     3.4064331360577302     
   5.8200000000000002E-002     2.5237765591847605     
   5.8499999999999996E-002     1.6980981247839759     
   5.8800000000000005E-002    0.98002404467840010     
   5.9100000000000000E-002    0.40869486253756748     
   5.9400000000000008E-002     8.2330129706272570E-003
   5.9700000000000003E-002   -0.21311400206143588     
   6.0000000000000012E-002   -0.26343334635633403     
   6.0300000000000006E-002   -0.16485923952056730     
   6.0600000000000001E-002     4.7082104548729367E-002
   6.0900000000000010E-002    0.32838978595860102     
   6.1200000000000004E-002    0.62906265818142448     
   6.1500000000000013E-002    0.89814245965364248     
   6.1800000000000008E-002     1.0867669687089490     
   6.2100000000000002E-002     1.1531804605370748     
   6.2399999999999997E-002     1.0653581279598703     
   6.2700000000000006E-002    0.80208388279062548     
   6.3000000000000000E-002    0.35626973896541830     
   6.3300000000000009E-002   -0.26638268263096565     
   6.3600000000000004E-002    -1.0475492307869620     
   6.3899999999999998E-002    -1.9567566582908702     
   6.4199999999999993E-002    -2.9542025406230339     
   6.4500000000000002E-002    -3.9926290321515125     
   6.4800000000000010E-002    -5.0183762217698931     
   6.5100000000000005E-002    -5.9743151372132139     
   6.5400000000000000E-002    -6.8016728327532121     
   6.5700000000000008E-002    -7.4403163221440067     
   6.5999999999999989E-002    -7.8328041256023555     
   6.6299999999999998E-002    -7.9251086205086647     
   6.6600000000000006E-002    -7.6700588529834075     
   6.6900000000000001E-002    -7.0318912379838192     
   6.7199999999999996E-002    -5.9895450024658725     
   6.7500000000000004E-002    -4.5431583000300284     
   6.7800000000000013E-002    -2.7181406257502125     
   6.8099999999999994E-002   -0.57068470024386553     
   6.8400000000000002E-002     1.8105673592867682     
   6.8700000000000011E-002     4.3038315390566249     
   6.8999999999999992E-002     6.7573934030738227     
   6.9300000000000000E-002     8.9970962643971255     
   6.9600000000000009E-002     10.837701448879002     
   6.9900000000000004E-002     12.095536526389559     
   7.0199999999999999E-002     12.607456996430502     
   7.0500000000000007E-002     12.247795774726184     
   7.0800000000000016E-002     10.942388370564677     
   7.1099999999999997E-002     8.6856632954543489     
   7.1400000000000005E-002     5.5456120735506698     
   7.1700000000000000E-002     1.6656695646195776     
   7.1999999999999995E-002    -2.7391129710100657     
   7.2300000000000003E-002    -7.3966855222606522     
   7.2600000000000012E-002    -11.997361037893002     
   7.2900000000000006E-002    -16.215769070274444     
   7.3200000000000001E-002    -19.739152523485931     
   7.3499999999999996E-002    -22.293229633161001     
   7.3800000000000004E-002    -23.663101729337562     
   7.4099999999999999E-002    -23.714300531525652     
   7.4400000000000008E-002    -22.401089483693596     
   7.4700000000000003E-002    -19.770602851268546     
   7.5000000000000011E-002    -15.956694843083826     
   7.5299999999999992E-002    -11.168339275485202     
   7.5600000000000001E-002    -5.6711938490349052     
   7.5900000000000009E-002    0.23679938811770196     
   7.6200000000000004E-002     6.2435063758345724     
   7.6499999999999999E-002     12.049864264533753     
   7.6800000000000007E-002     17.386996812640774     
   7.7099999999999988E-002     22.028180085991558     
   7.7399999999999997E-002     25.803044313732055     
   7.7700000000000005E-002     28.597954037846588     
   7.8000000000000014E-002     30.353947358485421     
   7.8299999999999995E-002     31.066337370528622     
   7.8600000000000003E-002     30.771539920672929     
   7.8900000000000012E-002     29.540468383711474     
   7.9199999999999993E-002     27.471635371838243     
   7.9500000000000001E-002     24.677645861369324     
   7.9800000000000010E-002     21.283605651027319     
   8.0100000000000018E-002     17.419385771489686     
   8.0399999999999999E-002     13.215849930506639     
   8.0700000000000008E-002     8.8039915459680422     
   8.1000000000000003E-002     4.3129482616665360     
   8.1299999999999997E-002   -0.13269326578175988     
   8.1600000000000006E-002    -4.4142939156735261     
   8.1900000000000014E-002    -8.4205088921125633     
   8.2199999999999995E-002    -12.049731406811118     
   8.2500000000000004E-002    -15.217075454476443     
   8.2799999999999999E-002    -17.850567519266885     
   8.3100000000000007E-002    -19.900454639049737     
   8.3400000000000002E-002    -21.338398701577773     
   8.3700000000000011E-002    -22.157108936887738     
   8.4000000000000005E-002    -22.372391492816561     
   8.4300000000000000E-002    -22.022388505421482     
   8.4599999999999995E-002    -21.160922004672685     
   8.4900000000000003E-002    -19.858741570017912     
   8.5199999999999998E-002    -18.197967017049130     
   8.5500000000000007E-002    -16.265704536869755     
   8.5800000000000001E-002    -14.152037961307432     
   8.6100000000000010E-002    -11.944764623788272     
   8.6399999999999991E-002    -9.7256240929294044     
   8.6699999999999999E-002    -7.5658871808314139     
   8.7000000000000008E-002    -5.5257970313118205     
   8.7300000000000003E-002    -3.6502588097106301     
   8.7599999999999997E-002    -1.9681921896902197     
   8.7900000000000006E-002   -0.49480246405919237     
   8.8200000000000014E-002    0.77154749002891099     
   8.8499999999999995E-002     1.8447574760363525     
   8.8800000000000004E-002     2.7485814824935413     
   8.9100000000000013E-002     3.5159939396298987     
   8.9399999999999993E-002     4.1824175185055168     
   8.9700000000000002E-002     4.7829652011157986     
   9.0000000000000011E-002     5.3500205631999318     
   9.0299999999999991E-002     5.9088991564331970     
   9.0600000000000000E-002     6.4742623533814099     
   9.0900000000000009E-002     7.0523896462333244     
   9.1200000000000017E-002     7.6366427801685148     
   9.1499999999999998E-002     8.2090201932002209     
   9.1800000000000007E-002     8.7450462363024783     
   9.2100000000000001E-002     9.2121247825420980     
   9.2399999999999996E-002     9.5735834100372177     
   9.2700000000000005E-002     9.7945550265835752     
   9.3000000000000013E-002     9.8426432057116600     
   9.3300000000000008E-002     9.6903959220684790     
   9.3600000000000003E-002     9.3222617820186642     
   9.3899999999999997E-002     8.7306748972688837     
   9.4200000000000006E-002     7.9217521285823054     
   9.4500000000000001E-002     6.9142968871879962     
   9.4800000000000009E-002     5.7373706687899109     
   9.5100000000000004E-002     4.4313748511367574     
   9.5399999999999999E-002     3.0458892272851923     
   9.5699999999999993E-002     1.6335095803513662     
   9.6000000000000002E-002    0.25139164212848963     
   9.6300000000000011E-002    -1.0445156601139491     
   9.6600000000000005E-002    -2.2045220078416214     
   9.6900000000000000E-002    -3.1851034779638439     
   9.7200000000000009E-002    -3.9534538924712850     
   9.7499999999999989E-002    -4.4903923807598529     
   9.7799999999999998E-002    -4.7897253222087581     
   9.8100000000000007E-002    -4.8594871917122813     
   9.8400000000000015E-002    -4.7218748429156259     
   9.8699999999999996E-002    -4.4113025757330817     
   9.9000000000000005E-002    -3.9704405288260061     
   9.9300000000000013E-002    -3.4496010200984184     
   9.9599999999999994E-002    -2.9013425978389749     
   9.9900000000000003E-002    -2.3771621308284123     
  0.10020000000000001         -1.9243575493390370     
  0.10049999999999999         -1.5813247467686631     
  0.10080000000000000         -1.3761310889513119     
  0.10110000000000001         -1.3243719152527835     
  0.10140000000000000         -1.4270017799297769     
  0.10170000000000000         -1.6716686096852655     
  0.10200000000000001         -2.0332823065168206     
  0.10230000000000002         -2.4748496183553117     
  0.10260000000000000         -2.9518039463100574     
  0.10290000000000001         -3.4149397422206254     
  0.10320000000000000         -3.8134024889605502     
  0.10350000000000001         -4.0994414813903006     
  0.10380000000000000         -4.2321647871510493     
  0.10410000000000001         -4.1812362913989523     
  0.10440000000000001         -3.9283641100949787     
  0.10470000000000000         -3.4708925282773655     
  0.10500000000000000         -2.8214241038620589     
  0.10530000000000000         -2.0071579063150233     
  0.10560000000000000         -1.0698778355096135     
  0.10590000000000001         -6.0874693051461093E-002
  0.10620000000000000         0.96110189941652524     
  0.10650000000000001          1.9352492446679594     
  0.10679999999999999          2.8032083777259360     
  0.10710000000000000          3.5129699814821134     
  0.10740000000000001          4.0241854812329851     
  0.10770000000000000          4.3114220973673358     
  0.10800000000000000          4.3649187355415346     
  0.10830000000000001          4.1928482902884108     
  0.10859999999999999          3.8203749881504834     
  0.10890000000000000          3.2861304345796265     
  0.10920000000000001          2.6397652969990348     
  0.10950000000000001          1.9385229759546485     
  0.10979999999999999          1.2399611396361598     
  0.11009999999999999         0.59859569801171575     
  0.11040000000000001          6.1359390034318478E-002
  0.11070000000000001        -0.33649591375127008     
  0.11100000000000000        -0.57502813512084106     
  0.11130000000000000        -0.64772114617011756     
  0.11160000000000002        -0.56463177543881415     
  0.11190000000000001        -0.34885637507225664     
  0.11220000000000001         -3.3686334019024156E-002
  0.11250000000000000         0.33990149248664453     
  0.11280000000000000         0.72805674421907962     
  0.11309999999999999          1.0884820956361885     
  0.11340000000000001          1.3830633073440874     
  0.11369999999999998          1.5811246563024508     
  0.11400000000000000          1.6626203491665610     
  0.11430000000000000          1.6177281685562583     
  0.11460000000000002          1.4467262687286542     
  0.11489999999999999          1.1622818965754891     
  0.11520000000000001         0.78260638826629658     
  0.11550000000000001         0.33451753181383825     
  0.11580000000000000        -0.15158694140610546     
  0.11609999999999999        -0.64446378728127751     
  0.11640000000000002         -1.1125261926490655     
  0.11670000000000001         -1.5257562139883631     
  0.11700000000000001         -1.8602700235201861     
  0.11730000000000000         -2.0950809068194758     
  0.11760000000000000         -2.2162080170027343     
  0.11789999999999999         -2.2172605542724590     
  0.11820000000000001         -2.0970416009563357     
  0.11850000000000001         -1.8619766674050657     
  0.11880000000000000         -1.5255044928815635     
  0.11910000000000000         -1.1060483046993861     
  0.11940000000000002        -0.62775136485631067     
  0.11970000000000001        -0.11822676969667933     
  0.12000000000000001         0.39173617113448728     
  0.12030000000000000         0.87257301837393864     
  0.12060000000000000          1.2940636020918954     
  0.12089999999999999          1.6300485811974725     
  0.12119999999999999          1.8591413075161201     
  0.12150000000000001          1.9663515778470575     
  0.12180000000000001          1.9440062133031804     
  0.12210000000000000          1.7927929015801183     
  0.12239999999999999          1.5214207987189894     
  0.12270000000000002          1.1461471084332167     
  0.12300000000000001         0.69013304034462419     
  0.12330000000000001         0.18105785494864240     
  0.12360000000000000        -0.34952992799675692     
  0.12390000000000000        -0.86949767352978102     
  0.12419999999999999         -1.3472460832752284     
  0.12450000000000001         -1.7541500953096971     
  0.12480000000000001         -2.0662710618964995     
  0.12509999999999999         -2.2657412780195960     
  0.12540000000000001         -2.3421110286170350     
  0.12570000000000003         -2.2918074829200892     
  0.12600000000000000         -2.1197169216043030     
  0.12630000000000002         -1.8380079168733126     
  0.12659999999999999         -1.4644863686326359     
  0.12690000000000001         -1.0234528912184286     
  0.12719999999999998        -0.54226811057844571     
  0.12750000000000000         -4.9826407591748501E-002
  0.12780000000000002         0.42478254010651656     
  0.12809999999999999         0.85326456140145801     
  0.12840000000000001          1.2130175367001448     
  0.12869999999999998          1.4843748434623225     
  0.12900000000000000          1.6552915737915495     
  0.12930000000000003          1.7202382820299640     
  0.12959999999999999          1.6809311186081819     
  0.12990000000000002          1.5450097846135049     
  0.13019999999999998          1.3272408909742346     
  0.13050000000000000          1.0461871659673361     
  0.13080000000000003         0.72460349893895171     
  0.13109999999999999         0.38612356421383565     
  0.13140000000000002          5.4660684558781439E-002
  0.13169999999999998        -0.24793120030709587     
  0.13200000000000001        -0.50234734821179772     
  0.13229999999999997        -0.69443444211552952     
  0.13260000000000000        -0.81411938356919022     
  0.13290000000000002        -0.85755921901700449     
  0.13319999999999999        -0.82552388291615486     
  0.13350000000000001        -0.72473420948923040     
  0.13380000000000003        -0.56529841221442700     
  0.13410000000000000        -0.36195269597239782     
  0.13440000000000002        -0.13119496143912757     
  0.13469999999999999         0.10898161378877100     
  0.13500000000000001         0.34059103893316856     
  0.13529999999999998         0.54557542813534221     
  0.13560000000000000         0.70930878675543807     
  0.13590000000000002         0.81947333635745412     
  0.13619999999999999         0.86736673329857517     
  0.13650000000000001         0.84959042876557600     
  0.13680000000000003         0.76645647914650972     
  0.13710000000000000         0.62368024937285460     
  0.13740000000000002         0.43124273204072272     
  0.13769999999999999         0.20259684438477604     
  0.13800000000000001         -4.5863730197815256E-002
  0.13829999999999998        -0.29634008360533287     
  0.13860000000000000        -0.53080464897127344     
  0.13890000000000002        -0.73264223283821073     
  0.13919999999999999        -0.88780824683109594     
  0.13950000000000001        -0.98556360899580286     
  0.13979999999999998         -1.0199456551714576     
  0.14010000000000000        -0.98970350806609986     
  0.14040000000000002        -0.89763973303752831     
  0.14069999999999999        -0.75210472503801840     
  0.14100000000000001        -0.56399856210235366     
  0.14130000000000004        -0.34685899869879222     
  0.14160000000000000        -0.11668619461194832     
  0.14189999999999997         0.11178001367161297     
  0.14219999999999999         0.32297089398666379     
  0.14250000000000002         0.50403264390535829     
  0.14279999999999998         0.64418278405765861     
  0.14310000000000000         0.73565225801587097     
  0.14339999999999997         0.77417276381264777     
  0.14369999999999999         0.75918239430162637     
  0.14400000000000002         0.69334925479881881     
  0.14429999999999998         0.58300484072190539     
  0.14460000000000001         0.43728736951300912     
  0.14490000000000003         0.26752832910004720     
  0.14520000000000000          8.6837588460562540E-002
  0.14550000000000002         -9.1177956745284644E-002
  0.14579999999999999        -0.25274779200195702     
  0.14610000000000001        -0.38601217459517867     
  0.14640000000000003        -0.48134333343987490     
  0.14670000000000000        -0.53135254077628280     
  0.14699999999999996        -0.53344966974581443     
  0.14729999999999999        -0.48767701597839475     
  0.14760000000000001        -0.39855038239578078     
  0.14789999999999998        -0.27384258643702586     
  0.14820000000000000        -0.12441469501813124     