  -1.4999999999999999E-002     0.0000000000000000     
  -1.4700000000000000E-002     0.0000000000000000     
  -1.4400000000000000E-002     0.0000000000000000     
  -1.4100000000000000E-002     0.0000000000000000     
  -1.3800000000000000E-002     0.0000000000000000     
  -1.3500000000000000E-002     0.0000000000000000     
  -1.3200000000000000E-002     0.0000000000000000     
  -1.2899999999999998E-002     0.0000000000000000     
  -1.2600000000000000E-002     0.0000000000000000     
  -1.2299999999999998E-002     0.0000000000000000     
  -1.2000000000000000E-002     0.0000000000000000     
  -1.1699999999999999E-002     0.0000000000000000     
  -1.1399999999999999E-002     0.0000000000000000     
  -1.1099999999999999E-002     0.0000000000000000     
  -1.0799999999999999E-002     0.0000000000000000     
  -1.0499999999999999E-002     0.0000000000000000     
  -1.0199999999999999E-002     0.0000000000000000     
  -9.8999999999999991E-003     0.0000000000000000     
  -9.5999999999999992E-003     0.0000000000000000     
  -9.2999999999999992E-003     0.0000000000000000     
  -8.9999999999999993E-003     0.0000000000000000     
  -8.6999999999999994E-003     0.0000000000000000     
  -8.3999999999999995E-003     0.0000000000000000     
  -8.0999999999999996E-003     0.0000000000000000     
  -7.7999999999999988E-003     0.0000000000000000     
  -7.4999999999999997E-003     0.0000000000000000     
  -7.1999999999999998E-003     0.0000000000000000     
  -6.8999999999999981E-003     0.0000000000000000     
  -6.5999999999999982E-003     0.0000000000000000     
  -6.3000000000000000E-003     0.0000000000000000     
  -6.0000000000000001E-003     0.0000000000000000     
  -5.6999999999999985E-003     0.0000000000000000     
  -5.3999999999999986E-003     0.0000000000000000     
  -5.1000000000000004E-003     0.0000000000000000     
  -4.7999999999999987E-003     0.0000000000000000     
  -4.5000000000000005E-003     0.0000000000000000     
  -4.1999999999999989E-003     0.0000000000000000     
  -3.8999999999999990E-003     0.0000000000000000     
  -3.5999999999999990E-003     0.0000000000000000     
  -3.2999999999999991E-003     0.0000000000000000     
  -2.9999999999999992E-003     0.0000000000000000     
  -2.6999999999999993E-003     0.0000000000000000     
  -2.3999999999999994E-003     0.0000000000000000     
  -2.0999999999999977E-003     0.0000000000000000     
  -1.7999999999999995E-003     0.0000000000000000     
  -1.4999999999999979E-003     0.0000000000000000     
  -1.1999999999999997E-003     0.0000000000000000     
  -8.9999999999999976E-004     0.0000000000000000     
  -5.9999999999999810E-004     0.0000000000000000     
  -2.9999999999999992E-004     0.0000000000000000     
   0.0000000000000000          0.0000000000000000     
   3.0000000000000165E-004     0.0000000000000000     
   5.9999999999999984E-004     0.0000000000000000     
   9.0000000000000149E-004     0.0000000000000000     
   1.2000000000000031E-003     0.0000000000000000     
   1.5000000000000013E-003     0.0000000000000000     
   1.8000000000000030E-003     0.0000000000000000     
   2.1000000000000012E-003     0.0000000000000000     
   2.3999999999999994E-003     0.0000000000000000     
   2.7000000000000010E-003     0.0000000000000000     
   2.9999999999999992E-003     0.0000000000000000     
   3.3000000000000008E-003     0.0000000000000000     
   3.6000000000000025E-003     0.0000000000000000     
   3.9000000000000007E-003     0.0000000000000000     
   4.2000000000000023E-003     0.0000000000000000     
   4.5000000000000005E-003     0.0000000000000000     
   4.7999999999999987E-003     0.0000000000000000     
   5.1000000000000004E-003     0.0000000000000000     
   5.4000000000000020E-003     0.0000000000000000     
   5.7000000000000037E-003     0.0000000000000000     
   5.9999999999999984E-003     0.0000000000000000     
   6.3000000000000000E-003     0.0000000000000000     
   6.6000000000000017E-003     0.0000000000000000     
   6.9000000000000034E-003     0.0000000000000000     
   7.2000000000000015E-003     0.0000000000000000     
   7.5000000000000032E-003     0.0000000000000000     
   7.8000000000000014E-003     0.0000000000000000     
   8.0999999999999996E-003     0.0000000000000000     
   8.4000000000000012E-003     0.0000000000000000     
   8.7000000000000029E-003     0.0000000000000000     
   9.0000000000000011E-003     0.0000000000000000     
   9.2999999999999992E-003     0.0000000000000000     
   9.6000000000000009E-003     0.0000000000000000     
   9.8999999999999991E-003     0.0000000000000000     
   1.0200000000000001E-002     0.0000000000000000     
   1.0500000000000002E-002    -8.2656452100870457E-043
   1.0800000000000004E-002     2.9515569845494450E-042
   1.1099999999999999E-002    -2.5501903666667481E-042
   1.1400000000000000E-002     6.5279748524427186E-042
   1.1700000000000002E-002     4.9938445812497205E-040
   1.2000000000000004E-002    -6.0399848636416158E-038
   1.2300000000000002E-002    -2.6130106867907669E-038
   1.2600000000000000E-002     2.8844562646675751E-037
   1.2900000000000002E-002    -6.7649313685030919E-037
   1.3200000000000000E-002    -1.1315373867658780E-036
   1.3500000000000002E-002     3.8508018507685389E-036
   1.3800000000000003E-002    -1.8497066979168333E-036
   1.4100000000000001E-002    -1.1412009907443590E-035
   1.4400000000000000E-002     1.4403837215931761E-035
   1.4700000000000001E-002    -5.2248677736816793E-035
   1.4999999999999999E-002     1.1740233900385458E-034
   1.5300000000000001E-002    -2.2499147505557860E-034
   1.5600000000000003E-002     4.0636081996544149E-034
   1.5899999999999997E-002    -7.2939114053381682E-034
   1.6199999999999999E-002     1.1388368548483027E-033
   1.6500000000000001E-002    -5.0602379465714379E-034
   1.6800000000000002E-002    -7.4436373880758703E-034
   1.7100000000000004E-002     2.8056287107553943E-033
   1.7400000000000006E-002    -4.1665453022389642E-033
   1.7700000000000000E-002     3.6872399127594146E-033
   1.8000000000000002E-002     4.4305077797921974E-035
   1.8300000000000004E-002    -6.6121849588734800E-033
   1.8600000000000005E-002     1.5359094284485851E-032
   1.8900000000000000E-002    -2.4690000208229667E-032
   1.9200000000000002E-002     2.7712382559427505E-032
   1.9500000000000003E-002    -1.9641130291478529E-032
   1.9799999999999998E-002    -2.4862122851407912E-033
   2.0100000000000000E-002     4.1284341181002724E-032
   2.0400000000000001E-002    -9.2054570385264915E-032
   2.0700000000000003E-002     1.3667774672201512E-031
   2.0999999999999998E-002    -1.5102816966315253E-031
   2.1299999999999999E-002     1.5256460030403977E-031
   2.1600000000000001E-002    -2.6543875286763549E-031
   2.1900000000000003E-002     6.8082355104383654E-031
   2.2200000000000004E-002    -1.2297635905333058E-030
   2.2500000000000006E-002    -1.0044319909134148E-031
   2.2800000000000001E-002     1.1270207582970170E-029
   2.3100000000000002E-002    -5.4395471159470870E-029
   2.3400000000000004E-002     1.7096757734010576E-028
   2.3699999999999999E-002    -3.8133571245673624E-028
   2.4000000000000000E-002     4.6190699799451901E-028
   2.4300000000000002E-002     7.3503912986593800E-028
   2.4599999999999997E-002    -6.4719356628498538E-027
   2.4900000000000005E-002     2.1461299112255805E-026
   2.5200000000000000E-002    -3.7937613756925675E-026
   2.5499999999999995E-002    -2.1067538384610222E-026
   2.5800000000000003E-002     4.2950439428050323E-025
   2.6099999999999998E-002    -1.7235950283295750E-024
   2.6400000000000007E-002     3.8966632830828469E-024
   2.6700000000000002E-002    -2.4464275559316193E-024
   2.6999999999999996E-002    -2.1490121960501045E-023
   2.7300000000000005E-002     1.0995720731349739E-022
   2.7600000000000000E-002    -2.8895827243219231E-022
   2.7900000000000008E-002     3.6378419167576502E-022
   2.8200000000000003E-002     5.2598753882803513E-022
   2.8499999999999998E-002    -4.0871035263346613E-021
   2.8800000000000006E-002     1.0932771884338718E-020
   2.9100000000000001E-002    -1.4541062009686052E-020
   2.9400000000000003E-002    -4.0004923115318363E-021
   2.9700000000000004E-002     6.2266842368325647E-020
   3.0000000000000006E-002    -1.4325786510307403E-019
   3.0300000000000001E-002     2.5550092570863570E-019
   3.0600000000000002E-002    -7.5991720802531689E-019
   3.0900000000000004E-002     2.3382745497615160E-018
   3.1199999999999999E-002    -2.6260641982238698E-018
   3.1500000000000007E-002    -1.3046020463424338E-017
   3.1800000000000002E-002     7.1004923063514698E-017
   3.2099999999999997E-002    -1.4028409462781502E-016
   3.2400000000000005E-002    -4.5665205130469938E-017
   3.2700000000000000E-002     1.0064757820856596E-015
   3.3000000000000002E-002    -2.4750009652005809E-015
   3.3300000000000003E-002     7.8580910569841229E-016
   3.3599999999999998E-002     1.1373151444398245E-014
   3.3900000000000000E-002    -3.1117398370818993E-014
   3.4200000000000001E-002     1.3159313208505481E-014
   3.4500000000000003E-002     1.2604430252212796E-013
   3.4799999999999998E-002    -3.2861294048079666E-013
   3.5099999999999999E-002     5.0777717672684451E-014
   3.5400000000000001E-002     1.4670605693056456E-012
   3.5699999999999996E-002    -2.8909335074504950E-012
   3.6000000000000004E-002    -1.8877898622373325E-012
   3.6299999999999999E-002     1.6268278424593993E-011
   3.6600000000000008E-002    -1.5617233453938993E-011
   3.6900000000000002E-002    -5.1113689697446350E-011
   3.7199999999999997E-002     1.3277265935178194E-010
   3.7500000000000006E-002     6.9543367644351310E-011
   3.7800000000000000E-002    -6.3515418461578490E-010
   3.8100000000000009E-002     2.8295532612481651E-010
   3.8400000000000004E-002     2.3850649328276978E-009
   3.8699999999999998E-002    -2.7126504017608490E-009
   3.9000000000000007E-002    -7.9800345899305737E-009
   3.9300000000000002E-002     1.3811284075725554E-008
   3.9600000000000003E-002     2.6601975218185745E-008
   3.9900000000000005E-002    -5.5985220018431628E-008
   4.0200000000000000E-002    -1.0051570422662357E-007
   4.0500000000000001E-002     1.7951014284149720E-007
   4.0800000000000003E-002     3.9332230913869131E-007
   4.1100000000000005E-002    -4.7680069361904705E-007
   4.1399999999999999E-002    -1.5985528208848917E-006
   4.1700000000000008E-002     1.3502617027716256E-006
   4.2000000000000003E-002     1.2226358509706983E-005
   4.2299999999999997E-002     2.8379848801624365E-005
   4.2600000000000006E-002     4.2164953198185677E-005
   4.2900000000000001E-002     5.0628126529880490E-005
   4.3200000000000002E-002     6.1864617694086543E-005
   4.3500000000000004E-002     9.0255239472845182E-005
   4.3799999999999999E-002     1.4658390389825067E-004
   4.4100000000000000E-002     2.3454800744491085E-004
   4.4400000000000002E-002     3.5786741066959202E-004
   4.4700000000000004E-002     5.2959706496074764E-004
   4.4999999999999998E-002     7.7121049870983952E-004
   4.5300000000000000E-002     1.1037840560858669E-003
   4.5600000000000002E-002     1.5478593443002181E-003
   4.5899999999999996E-002     2.1334850324361996E-003
   4.6200000000000005E-002     2.9001896394391497E-003
   4.6500000000000000E-002     3.8828666808731933E-003
   4.6799999999999994E-002     5.1055865959685207E-003
   4.7100000000000003E-002     6.5885144150668396E-003
   4.7399999999999998E-002     8.3462531570316842E-003
   4.7700000000000006E-002     1.0371697850081194E-002
   4.8000000000000001E-002     1.2621925474150114E-002
   4.8300000000000010E-002     1.5009583219611294E-002
   4.8600000000000004E-002     1.7396933104804127E-002
   4.8899999999999999E-002     1.9599102920776740E-002
   4.9200000000000008E-002     2.1392806677480423E-002
   4.9500000000000002E-002     2.2502928376385643E-002
   4.9800000000000011E-002     2.2590914588967469E-002
   5.0100000000000006E-002     2.1288391108149333E-002
   5.0400000000000000E-002     1.8262389416923135E-002
   5.0700000000000009E-002     1.3246764398213675E-002
   5.1000000000000004E-002     6.0581497187247356E-003
   5.1299999999999998E-002    -3.3585225979559504E-003
   5.1600000000000007E-002    -1.4856185079011278E-002
   5.1900000000000002E-002    -2.8059936932924988E-002
   5.2200000000000010E-002    -4.2369236834452394E-002
   5.2500000000000005E-002    -5.6953562989601997E-002
   5.2800000000000000E-002    -7.0769942797754018E-002
   5.3099999999999994E-002    -8.2652398373127683E-002
   5.3400000000000003E-002    -9.1421475799860819E-002
   5.3699999999999998E-002    -9.5987012374244701E-002
   5.4000000000000006E-002    -9.5470124664291334E-002
   5.4300000000000001E-002    -8.9339367882200343E-002
   5.4599999999999996E-002    -7.7540467906077132E-002
   5.4900000000000004E-002    -6.0598592295233011E-002
   5.5199999999999999E-002    -3.9634743449774752E-002
   5.5499999999999994E-002    -1.6340765860270914E-002
   5.5800000000000002E-002     7.1086687162409314E-003
   5.6099999999999997E-002     2.8165564365266106E-002
   5.6400000000000006E-002     4.4058242827243611E-002
   5.6700000000000000E-002     5.2000240649899998E-002
   5.6999999999999995E-002     4.9410182871600150E-002
   5.7300000000000004E-002     3.4108744353272415E-002
   5.7599999999999998E-002     4.4874457708436368E-003
   5.7900000000000007E-002    -4.0301833689343577E-002
   5.8200000000000002E-002   -0.10020920303874224     
   5.8499999999999996E-002   -0.17421633793119937     
   5.8800000000000005E-002   -0.26026640637644471     
   5.9100000000000000E-002   -0.35517930457613051     
   5.9400000000000008E-002   -0.45463720836129273     
   5.9700000000000003E-002   -0.55322769267417993     
   6.0000000000000012E-002   -0.64446700486864861     
   6.0300000000000006E-002   -0.72102726736799116     
   6.0600000000000001E-002   -0.77494287871174072     
   6.0900000000000010E-002   -0.79809310875030237     
   6.1200000000000004E-002   -0.78273553928014705     
   6.1500000000000013E-002   -0.72218141442110051     
   6.1800000000000008E-002   -0.61156516266044536     
   6.2100000000000002E-002   -0.44869158398441822     
   6.2399999999999997E-002   -0.23469245320662052     
   6.2700000000000006E-002     2.5449007462609537E-002
   6.3000000000000000E-002    0.32256166174564682     
   6.3300000000000009E-002    0.64339765062824550     
   6.3600000000000004E-002    0.97124171123383407     
   6.3899999999999998E-002     1.2867406381976192     
   6.4199999999999993E-002     1.5693266589011754     
   6.4500000000000002E-002     1.7988911197829038     
   6.4800000000000010E-002     1.9574642194133669     
   6.5100000000000005E-002     2.0310152884704085     
   6.5400000000000000E-002     2.0108792294375779     
   6.5700000000000008E-002     1.8949214745770213     
   6.5999999999999989E-002     1.6879987231713072     
   6.6299999999999998E-002     1.4018093762063348     
   6.6600000000000006E-002     1.0541516753502969     
   6.6900000000000001E-002    0.66755658348291957     
   6.7199999999999996E-002    0.26737303947840224     
   6.7500000000000004E-002   -0.12029881564031955     
   6.7800000000000013E-002   -0.47076864730420165     
   6.8099999999999994E-002   -0.76285771207740560     
   6.8400000000000002E-002   -0.98050208260281302     
   6.8700000000000011E-002    -1.1139120792979105     
   6.8999999999999992E-002    -1.1601169190630451     
   6.9300000000000000E-002    -1.1228216257856261     
   6.9600000000000009E-002    -1.0118912349623876     
   6.9900000000000004E-002   -0.84212624963348426     
   7.0199999999999999E-002   -0.63194831108783944     
   7.0500000000000007E-002   -0.40161451863044484     
   7.0800000000000016E-002   -0.17171236974195211     
   7.1099999999999997E-002     3.8396539025788573E-002
   7.1400000000000005E-002    0.21181796337141706     
   7.1700000000000000E-002    0.33531170688190082     
   7.1999999999999995E-002    0.39968576549845769     
   7.2300000000000003E-002    0.40048218508221178     
   7.2600000000000012E-002    0.33800142411845863     
   7.2900000000000006E-002    0.21692302028314503     
   7.3200000000000001E-002     4.6143968503166474E-002
   7.3499999999999996E-002   -0.16178928504331586     
   7.3800000000000004E-002   -0.39177777769305466     
   7.4099999999999999E-002   -0.62670430487490913     
   7.4400000000000008E-002   -0.84863737626947666     
   7.4700000000000003E-002    -1.0400690968922945     
   7.5000000000000011E-002    -1.1848914076521955     
   7.5299999999999992E-002    -1.2695682293434563     
   7.5600000000000001E-002    -1.2842737879142658     
   7.5900000000000009E-002    -1.2234682414264575     
   7.6200000000000004E-002    -1.0866781687928571     
   7.6499999999999999E-002   -0.87887420591402576     
   7.6800000000000007E-002   -0.61004102395737747     
   7.7099999999999988E-002   -0.29485479232938977     
   7.7399999999999997E-002     4.7967383654215871E-002
   7.7700000000000005E-002    0.39706382359488457     
   7.8000000000000014E-002    0.72970344498156303     
   7.8299999999999995E-002     1.0232095912220820     
   7.8600000000000003E-002     1.2565527694848120     
   7.8900000000000012E-002     1.4119235250851876     
   7.9199999999999993E-002     1.4756041608538102     
   7.9500000000000001E-002     1.4394057337077901     
   7.9800000000000010E-002     1.3010340277685426     
   8.0100000000000018E-002     1.0644185440182221     
   8.0399999999999999E-002    0.73971796005091639     
   8.0700000000000008E-002    0.34269649412457093     
   8.1000000000000003E-002   -0.10604971574337428     
   8.1299999999999997E-002   -0.58229346375266244     
   8.1600000000000006E-002    -1.0594921147856740     
   8.1900000000000014E-002    -1.5103022578116883     
   8.2199999999999995E-002    -1.9082893919301736     
   8.2500000000000004E-002    -2.2292614764489893     
   8.2799999999999999E-002    -2.4529927442589985     
   8.3100000000000007E-002    -2.5642236409107615     
   8.3400000000000002E-002    -2.5538112202791670     
   8.3700000000000011E-002    -2.4190897323235818     
   8.4000000000000005E-002    -2.1644743151870562     
   8.4300000000000000E-002    -1.8010070839363745     
   8.4599999999999995E-002    -1.3459031494027913     
   8.4900000000000003E-002   -0.82179401493784066     
   8.5199999999999998E-002   -0.25517912587926772     
   8.5500000000000007E-002    0.32475100429621329     
   8.5800000000000001E-002    0.88800764068879268     
   8.6100000000000010E-002     1.4053759427780668     
   8.6399999999999991E-002     1.8502758626344638     
   8.6699999999999999E-002     2.2004431220387830     
   8.7000000000000008E-002     2.4392167982594497     
   8.7300000000000003E-002     2.5567004392075918     
   8.7599999999999997E-002     2.5505474217888451     
   8.7900000000000006E-002     2.4261500162938061     
   8.8200000000000014E-002     2.1962450423437190     
   8.8499999999999995E-002     1.8802837277613129     
   8.8800000000000004E-002     1.5030675910739395     
   8.9100000000000013E-002     1.0927010020360126     
   8.9399999999999993E-002    0.67914901238301262     
   8.9700000000000002E-002    0.29118220397261291     
   9.0000000000000011E-002    -4.5125092009613753E-002
   9.0299999999999991E-002   -0.30869892098414509     
   9.0600000000000000E-002   -0.48508421335293761     
   9.0900000000000009E-002   -0.56734036036070845     
   9.1200000000000017E-002   -0.55613352288950335     
   9.1499999999999998E-002   -0.45987337546169527     
   9.1800000000000007E-002   -0.29339688673002756     
   9.2100000000000001E-002    -7.5806636178107234E-002
   9.2399999999999996E-002    0.17049110907553081     
   9.2700000000000005E-002    0.42266811233885554     
   9.3000000000000013E-002    0.65976695709280075     
   9.3300000000000008E-002    0.86370783555184794     
   9.3600000000000003E-002     1.0211784303013638     
   9.3899999999999997E-002     1.1243337566969487     
   9.4200000000000006E-002     1.1705607486682730     
   9.4500000000000001E-002     1.1621040126370772     
   9.4800000000000009E-002     1.1050383212619965     
   9.5100000000000004E-002     1.0078085979298641     
   9.5399999999999999E-002    0.87989630603800473     
   9.5699999999999993E-002    0.73042284521346357     
   9.6000000000000002E-002    0.56672240949562014     
   9.6300000000000011E-002    0.39442750836537283     
   9.6600000000000005E-002    0.21646574137662822     
   9.6900000000000000E-002     3.3870431911864035E-002
   9.7200000000000009E-002   -0.15390563568286258     
   9.7499999999999989E-002   -0.34786311099894079     
   9.7799999999999998E-002   -0.54849893878058564     
   9.8100000000000007E-002   -0.75511474796540790     
   9.8400000000000015E-002   -0.96466803707526227     
   9.8699999999999996E-002    -1.1720340007420691     
   9.9000000000000005E-002    -1.3700098858254790     
   9.9300000000000013E-002    -1.5495056286754827     
   9.9599999999999994E-002    -1.7008611123680417     
   9.9900000000000003E-002    -1.8146710830298813     
  0.10020000000000001         -1.8829932666383553     
  0.10049999999999999         -1.9002116157121733     
  0.10080000000000000         -1.8641598909948067     
  0.10110000000000001         -1.7756957245713183     
  0.10140000000000000         -1.6393486774296029     
  0.10170000000000000         -1.4625278388125484     
  0.10200000000000001         -1.2542402499653131     
  0.10230000000000002         -1.0247008312707155     
  0.10260000000000000        -0.78366035404076284     
  0.10290000000000001        -0.53939488906522748     
  0.10320000000000000        -0.29821753545820251     
  0.10350000000000001         -6.3945936527600861E-002
  0.10380000000000000         0.16210222328859522     
  0.10410000000000001         0.38036327976881884     
  0.10440000000000001         0.59227069631401541     
  0.10470000000000000         0.79963983363545654     
  0.10500000000000000          1.0025351981034922     
  0.10530000000000000          1.1991658083476631     
  0.10560000000000000          1.3849792828184762     
  0.10590000000000001          1.5520627953467663     
  0.10620000000000000          1.6897489718461096     
  0.10650000000000001          1.7852519406216891     
  0.10679999999999999          1.8248869499153737     
  0.10710000000000000          1.7954352673587857     
  0.10740000000000001          1.6861939461874349     
  0.10770000000000000          1.4903887962293325     
  0.10800000000000000          1.2065583787598069     
  0.10830000000000001         0.83985749730797010     
  0.10859999999999999         0.40224292377759074     
  0.10890000000000000         -8.7630569129435204E-002
  0.10920000000000001        -0.60523572778486323     
  0.10950000000000001         -1.1214022689584375     
  0.10979999999999999         -1.6049036822073646     
  0.11009999999999999         -2.0241319802959508     
  0.11040000000000001         -2.3497629839443945     
  0.11070000000000001         -2.5573665193084061     
  0.11100000000000000         -2.6290179468897801     
  0.11130000000000000         -2.5553051850117212     
  0.11160000000000002         -2.3362013273290034     
  0.11190000000000001         -1.9811754439968721     
  0.11220000000000001         -1.5086511337400013     
  0.11250000000000000        -0.94490880583491643     
  0.11280000000000000        -0.32239359477092011     
  0.11309999999999999         0.32292235046682954     
  0.11340000000000001         0.95362827799388072     
  0.11369999999999998          1.5335375823846797     
  0.11400000000000000          2.0300614115484437     
  0.11430000000000000          2.4163198422775265     
  0.11460000000000002          2.6723495085019588     
  0.11489999999999999          2.7867871065258845     
  0.11520000000000001          2.7567771886593073     
  0.11550000000000001          2.5879594740052521     
  0.11580000000000000          2.2941521835001319     
  0.11609999999999999          1.8958933420755821     
  0.11640000000000002          1.4189402953124979     
  0.11670000000000001         0.89275732581517220     
  0.11700000000000001         0.34816787694232698     
  0.11730000000000000        -0.18465674262019882     
  0.11760000000000000        -0.67801503552148157     
  0.11789999999999999         -1.1087256501766056     
  0.11820000000000001         -1.4599039109937217     
  0.11850000000000001         -1.7213268090243112     
  0.11880000000000000         -1.8904475744857265     
  0.11910000000000000         -1.9721750666446880     
  0.11940000000000002         -1.9775592035104266     
  0.11970000000000001         -1.9228659908960224     
  0.12000000000000001         -1.8271674690035544     
  0.12030000000000000         -1.7099729365370093     
  0.12060000000000000         -1.5886030068077912     
  0.12089999999999999         -1.4768937516010592     
  0.12119999999999999         -1.3823002974827516     
  0.12150000000000001         -1.3055162718883246     
  0.12180000000000001         -1.2404703047383392     
  0.12210000000000000         -1.1743166929908597     
  0.12239999999999999         -1.0893968670499388     
  0.12270000000000002        -0.96622178515803636     
  0.12300000000000001        -0.78490463709057867     
  0.12330000000000001        -0.52880301068182944     
  0.12360000000000000        -0.18734688007416711     
  0.12390000000000000         0.24283212853731662     
  0.12419999999999999         0.75590642442830613     
  0.12450000000000001          1.3359965003650285     
  0.12480000000000001          1.9593418350384280     
  0.12509999999999999          2.5940416075400079     
  0.12540000000000001          3.2036048429000914     
  0.12570000000000003          3.7494850952828678     
  0.12600000000000000          4.1939086712104263     
  0.12630000000000002          4.5034780387647526     
  0.12659999999999999          4.6517294951674888     
  0.12690000000000001          4.6216542970679875     
  0.12719999999999998          4.4072075924141787     
  0.12750000000000000          4.0141296765231527     
  0.12780000000000002          3.4592780213151224     
  0.12809999999999999          2.7703185928608245     
  0.12840000000000001          1.9832990727428745     
  0.12869999999999998          1.1400647922173170     
  0.12900000000000000         0.28556519740197484     
  0.12930000000000003        -0.53594455121777340     
  0.12959999999999999         -1.2835752546946178     
  0.12990000000000002         -1.9232696387094261     
  0.13019999999999998         -2.4297774603852744     
  0.13050000000000000         -2.7883950591127658     
  0.13080000000000003         -2.9964230826885894     
  0.13109999999999999         -3.0619722003610206     
  0.13140000000000002         -3.0036772830821059     
  0.13169999999999998         -2.8485390257527712     
  0.13200000000000001         -2.6291579904479399     
  0.13229999999999997         -2.3807489456062165     
  0.13260000000000000         -2.1384720861495854     
  0.13290000000000002         -1.9335076700856240     
  0.13319999999999999         -1.7912770186352933     
  0.13350000000000001         -1.7291704474748781     
  0.13380000000000003         -1.7550199213365127     
  0.13410000000000000         -1.8674907433585211     
  0.13440000000000002         -2.0561842951340190     
  0.13469999999999999         -2.3026999483467510     
  0.13500000000000001         -2.5831062974587242     
  0.13529999999999998         -2.8700473436503069     
  0.13560000000000000         -3.1350935244031861     
  0.13590000000000002         -3.3509381961129510     
  0.13619999999999999         -3.4941756579424976     
  0.13650000000000001         -3.5464003683154672     
  0.13680000000000003         -3.4954888651247105     
  0.13710000000000000         -3.3366033834006501     
  0.13740000000000002         -3.0720149956315472     
  0.13769999999999999         -2.7102757701559277     
  0.13800000000000001         -2.2658787591695777     
  0.13829999999999998         -1.7575976141734522     
  0.13860000000000000         -1.2067528458147907     
  0.13890000000000002        -0.63621681359937132     
  0.13919999999999999         -6.8074961998107586E-002
  0.13950000000000001         0.47781758967917942     
  0.13979999999999998         0.98445840809345375     
  0.14010000000000000          1.4397152777184739     
  0.14040000000000002          1.8363480394949536     
  0.14069999999999999          2.1711864931424647     
  0.14100000000000001          2.4464998156176425     
  0.14130000000000004          2.6680233956986439     
  0.14160000000000000          2.8434791010588638     
  0.14189999999999997          2.9826182282360687     
  0.14219999999999999          3.0949351023013807     
  0.14250000000000002          3.1882517397292953     
  0.14279999999999998          3.2686490674628779     
  0.14310000000000000          3.3396583561831790     
  0.14339999999999997          3.4015665953619596     
  0.14369999999999999          3.4523538208605791     
  0.14400000000000002          3.4881565823833154     
  0.14429999999999998          3.5042045847593362     
  0.14460000000000001          3.4958889882858166     
  0.14490000000000003          3.4593519986771977     
  0.14520000000000000          3.3929339783191876     
  0.14550000000000002          3.2967773319001594     
  0.14579999999999999          3.1733773593599839     
  0.14610000000000001          3.0283044893294262     
  0.14640000000000003          2.8675757755536626     
  0.14670000000000000          2.6989028353896742     
  0.14699999999999996          2.5299668671429094     
  0.14729999999999999          2.3671662814470684     
  0.14760000000000001          2.2156574980477894     
  0.14789999999999998          2.0783835315835448     
  0.14820000000000000          1.9546246512778231     