  -1.4999999999999999E-002     0.0000000000000000     
  -1.4700000000000000E-002     0.0000000000000000     
  -1.4400000000000000E-002     0.0000000000000000     
  -1.4100000000000000E-002     0.0000000000000000     
  -1.3800000000000000E-002     0.0000000000000000     
  -1.3500000000000000E-002     0.0000000000000000     
  -1.3200000000000000E-002     0.0000000000000000     
  -1.2899999999999998E-002     0.0000000000000000     
  -1.2600000000000000E-002     0.0000000000000000     
  -1.2299999999999998E-002     0.0000000000000000     
  -1.2000000000000000E-002     0.0000000000000000     
  -1.1699999999999999E-002     0.0000000000000000     
  -1.1399999999999999E-002     0.0000000000000000     
  -1.1099999999999999E-002     0.0000000000000000     
  -1.0799999999999999E-002     0.0000000000000000     
  -1.0499999999999999E-002     0.0000000000000000     
  -1.0199999999999999E-002     0.0000000000000000     
  -9.8999999999999991E-003     0.0000000000000000     
  -9.5999999999999992E-003     0.0000000000000000     
  -9.2999999999999992E-003     0.0000000000000000     
  -8.9999999999999993E-003     0.0000000000000000     
  -8.6999999999999994E-003     0.0000000000000000     
  -8.3999999999999995E-003     0.0000000000000000     
  -8.0999999999999996E-003     0.0000000000000000     
  -7.7999999999999988E-003     0.0000000000000000     
  -7.4999999999999997E-003     0.0000000000000000     
  -7.1999999999999998E-003     0.0000000000000000     
  -6.8999999999999981E-003     0.0000000000000000     
  -6.5999999999999982E-003     0.0000000000000000     
  -6.3000000000000000E-003     0.0000000000000000     
  -6.0000000000000001E-003     0.0000000000000000     
  -5.6999999999999985E-003     0.0000000000000000     
  -5.3999999999999986E-003     0.0000000000000000     
  -5.1000000000000004E-003     0.0000000000000000     
  -4.7999999999999987E-003     0.0000000000000000     
  -4.5000000000000005E-003     0.0000000000000000     
  -4.1999999999999989E-003     0.0000000000000000     
  -3.8999999999999990E-003     0.0000000000000000     
  -3.5999999999999990E-003     0.0000000000000000     
  -3.2999999999999991E-003     0.0000000000000000     
  -2.9999999999999992E-003     0.0000000000000000     
  -2.6999999999999993E-003     0.0000000000000000     
  -2.3999999999999994E-003     0.0000000000000000     
  -2.0999999999999977E-003     0.0000000000000000     
  -1.7999999999999995E-003     0.0000000000000000     
  -1.4999999999999979E-003     0.0000000000000000     
  -1.1999999999999997E-003     0.0000000000000000     
  -8.9999999999999976E-004     0.0000000000000000     
  -5.9999999999999810E-004     0.0000000000000000     
  -2.9999999999999992E-004     0.0000000000000000     
   0.0000000000000000          0.0000000000000000     
   3.0000000000000165E-004     0.0000000000000000     
   5.9999999999999984E-004     0.0000000000000000     
   9.0000000000000149E-004     0.0000000000000000     
   1.2000000000000031E-003     0.0000000000000000     
   1.5000000000000013E-003     0.0000000000000000     
   1.8000000000000030E-003     0.0000000000000000     
   2.1000000000000012E-003     0.0000000000000000     
   2.3999999999999994E-003     0.0000000000000000     
   2.7000000000000010E-003     0.0000000000000000     
   2.9999999999999992E-003     0.0000000000000000     
   3.3000000000000008E-003     0.0000000000000000     
   3.6000000000000025E-003     0.0000000000000000     
   3.9000000000000007E-003     0.0000000000000000     
   4.2000000000000023E-003     0.0000000000000000     
   4.5000000000000005E-003     0.0000000000000000     
   4.7999999999999987E-003     0.0000000000000000     
   5.1000000000000004E-003     0.0000000000000000     
   5.4000000000000020E-003     0.0000000000000000     
   5.7000000000000037E-003     0.0000000000000000     
   5.9999999999999984E-003     0.0000000000000000     
   6.3000000000000000E-003     0.0000000000000000     
   6.6000000000000017E-003     0.0000000000000000     
   6.9000000000000034E-003     0.0000000000000000     
   7.2000000000000015E-003     0.0000000000000000     
   7.5000000000000032E-003     0.0000000000000000     
   7.8000000000000014E-003     0.0000000000000000     
   8.0999999999999996E-003     0.0000000000000000     
   8.4000000000000012E-003     0.0000000000000000     
   8.7000000000000029E-003     0.0000000000000000     
   9.0000000000000011E-003     0.0000000000000000     
   9.2999999999999992E-003     0.0000000000000000     
   9.6000000000000009E-003     0.0000000000000000     
   9.8999999999999991E-003     0.0000000000000000     
   1.0200000000000001E-002     0.0000000000000000     
   1.0500000000000002E-002     0.0000000000000000     
   1.0800000000000004E-002     0.0000000000000000     
   1.1099999999999999E-002     0.0000000000000000     
   1.1400000000000000E-002     0.0000000000000000     
   1.1700000000000002E-002     0.0000000000000000     
   1.2000000000000004E-002     0.0000000000000000     
   1.2300000000000002E-002     0.0000000000000000     
   1.2600000000000000E-002     0.0000000000000000     
   1.2900000000000002E-002     0.0000000000000000     
   1.3200000000000000E-002     0.0000000000000000     
   1.3500000000000002E-002     0.0000000000000000     
   1.3800000000000003E-002     0.0000000000000000     
   1.4100000000000001E-002     0.0000000000000000     
   1.4400000000000000E-002     0.0000000000000000     
   1.4700000000000001E-002     0.0000000000000000     
   1.4999999999999999E-002     0.0000000000000000     
   1.5300000000000001E-002     0.0000000000000000     
   1.5600000000000003E-002     0.0000000000000000     
   1.5899999999999997E-002     0.0000000000000000     
   1.6199999999999999E-002     0.0000000000000000     
   1.6500000000000001E-002     0.0000000000000000     
   1.6800000000000002E-002     0.0000000000000000     
   1.7100000000000004E-002     0.0000000000000000     
   1.7400000000000006E-002     0.0000000000000000     
   1.7700000000000000E-002     0.0000000000000000     
   1.8000000000000002E-002     0.0000000000000000     
   1.8300000000000004E-002     0.0000000000000000     
   1.8600000000000005E-002     0.0000000000000000     
   1.8900000000000000E-002     0.0000000000000000     
   1.9200000000000002E-002     0.0000000000000000     
   1.9500000000000003E-002     0.0000000000000000     
   1.9799999999999998E-002     0.0000000000000000     
   2.0100000000000000E-002     0.0000000000000000     
   2.0400000000000001E-002     0.0000000000000000     
   2.0700000000000003E-002     0.0000000000000000     
   2.0999999999999998E-002     0.0000000000000000     
   2.1299999999999999E-002     0.0000000000000000     
   2.1600000000000001E-002     0.0000000000000000     
   2.1900000000000003E-002     0.0000000000000000     
   2.2200000000000004E-002     0.0000000000000000     
   2.2500000000000006E-002     0.0000000000000000     
   2.2800000000000001E-002     0.0000000000000000     
   2.3100000000000002E-002     0.0000000000000000     
   2.3400000000000004E-002     0.0000000000000000     
   2.3699999999999999E-002     0.0000000000000000     
   2.4000000000000000E-002     0.0000000000000000     
   2.4300000000000002E-002     0.0000000000000000     
   2.4599999999999997E-002     0.0000000000000000     
   2.4900000000000005E-002     0.0000000000000000     
   2.5200000000000000E-002     0.0000000000000000     
   2.5499999999999995E-002     0.0000000000000000     
   2.5800000000000003E-002     0.0000000000000000     
   2.6099999999999998E-002     0.0000000000000000     
   2.6400000000000007E-002     0.0000000000000000     
   2.6700000000000002E-002     0.0000000000000000     
   2.6999999999999996E-002     0.0000000000000000     
   2.7300000000000005E-002     0.0000000000000000     
   2.7600000000000000E-002     0.0000000000000000     
   2.7900000000000008E-002     0.0000000000000000     
   2.8200000000000003E-002     0.0000000000000000     
   2.8499999999999998E-002     0.0000000000000000     
   2.8800000000000006E-002     0.0000000000000000     
   2.9100000000000001E-002     0.0000000000000000     
   2.9400000000000003E-002     0.0000000000000000     
   2.9700000000000004E-002     0.0000000000000000     
   3.0000000000000006E-002     0.0000000000000000     
   3.0300000000000001E-002     0.0000000000000000     
   3.0600000000000002E-002     0.0000000000000000     
   3.0900000000000004E-002     0.0000000000000000     
   3.1199999999999999E-002     0.0000000000000000     
   3.1500000000000007E-002     0.0000000000000000     
   3.1800000000000002E-002     0.0000000000000000     
   3.2099999999999997E-002     0.0000000000000000     
   3.2400000000000005E-002     0.0000000000000000     
   3.2700000000000000E-002     0.0000000000000000     
   3.3000000000000002E-002     0.0000000000000000     
   3.3300000000000003E-002     0.0000000000000000     
   3.3599999999999998E-002     0.0000000000000000     
   3.3900000000000000E-002     0.0000000000000000     
   3.4200000000000001E-002    -8.4326693469266462E-059
   3.4500000000000003E-002    -5.5426930516414889E-046
   3.4799999999999998E-002     6.6444024951935630E-044
   3.5099999999999999E-002    -2.7461762563030722E-043
   3.5400000000000001E-002     2.6290015183137728E-042
   3.5699999999999996E-002     4.2913807220854143E-037
   3.6000000000000004E-002    -6.0955807735827393E-036
   3.6299999999999999E-002     1.3414224149804506E-034
   3.6600000000000008E-002    -3.4298202866812064E-034
   3.6900000000000002E-002     2.4230687332807366E-033
   3.7199999999999997E-002    -9.1364562573188168E-033
   3.7500000000000006E-002     3.1804346428144094E-032
   3.7800000000000000E-002    -1.0785857501376517E-031
   3.8100000000000009E-002     3.7729796974407423E-031
   3.8400000000000004E-002    -1.3270316628516621E-030
   3.8699999999999998E-002     4.5786680978289920E-030
   3.9000000000000007E-002    -1.5247287082132524E-029
   3.9300000000000002E-002     4.8231936041966145E-029
   3.9600000000000003E-002    -1.4261322741266494E-028
   3.9900000000000005E-002     3.8612132445549540E-028
   4.0200000000000000E-002    -9.2318720691598261E-028
   4.0500000000000001E-002     1.7824286264411926E-027
   4.0800000000000003E-002    -1.8448556316319243E-027
   4.1100000000000005E-002    -5.3951911904272875E-027
   4.1399999999999999E-002     4.6507044619248756E-026
   4.1700000000000008E-002    -2.1333334874579445E-025
   4.2000000000000003E-002     7.8758299333725685E-025
   4.2299999999999997E-002    -2.5354418739368706E-024
   4.2600000000000006E-002     7.2141001605718152E-024
   4.2900000000000001E-002    -1.7622037993457258E-023
   4.3200000000000002E-002     3.3061175496046768E-023
   4.3500000000000004E-002    -2.4517458201119886E-023
   4.3799999999999999E-002    -1.5244727936724142E-022
   4.4100000000000000E-002     9.7163025911555244E-022
   4.4400000000000002E-002    -3.5107883618270577E-021
   4.4700000000000004E-002     8.9245230728439060E-021
   4.4999999999999998E-002    -1.3858524387423484E-020
   4.5300000000000000E-002    -5.0093888605168161E-021
   4.5600000000000002E-002     1.1931562674330250E-019
   4.5899999999999996E-002    -4.4534576382922091E-019
   4.6200000000000005E-002     9.2256564523503953E-019
   4.6500000000000000E-002    -5.2723652119796573E-019
   4.6799999999999994E-002    -3.9545743145112495E-018
   4.7100000000000003E-002     1.6709489440150159E-017
   4.7399999999999998E-002    -3.0707147551207913E-017
   4.7700000000000006E-002    -2.4180393261227603E-018
   4.8000000000000001E-002     1.8406095538905412E-016
   4.8300000000000010E-002    -5.1143902443189665E-016
   4.8600000000000004E-002     3.7276870272149176E-016
   4.8899999999999999E-002     1.8157173109518300E-015
   4.9200000000000008E-002    -6.4789118637837917E-015
   4.9500000000000002E-002     5.6535591585873115E-015
   4.9800000000000011E-002     2.0951147018466978E-014
   5.0100000000000006E-002    -7.2888813612223524E-014
   5.0400000000000000E-002     3.9624527029825258E-014
   5.0700000000000009E-002     2.8603444354543434E-013
   5.1000000000000004E-002    -6.9322558384443466E-013
   5.1299999999999998E-002    -2.3920656818810055E-013
   5.1600000000000007E-002     3.6374968347383687E-012
   5.1900000000000002E-002    -3.9828466257564613E-012
   5.2200000000000010E-002    -1.1571600852502629E-011
   5.2500000000000005E-002     3.1560274373523353E-011
   5.2800000000000000E-002     1.8308625186192734E-011
   5.3099999999999994E-002    -1.5596045468800358E-010
   5.3400000000000003E-002     4.9002905106666564E-011
   5.3699999999999998E-002     6.3200671186166096E-010
   5.4000000000000006E-002    -5.7746400890260819E-010
   5.4300000000000001E-002    -2.3541430310611064E-009
   5.4599999999999996E-002     3.1798385182530261E-009
   5.4900000000000004E-002     8.8022263448041495E-009
   5.5199999999999999E-002    -1.3506709166120146E-008
   5.5499999999999994E-002    -3.5470521357054904E-008
   5.5800000000000002E-002     4.4112418148939143E-008
   5.6099999999999997E-002     1.4446761991590190E-007
   5.6400000000000006E-002    -1.0769102961721062E-007
   5.6700000000000000E-002    -6.1014961195172226E-007
   5.6999999999999995E-002     4.8597780063635745E-008
   5.7300000000000004E-002     3.3527702958195588E-006
   5.7599999999999998E-002     8.3048182865787642E-006
   5.7900000000000007E-002     1.2195244722611756E-005
   5.8200000000000002E-002     1.5594340416351829E-005
   5.8499999999999996E-002     2.4203333905214515E-005
   5.8800000000000005E-002     4.2822086193540611E-005
   5.9100000000000000E-002     6.9989133931515492E-005
   5.9400000000000008E-002     1.0326196558810676E-004
   5.9700000000000003E-002     1.4844141494543887E-004
   6.0000000000000012E-002     2.1855580463993985E-004
   6.0300000000000006E-002     3.2468586547992429E-004
   6.0600000000000001E-002     4.7373069001428042E-004
   6.0900000000000010E-002     6.7618066709172839E-004
   6.1200000000000004E-002     9.5138416929057667E-004
   6.1500000000000013E-002     1.3232492373499564E-003
   6.1800000000000008E-002     1.8132539168063124E-003
   6.2100000000000002E-002     2.4390130689181211E-003
   6.2399999999999997E-002     3.2175461487600628E-003
   6.2700000000000006E-002     4.1661566647166236E-003
   6.3000000000000000E-002     5.2942477153162014E-003
   6.3300000000000009E-002     6.5899335285875592E-003
   6.3600000000000004E-002     8.0101697706951112E-003
   6.3899999999999998E-002     9.4783104538521540E-003
   6.4199999999999993E-002     1.0878106027475272E-002
   6.4500000000000002E-002     1.2043182227132009E-002
   6.4800000000000010E-002     1.2744803426497064E-002
   6.5100000000000005E-002     1.2687472138238684E-002
   6.5400000000000000E-002     1.1508461489814754E-002
   6.5700000000000008E-002     8.7925571298064029E-003
   6.5999999999999989E-002     4.0967517114541569E-003
   6.6299999999999998E-002    -3.0161862821265176E-003
   6.6600000000000006E-002    -1.2946364917501967E-002
   6.6900000000000001E-002    -2.6004594720712308E-002
   6.7199999999999996E-002    -4.2337188102850760E-002
   6.7500000000000004E-002    -6.1841747074449012E-002
   6.7800000000000013E-002    -8.4103065665869545E-002
   6.8099999999999994E-002   -0.10834408927191526     
   6.8400000000000002E-002   -0.13338824079003703     
   6.8700000000000011E-002   -0.15763451705404108     
   6.8999999999999992E-002   -0.17907073224150502     
   6.9300000000000000E-002   -0.19535338065109784     
   6.9600000000000009E-002   -0.20393457224635284     
   6.9900000000000004E-002   -0.20224259003339259     
   7.0199999999999999E-002   -0.18788505250064041     
   7.0500000000000007E-002   -0.15887316119845143     
   7.0800000000000016E-002   -0.11389279012869140     
   7.1099999999999997E-002    -5.2527630634392926E-002
   7.1400000000000005E-002     2.4523603672405185E-002
   7.1700000000000000E-002    0.11533669039046945     
   7.1999999999999995E-002    0.21669771529486911     
   7.2300000000000003E-002    0.32419956854328907     
   7.2600000000000012E-002    0.43238623447400143     
   7.2900000000000006E-002    0.53512139979993190     
   7.3200000000000001E-002    0.62589349526585081     
   7.3499999999999996E-002    0.69837048082744513     
   7.3800000000000004E-002    0.74679031566382970     
   7.4099999999999999E-002    0.76654973290797590     
   7.4400000000000008E-002    0.75452717759421450     
   7.4700000000000003E-002    0.70950015842483094     
   7.5000000000000011E-002    0.63221730975854840     
   7.5299999999999992E-002    0.52549781218910796     
   7.5600000000000001E-002    0.39400987184909531     
   7.5900000000000009E-002    0.24404276246608478     
   7.6200000000000004E-002     8.2930947583376297E-002
   7.6499999999999999E-002    -8.1391322578015596E-002
   7.6800000000000007E-002   -0.24107194791710121     
   7.7099999999999988E-002   -0.38881258529181312     
   7.7399999999999997E-002   -0.51847692141741697     
   7.7700000000000005E-002   -0.62541689652049670     
   7.8000000000000014E-002   -0.70677235182639297     
   7.8299999999999995E-002   -0.76148894073911277     
   7.8600000000000003E-002   -0.79024573899982997     
   7.8900000000000012E-002   -0.79522779336310323     
   7.9199999999999993E-002   -0.77968069605569035     
   7.9500000000000001E-002   -0.74755635438177148     
   7.9800000000000010E-002   -0.70300050994203045     
   8.0100000000000018E-002   -0.64998539522143517     
   8.0399999999999999E-002   -0.59188385836726976     
   8.0700000000000008E-002   -0.53134997510077953     
   8.1000000000000003E-002   -0.47018088511924927     
   8.1299999999999997E-002   -0.40940616929430235     
   8.1600000000000006E-002   -0.34934921263022467     
   8.1900000000000014E-002   -0.29001004493354926     
   8.2199999999999995E-002   -0.23124612168125452     
   8.2500000000000004E-002   -0.17310184833841863     
   8.2799999999999999E-002   -0.11593476337342297     
   8.3100000000000007E-002    -6.0614196836908787E-002
   8.3400000000000002E-002    -8.4436269115795385E-003
   8.3700000000000011E-002     3.8889584476807390E-002
   8.4000000000000005E-002     7.9628097703288589E-002
   8.4300000000000000E-002    0.11211885890056911     
   8.4599999999999995E-002    0.13527177731810106     
   8.4900000000000003E-002    0.14872739222241776     
   8.5199999999999998E-002    0.15310289483277001     
   8.5500000000000007E-002    0.15004174917398003     
   8.5800000000000001E-002    0.14215244830434581     
   8.6100000000000010E-002    0.13287328628162703     
   8.6399999999999991E-002    0.12601618888149987     
   8.6699999999999999E-002    0.12541974007133033     
   8.7000000000000008E-002    0.13438939004300329     
   8.7300000000000003E-002    0.15537556034173425     
   8.7599999999999997E-002    0.18949109952038171     
   8.7900000000000006E-002    0.23637878203937557     
   8.8200000000000014E-002    0.29403466986075477     
   8.8499999999999995E-002    0.35909281407898425     
   8.8800000000000004E-002    0.42694707188741271     
   8.9100000000000013E-002    0.49229778552325931     
   8.9399999999999993E-002    0.54961528288065664     
   8.9700000000000002E-002    0.59378775023959252     
   9.0000000000000011E-002    0.62050922869430103     
   9.0299999999999991E-002    0.62683745407069624     
   9.0600000000000000E-002    0.61140122145732012     
   9.0900000000000009E-002    0.57466187082985742     
   9.1200000000000017E-002    0.51868351109859712     
   9.1499999999999998E-002    0.44702361582173156     
   9.1800000000000007E-002    0.36425678203014378     
   9.2100000000000001E-002    0.27567247511175635     
   9.2399999999999996E-002    0.18658519438193910     
   9.2700000000000005E-002    0.10194921849278903     
   9.3000000000000013E-002     2.5813610309037043E-002
   9.3300000000000008E-002    -3.8936899366178536E-002
   9.3600000000000003E-002    -9.0767908113992185E-002
   9.3899999999999997E-002   -0.12946550975628765     
   9.4200000000000006E-002   -0.15609765566079598     
   9.4500000000000001E-002   -0.17265649703871624     
   9.4800000000000009E-002   -0.18173787587376786     
   9.5100000000000004E-002   -0.18609254661924521     
   9.5399999999999999E-002   -0.18826842912768282     
   9.5699999999999993E-002   -0.19020364299460385     
   9.6000000000000002E-002   -0.19306134311079645     
   9.6300000000000011E-002   -0.19701736317872112     
   9.6600000000000005E-002   -0.20142263840588268     
   9.6900000000000000E-002   -0.20492870305041255     
   9.7200000000000009E-002   -0.20580992808300805     
   9.7499999999999989E-002   -0.20221301130315178     
   9.7799999999999998E-002   -0.19266443643183603     
   9.8100000000000007E-002   -0.17638712277239155     
   9.8400000000000015E-002   -0.15357322079707092     
   9.8699999999999996E-002   -0.12545952691735687     
   9.9000000000000005E-002    -9.4361435791848872E-002
   9.9300000000000013E-002    -6.3491220640877116E-002
   9.9599999999999994E-002    -3.6687793257332325E-002
   9.9900000000000003E-002    -1.7890737668841659E-002
  0.10020000000000001         -1.0816927954163350E-002
  0.10049999999999999         -1.8333424921417346E-002
  0.10080000000000000         -4.2154839148429123E-002
  0.10110000000000001         -8.2369002732987126E-002
  0.10140000000000000        -0.13745205585045397     
  0.10170000000000000        -0.20406680509933614     
  0.10200000000000001        -0.27751798385350129     
  0.10230000000000002        -0.35193206080120959     
  0.10260000000000000        -0.42088805086834585     
  0.10290000000000001        -0.47794057576019017     
  0.10320000000000000        -0.51744516483249348     
  0.10350000000000001        -0.53502203881811339     
  0.10380000000000000        -0.52816345141080989     
  0.10410000000000001        -0.49648560827416521     
  0.10440000000000001        -0.44199062948684109     
  0.10470000000000000        -0.36881713388426546     
  0.10500000000000000        -0.28291619841350635     
  0.10530000000000000        -0.19143126116928189     
  0.10560000000000000        -0.10205042007101951     
  0.10590000000000001         -2.2065560458813107E-002
  0.10620000000000000          4.2401616820758534E-002
  0.10650000000000001          8.7211023290467843E-002
  0.10679999999999999         0.11065385890461826     
  0.10710000000000000         0.11382928921789602     
  0.10740000000000001         0.10050198841647853     
  0.10770000000000000          7.6874460733592859E-002
  0.10800000000000000          5.0925857296230212E-002
  0.10830000000000001          3.1521896187307871E-002
  0.10859999999999999          2.7405010750633649E-002
  0.10890000000000000          4.6241714555819359E-002
  0.10920000000000001          9.3709115529422599E-002
  0.10950000000000001         0.17259404754802382     
  0.10979999999999999         0.28243849735544824     
  0.11009999999999999         0.41938896492399125     
  0.11040000000000001         0.57651217815711897     
  0.11070000000000001         0.74418988420798593     
  0.11100000000000000         0.91108665019360224     
  0.11130000000000000          1.0649930602496578     
  0.11160000000000002          1.1940882612452124     
  0.11190000000000001          1.2877889116878474     
  0.11220000000000001          1.3377858854104372     
  0.11250000000000000          1.3385650373113231     
  0.11280000000000000          1.2879224259877682     
  0.11309999999999999          1.1868333026421891     
  0.11340000000000001          1.0393910760096186     
  0.11369999999999998         0.85216119791691392     
  0.11400000000000000         0.63363846302377680     
  0.11430000000000000         0.39338068504601637     
  0.11460000000000002         0.14127640899929850     
  0.11489999999999999        -0.11319689100118827     
  0.11520000000000001        -0.36153579998070218     
  0.11550000000000001        -0.59650840418304585     
  0.11580000000000000        -0.81243791979256463     
  0.11609999999999999         -1.0050806151552636     
  0.11640000000000002         -1.1714941664952465     
  0.11670000000000001         -1.3096151801297735     
  0.11700000000000001         -1.4182079325337302     
  0.11730000000000000         -1.4962376870119574     
  0.11760000000000000         -1.5429081255022059     
  0.11789999999999999         -1.5571963130282060     
  0.11820000000000001         -1.5383590988826197     
  0.11850000000000001         -1.4856638227117731     
  0.11880000000000000         -1.3989972357191161     
  0.11910000000000000         -1.2787511788252823     
  0.11940000000000002         -1.1266088872874922     
  0.11970000000000001        -0.94538811115410792     
  0.12000000000000001        -0.73946037446189306     
  0.12030000000000000        -0.51446225021893799     
  0.12060000000000000        -0.27740801328843123     
  0.12089999999999999         -3.6030122331793910E-002
  0.12119999999999999         0.20145166616187682     
  0.12150000000000001         0.42703770080464548     
  0.12180000000000001         0.63334330111360893     
  0.12210000000000000         0.81428280285995247     
  0.12239999999999999         0.96532866686813745     
  0.12270000000000002          1.0838268174277672     
  0.12300000000000001          1.1690882844356809     
  0.12330000000000001          1.2221657455539450     
  0.12360000000000000          1.2456968256256018     
  0.12390000000000000          1.2433553166584139     
  0.12419999999999999          1.2195891558292260     
  0.12450000000000001          1.1788901493063983     
  0.12480000000000001          1.1255444672696691     
  0.12509999999999999          1.0628944998643257     
  0.12540000000000001         0.99353602949028985     
  0.12570000000000003         0.91863897611547074     
  0.12600000000000000         0.83852210543200301     
  0.12630000000000002         0.75211605041575325     
  0.12659999999999999         0.65795143736533868     
  0.12690000000000001         0.55366690892035852     
  0.12719999999999998         0.43731804235087318     
  0.12750000000000000         0.30689934983635569     
  0.12780000000000002         0.16172448393611011     
  0.12809999999999999          1.8115587922329849E-003
  0.12840000000000001        -0.17074928240384504     
  0.12869999999999998        -0.35269330137287236     
  0.12900000000000000        -0.53848786992240716     
  0.12930000000000003        -0.72143765774789570     
  0.12959999999999999        -0.89298692436373106     
  0.12990000000000002         -1.0442036750860175     
  0.13019999999999998         -1.1655714915338624     
  0.13050000000000000         -1.2485005096807447     
  0.13080000000000003         -1.2853799313288750     
  0.13109999999999999         -1.2710862602783628     
  0.13140000000000002         -1.2031641426635937     
  0.13169999999999998         -1.0826853892606985     
  0.13200000000000001        -0.91423085558042594     
  0.13229999999999997        -0.70604136088792757     
  0.13260000000000000        -0.46959816087334677     
  0.13290000000000002        -0.21884051744951474     
  0.13319999999999999          3.0591798049032844E-002
  0.13350000000000001         0.26264811477744882     
  0.13380000000000003         0.46180649232396054     
  0.13410000000000000         0.61461599848018400     
  0.13440000000000002         0.71027746328793218     
  0.13469999999999999         0.74189170850051034     
  0.13500000000000001         0.70644214289424279     
  0.13529999999999998         0.60560103447295710     
  0.13560000000000000         0.44495828578087310     
  0.13590000000000002         0.23424793174377528     
  0.13619999999999999         -1.4123578427348033E-002
  0.13650000000000001        -0.28496990544638917     
  0.13680000000000003        -0.56226022966305000     
  0.13710000000000000        -0.82906868927212241     
  0.13740000000000002         -1.0696658266481816     
  0.13769999999999999         -1.2690878355017206     
  0.13800000000000001         -1.4151380554382256     
  0.13829999999999998         -1.4978244825785163     
  0.13860000000000000         -1.5110134412104901     
  0.13890000000000002         -1.4514090327061511     
  0.13919999999999999         -1.3200500469382836     
  0.13950000000000001         -1.1211181074490451     
  0.13979999999999998        -0.86295434821491424     
  0.14010000000000000        -0.55645408138489261     
  0.14040000000000002        -0.21588476706947582     
  0.14069999999999999         0.14308652827516702     
  0.14100000000000001         0.50288684965298702     
  0.14130000000000004         0.84616819016307021     
  0.14160000000000000          1.1556588814174027     
  0.14189999999999997          1.4163334861005357     
  0.14219999999999999          1.6151966414252259     
  0.14250000000000002          1.7431731823645849     
  0.14279999999999998          1.7947888989167000     
  0.14310000000000000          1.7693709738938026     
  0.14339999999999997          1.6704195113543796     
  0.14369999999999999          1.5060511145243309     
  0.14400000000000002          1.2879231410061227     
  0.14429999999999998          1.0308947908602371     
  0.14460000000000001         0.75166764374230199     
  0.14490000000000003         0.46800772890235975     
  0.14520000000000000         0.19734863066433417     
  0.14550000000000002         -4.4265559012226119E-002
  0.14579999999999999        -0.24321580790804639     
  0.14610000000000001        -0.38912017494404227     
  0.14640000000000003        -0.47530968617893088     
  0.14670000000000000        -0.49922333857636431     
  0.14699999999999996        -0.46229921344400238     
  0.14729999999999999        -0.36976884044898417     
  0.14760000000000001        -0.23001580686280157     
  0.14789999999999998         -5.4022745712464189E-002
  0.14820000000000000         0.14568028397857788     