  -1.4999999999999999E-002     0.0000000000000000     
  -1.4700000000000000E-002     0.0000000000000000     
  -1.4400000000000000E-002     0.0000000000000000     
  -1.4100000000000000E-002     0.0000000000000000     
  -1.3800000000000000E-002     0.0000000000000000     
  -1.3500000000000000E-002     0.0000000000000000     
  -1.3200000000000000E-002     0.0000000000000000     
  -1.2899999999999998E-002     0.0000000000000000     
  -1.2600000000000000E-002     0.0000000000000000     
  -1.2299999999999998E-002     0.0000000000000000     
  -1.2000000000000000E-002     0.0000000000000000     
  -1.1699999999999999E-002     0.0000000000000000     
  -1.1399999999999999E-002     0.0000000000000000     
  -1.1099999999999999E-002     0.0000000000000000     
  -1.0799999999999999E-002     0.0000000000000000     
  -1.0499999999999999E-002     0.0000000000000000     
  -1.0199999999999999E-002     0.0000000000000000     
  -9.8999999999999991E-003     0.0000000000000000     
  -9.5999999999999992E-003     0.0000000000000000     
  -9.2999999999999992E-003     0.0000000000000000     
  -8.9999999999999993E-003     0.0000000000000000     
  -8.6999999999999994E-003     0.0000000000000000     
  -8.3999999999999995E-003     0.0000000000000000     
  -8.0999999999999996E-003     0.0000000000000000     
  -7.7999999999999988E-003     0.0000000000000000     
  -7.4999999999999997E-003     0.0000000000000000     
  -7.1999999999999998E-003     0.0000000000000000     
  -6.8999999999999981E-003     0.0000000000000000     
  -6.5999999999999982E-003     0.0000000000000000     
  -6.3000000000000000E-003     0.0000000000000000     
  -6.0000000000000001E-003     0.0000000000000000     
  -5.6999999999999985E-003     0.0000000000000000     
  -5.3999999999999986E-003     0.0000000000000000     
  -5.1000000000000004E-003     0.0000000000000000     
  -4.7999999999999987E-003     0.0000000000000000     
  -4.5000000000000005E-003     0.0000000000000000     
  -4.1999999999999989E-003     0.0000000000000000     
  -3.8999999999999990E-003     0.0000000000000000     
  -3.5999999999999990E-003     0.0000000000000000     
  -3.2999999999999991E-003     0.0000000000000000     
  -2.9999999999999992E-003     0.0000000000000000     
  -2.6999999999999993E-003     0.0000000000000000     
  -2.3999999999999994E-003     0.0000000000000000     
  -2.0999999999999977E-003     0.0000000000000000     
  -1.7999999999999995E-003     0.0000000000000000     
  -1.4999999999999979E-003     0.0000000000000000     
  -1.1999999999999997E-003     0.0000000000000000     
  -8.9999999999999976E-004     0.0000000000000000     
  -5.9999999999999810E-004     0.0000000000000000     
  -2.9999999999999992E-004     0.0000000000000000     
   0.0000000000000000          0.0000000000000000     
   3.0000000000000165E-004     0.0000000000000000     
   5.9999999999999984E-004     0.0000000000000000     
   9.0000000000000149E-004     0.0000000000000000     
   1.2000000000000031E-003     0.0000000000000000     
   1.5000000000000013E-003     0.0000000000000000     
   1.8000000000000030E-003     0.0000000000000000     
   2.1000000000000012E-003     0.0000000000000000     
   2.3999999999999994E-003     0.0000000000000000     
   2.7000000000000010E-003     0.0000000000000000     
   2.9999999999999992E-003     0.0000000000000000     
   3.3000000000000008E-003     0.0000000000000000     
   3.6000000000000025E-003     0.0000000000000000     
   3.9000000000000007E-003     0.0000000000000000     
   4.2000000000000023E-003     0.0000000000000000     
   4.5000000000000005E-003     0.0000000000000000     
   4.7999999999999987E-003     0.0000000000000000     
   5.1000000000000004E-003     0.0000000000000000     
   5.4000000000000020E-003     0.0000000000000000     
   5.7000000000000037E-003     0.0000000000000000     
   5.9999999999999984E-003     0.0000000000000000     
   6.3000000000000000E-003     0.0000000000000000     
   6.6000000000000017E-003     0.0000000000000000     
   6.9000000000000034E-003     0.0000000000000000     
   7.2000000000000015E-003     0.0000000000000000     
   7.5000000000000032E-003     0.0000000000000000     
   7.8000000000000014E-003     0.0000000000000000     
   8.0999999999999996E-003     0.0000000000000000     
   8.4000000000000012E-003     0.0000000000000000     
   8.7000000000000029E-003     0.0000000000000000     
   9.0000000000000011E-003     0.0000000000000000     
   9.2999999999999992E-003     0.0000000000000000     
   9.6000000000000009E-003     0.0000000000000000     
   9.8999999999999991E-003     0.0000000000000000     
   1.0200000000000001E-002     0.0000000000000000     
   1.0500000000000002E-002     0.0000000000000000     
   1.0800000000000004E-002     0.0000000000000000     
   1.1099999999999999E-002     0.0000000000000000     
   1.1400000000000000E-002     0.0000000000000000     
   1.1700000000000002E-002     0.0000000000000000     
   1.2000000000000004E-002     0.0000000000000000     
   1.2300000000000002E-002     0.0000000000000000     
   1.2600000000000000E-002     0.0000000000000000     
   1.2900000000000002E-002     0.0000000000000000     
   1.3200000000000000E-002     0.0000000000000000     
   1.3500000000000002E-002     0.0000000000000000     
   1.3800000000000003E-002     0.0000000000000000     
   1.4100000000000001E-002     0.0000000000000000     
   1.4400000000000000E-002     0.0000000000000000     
   1.4700000000000001E-002     0.0000000000000000     
   1.4999999999999999E-002     0.0000000000000000     
   1.5300000000000001E-002     0.0000000000000000     
   1.5600000000000003E-002     0.0000000000000000     
   1.5899999999999997E-002     0.0000000000000000     
   1.6199999999999999E-002     0.0000000000000000     
   1.6500000000000001E-002     0.0000000000000000     
   1.6800000000000002E-002     0.0000000000000000     
   1.7100000000000004E-002     0.0000000000000000     
   1.7400000000000006E-002     0.0000000000000000     
   1.7700000000000000E-002     0.0000000000000000     
   1.8000000000000002E-002     0.0000000000000000     
   1.8300000000000004E-002     0.0000000000000000     
   1.8600000000000005E-002     0.0000000000000000     
   1.8900000000000000E-002     0.0000000000000000     
   1.9200000000000002E-002     0.0000000000000000     
   1.9500000000000003E-002     0.0000000000000000     
   1.9799999999999998E-002     0.0000000000000000     
   2.0100000000000000E-002     0.0000000000000000     
   2.0400000000000001E-002     0.0000000000000000     
   2.0700000000000003E-002     0.0000000000000000     
   2.0999999999999998E-002     0.0000000000000000     
   2.1299999999999999E-002     0.0000000000000000     
   2.1600000000000001E-002     0.0000000000000000     
   2.1900000000000003E-002     0.0000000000000000     
   2.2200000000000004E-002     0.0000000000000000     
   2.2500000000000006E-002     0.0000000000000000     
   2.2800000000000001E-002     0.0000000000000000     
   2.3100000000000002E-002     0.0000000000000000     
   2.3400000000000004E-002     0.0000000000000000     
   2.3699999999999999E-002     0.0000000000000000     
   2.4000000000000000E-002     0.0000000000000000     
   2.4300000000000002E-002     0.0000000000000000     
   2.4599999999999997E-002     0.0000000000000000     
   2.4900000000000005E-002     0.0000000000000000     
   2.5200000000000000E-002     0.0000000000000000     
   2.5499999999999995E-002     0.0000000000000000     
   2.5800000000000003E-002     0.0000000000000000     
   2.6099999999999998E-002     0.0000000000000000     
   2.6400000000000007E-002     0.0000000000000000     
   2.6700000000000002E-002     0.0000000000000000     
   2.6999999999999996E-002     0.0000000000000000     
   2.7300000000000005E-002     0.0000000000000000     
   2.7600000000000000E-002     0.0000000000000000     
   2.7900000000000008E-002     0.0000000000000000     
   2.8200000000000003E-002     0.0000000000000000     
   2.8499999999999998E-002     0.0000000000000000     
   2.8800000000000006E-002     0.0000000000000000     
   2.9100000000000001E-002     0.0000000000000000     
   2.9400000000000003E-002     0.0000000000000000     
   2.9700000000000004E-002     0.0000000000000000     
   3.0000000000000006E-002     0.0000000000000000     
   3.0300000000000001E-002     0.0000000000000000     
   3.0600000000000002E-002     0.0000000000000000     
   3.0900000000000004E-002     0.0000000000000000     
   3.1199999999999999E-002     0.0000000000000000     
   3.1500000000000007E-002     0.0000000000000000     
   3.1800000000000002E-002     0.0000000000000000     
   3.2099999999999997E-002     0.0000000000000000     
   3.2400000000000005E-002     0.0000000000000000     
   3.2700000000000000E-002     0.0000000000000000     
   3.3000000000000002E-002     0.0000000000000000     
   3.3300000000000003E-002     0.0000000000000000     
   3.3599999999999998E-002     0.0000000000000000     
   3.3900000000000000E-002     0.0000000000000000     
   3.4200000000000001E-002     0.0000000000000000     
   3.4500000000000003E-002     0.0000000000000000     
   3.4799999999999998E-002     0.0000000000000000     
   3.5099999999999999E-002    -2.0510574012895293E-044
   3.5400000000000001E-002     1.3304919078426637E-043
   3.5699999999999996E-002     2.0045363451796399E-042
   3.6000000000000004E-002    -7.3999403262915230E-042
   3.6299999999999999E-002     2.1173520721839428E-038
   3.6600000000000008E-002     1.1738745473083443E-037
   3.6900000000000002E-002    -4.8130788342593362E-036
   3.7199999999999997E-002     2.4172857215669209E-035
   3.7500000000000006E-002    -6.1045371746750630E-035
   3.7800000000000000E-002     9.2069722537688636E-035
   3.8100000000000009E-002     1.2926286633520571E-033
   3.8400000000000004E-002    -6.7177809114528612E-033
   3.8699999999999998E-002     2.3428600845474794E-032
   3.9000000000000007E-002    -7.2273753475719956E-032
   3.9300000000000002E-002     2.1975620901829198E-031
   3.9600000000000003E-002    -6.4435106993184403E-031
   3.9900000000000005E-002     1.7707215351320636E-030
   4.0200000000000000E-002    -4.3360900069982320E-030
   4.0500000000000001E-002     8.3381937117709095E-030
   4.0800000000000003E-002    -5.8799481064103963E-030
   4.1100000000000005E-002    -5.1348586855593470E-029
   4.1399999999999999E-002     3.7468770789267093E-028
   4.1700000000000008E-002    -1.7448516892449002E-027
   4.2000000000000003E-002     6.7188976624776145E-027
   4.2299999999999997E-002    -2.2847408149119752E-026
   4.2600000000000006E-002     7.0213198734847761E-026
   4.2900000000000001E-002    -1.9581903536806010E-025
   4.3200000000000002E-002     4.8880031827207544E-025
   4.3500000000000004E-002    -1.0392497839550725E-024
   4.3799999999999999E-002     1.5703682537786335E-024
   4.4100000000000000E-002     2.3912964457314749E-025
   4.4400000000000002E-002    -1.4596197259158097E-023
   4.4700000000000004E-002     7.5587050078239112E-023
   4.4999999999999998E-002    -2.7167074947745646E-022
   4.5300000000000000E-002     7.5724661828084945E-022
   4.5600000000000002E-002    -1.5436910552848147E-021
   4.5899999999999996E-002     1.4193747957531600E-021
   4.6200000000000005E-002     5.2152723302074464E-021
   4.6500000000000000E-002    -3.3481923651867512E-020
   4.6799999999999994E-002     1.0489927939270372E-019
   4.7100000000000003E-002    -1.9593569167000513E-019
   4.7399999999999998E-002     6.1900914596550872E-020
   4.7700000000000006E-002     1.0480612385453786E-018
   4.8000000000000001E-002    -4.1709155909137565E-018
   4.8300000000000010E-002     7.9073496523761236E-018
   4.8600000000000004E-002    -9.0406256338129240E-019
   4.8899999999999999E-002    -4.3990825408017448E-017
   4.9200000000000008E-002     1.3867740027251278E-016
   4.9500000000000002E-002    -1.5184105175731650E-016
   4.9800000000000011E-002    -3.5399626858989990E-016
   5.0100000000000006E-002     1.7688987714622336E-015
   5.0400000000000000E-002    -2.5451829060337682E-015
   5.0700000000000009E-002    -3.2883059316918825E-015
   5.1000000000000004E-002     2.0770535104968241E-014
   5.1299999999999998E-002    -2.7877658113318193E-014
   5.1600000000000007E-002    -4.8281500855268420E-014
   5.1900000000000002E-002     2.3161376598377648E-013
   5.2200000000000010E-002    -1.8110043318557911E-013
   5.2500000000000005E-002    -8.1300265931957404E-013
   5.2800000000000000E-002     2.1409470186001545E-012
   5.3099999999999994E-002     6.8556159534887598E-013
   5.3400000000000003E-002    -1.0798108414898231E-011
   5.3699999999999998E-002     1.0153671855680269E-011
   5.4000000000000006E-002     3.7000357949885012E-011
   5.4300000000000001E-002    -8.1620768364740421E-011
   5.4599999999999996E-002    -8.8650128532839437E-011
   5.4900000000000004E-002     4.1614735251452281E-010
   5.5199999999999999E-002     1.0584962054972706E-010
   5.5499999999999994E-002    -1.7777423197769951E-009
   5.5800000000000002E-002     2.7316946994306610E-010
   5.6099999999999997E-002     7.0704825089372611E-009
   5.6400000000000006E-002    -2.0627585085699981E-009
   5.6700000000000000E-002    -2.7761994774074676E-008
   5.6999999999999995E-002     3.0887578962655270E-009
   5.7300000000000004E-002     1.0327047557187948E-007
   5.7599999999999998E-002     2.7063427331265833E-008
   5.7900000000000007E-002    -3.7692661872830999E-007
   5.8200000000000002E-002    -3.4594371433287343E-007
   5.8499999999999996E-002     1.5624571555302411E-006
   5.8800000000000005E-002     5.5665015629402044E-006
   5.9100000000000000E-002     9.7581421345730969E-006
   5.9400000000000008E-002     1.2809161110187991E-005
   5.9700000000000003E-002     1.7361028676527006E-005
   6.0000000000000012E-002     2.8557748060680272E-005
   6.0300000000000006E-002     4.8792279063034206E-005
   6.0600000000000001E-002     7.6443284051474562E-005
   6.0900000000000010E-002     1.1148791495956529E-004
   6.1200000000000004E-002     1.6071974626076762E-004
   6.1500000000000013E-002     2.3553235097275942E-004
   6.1800000000000008E-002     3.4580891536422275E-004
   6.2100000000000002E-002     4.9875138491387082E-004
   6.2399999999999997E-002     7.0419683423479705E-004
   6.2700000000000006E-002     9.7874676621270890E-004
   6.3000000000000000E-002     1.3425841587967984E-003
   6.3300000000000009E-002     1.8129732438224720E-003
   6.3600000000000004E-002     2.4021178779080133E-003
   6.3899999999999998E-002     3.1193824285817725E-003
   6.4199999999999993E-002     3.9701167418560029E-003
   6.4500000000000002E-002     4.9481617236509443E-003
   6.4800000000000010E-002     6.0262707633754291E-003
   6.5100000000000005E-002     7.1479947895095545E-003
   6.5400000000000000E-002     8.2198824639699176E-003
   6.5700000000000008E-002     9.1058024737354394E-003
   6.5999999999999989E-002     9.6248320069255502E-003
   6.6299999999999998E-002     9.5476543246486544E-003
   6.6600000000000006E-002     8.5920071542889397E-003
   6.6900000000000001E-002     6.4232253508940060E-003
   6.7199999999999996E-002     2.6740826286500855E-003
   6.7500000000000004E-002    -3.0246220710733319E-003
   6.7800000000000013E-002    -1.1008421300674736E-002
   6.8099999999999994E-002    -2.1543678069346296E-002
   6.8400000000000002E-002    -3.4774905198754466E-002
   6.8700000000000011E-002    -5.0666022421148857E-002
   6.8999999999999992E-002    -6.8932022016725769E-002
   6.9300000000000000E-002    -8.8990323596631588E-002
   6.9600000000000009E-002   -0.10992364225169127     
   6.9900000000000004E-002   -0.13046765905745250     
   7.0199999999999999E-002   -0.14901800785655372     
   7.0500000000000007E-002   -0.16367378265107829     
   7.0800000000000016E-002   -0.17232904272124960     
   7.1099999999999997E-002   -0.17281009516521295     
   7.1400000000000005E-002   -0.16305590595837380     
   7.1700000000000000E-002   -0.14129735001208432     
   7.1999999999999995E-002   -0.10627148030239938     
   7.2300000000000003E-002    -5.7420824080519489E-002
   7.2600000000000012E-002     4.9310412077281035E-003
   7.2900000000000006E-002     7.9438315730470471E-002
   7.3200000000000001E-002    0.16369831244279975     
   7.3499999999999996E-002    0.25424920251142380     
   7.3800000000000004E-002    0.34673774661665907     
   7.4099999999999999E-002    0.43611240655077199     
   7.4400000000000008E-002    0.51695836710474197     
   7.4700000000000003E-002    0.58384924371860358     
   7.5000000000000011E-002    0.63178638430811207     
   7.5299999999999992E-002    0.65659766664974428     
   7.5600000000000001E-002    0.65532204120958282     
   7.5900000000000009E-002    0.62650755517732493     
   7.6200000000000004E-002    0.57039152382159963     
   7.6499999999999999E-002    0.48896932690668571     
   7.6800000000000007E-002    0.38589649125379932     
   7.7099999999999988E-002    0.26620793651445268     
   7.7399999999999997E-002    0.13601949922634102     
   7.7700000000000005E-002     1.9694883489763913E-003
   7.8000000000000014E-002   -0.12915529934469971     
   7.8299999999999995E-002   -0.25114800728529058     
   7.8600000000000003E-002   -0.35869432639077076     
   7.8900000000000012E-002   -0.44788012119666487     
   7.9199999999999993E-002   -0.51631869000838515     
   7.9500000000000001E-002   -0.56337173075061620     
   7.9800000000000010E-002   -0.59004194101397056     
   8.0100000000000018E-002   -0.59877921987964988     
   8.0399999999999999E-002   -0.59305884701186495     
   8.0700000000000008E-002   -0.57701314179462426     
   8.1000000000000003E-002   -0.55490409066054447     
   8.1299999999999997E-002   -0.53068025199278324     
   8.1600000000000006E-002   -0.50752241244249496     
   8.1900000000000014E-002   -0.48754553565266001     
   8.2199999999999995E-002   -0.47165907816818775     
   8.2500000000000004E-002   -0.45952813908324808     
   8.2799999999999999E-002   -0.44973602794452250     
   8.3100000000000007E-002   -0.43997668559457609     
   8.3400000000000002E-002   -0.42753301507429103     
   8.3700000000000011E-002   -0.40958262659597772     
   8.4000000000000005E-002   -0.38373191659753447     
   8.4300000000000000E-002   -0.34823350935481590     
   8.4599999999999995E-002   -0.30233064868216880     
   8.4900000000000003E-002   -0.24631381920479495     
   8.5199999999999998E-002   -0.18162797428096178     
   8.5500000000000007E-002   -0.11055223072401368     
   8.5800000000000001E-002    -3.6037015522400156E-002
   8.6100000000000010E-002     3.8744728831002467E-002
   8.6399999999999991E-002    0.11060499359242558     
   8.6699999999999999E-002    0.17688835462113872     
   8.7000000000000008E-002    0.23563734038927903     
   8.7300000000000003E-002    0.28583141751154884     
   8.7599999999999997E-002    0.32734090772009239     
   8.7900000000000006E-002    0.36090486013057760     
   8.8200000000000014E-002    0.38789814535923373     
   8.8499999999999995E-002    0.41003246764419610     
   8.8800000000000004E-002    0.42903498895097980     
   8.9100000000000013E-002    0.44625965329111283     
   8.9399999999999993E-002    0.46254279472280113     
   8.9700000000000002E-002    0.47793997958894219     
   9.0000000000000011E-002    0.49173407394849711     
   9.0299999999999991E-002    0.50245178395677603     
   9.0600000000000000E-002    0.50815812058111609     
   9.0900000000000009E-002    0.50674191258915946     
   9.1200000000000017E-002    0.49615368241614288     
   9.1499999999999998E-002    0.47485712495497456     
   9.1800000000000007E-002    0.44200783865087284     
   9.2100000000000001E-002    0.39784761318060141     
   9.2399999999999996E-002    0.34357115440026798     
   9.2700000000000005E-002    0.28147361279117888     
   9.3000000000000013E-002    0.21455393209280585     
   9.3300000000000008E-002    0.14648485229424107     
   9.3600000000000003E-002     8.1059839483762899E-002
   9.3899999999999997E-002     2.1962196116691649E-002
   9.4200000000000006E-002    -2.7808096571494845E-002
   9.4500000000000001E-002    -6.6121435258864561E-002
   9.4800000000000009E-002    -9.1984142531353535E-002
   9.5100000000000004E-002   -0.10559114326739523     
   9.5399999999999999E-002   -0.10837721791888083     
   9.5699999999999993E-002   -0.10276716280417504     
   9.6000000000000002E-002    -9.1914609923998219E-002
   9.6300000000000011E-002    -7.9334932092858940E-002
   9.6600000000000005E-002    -6.8449301455031558E-002
   9.6900000000000000E-002    -6.2148461187825840E-002
   9.7200000000000009E-002    -6.2509257328780543E-002
   9.7499999999999989E-002    -7.0475775874561788E-002
   9.7799999999999998E-002    -8.5827819715909387E-002
   9.8100000000000007E-002   -0.10704609707997895     
   9.8400000000000015E-002   -0.13171949645416181     
   9.8699999999999996E-002   -0.15666014503932790     
   9.9000000000000005E-002   -0.17854890243437366     
   9.9300000000000013E-002   -0.19417147265688395     
   9.9599999999999994E-002   -0.20107883970545737     
   9.9900000000000003E-002   -0.19781733297051629     
  0.10020000000000001        -0.18435361975005898     
  0.10049999999999999        -0.16205463124847302     
  0.10080000000000000        -0.13371448705330763     
  0.10110000000000001        -0.10320976712720356     
  0.10140000000000000         -7.5144207265971791E-002
  0.10170000000000000         -5.4313343254912237E-002
  0.10200000000000001         -4.5051011066951432E-002
  0.10230000000000002         -5.0758989316735739E-002
  0.10260000000000000         -7.3235930574753361E-002
  0.10290000000000001        -0.11244905601440502     
  0.10320000000000000        -0.16624664492988345     
  0.10350000000000001        -0.23056132760440790     
  0.10380000000000000        -0.29953228252602881     
  0.10410000000000001        -0.36613277532889266     
  0.10440000000000001        -0.42280176976225242     
  0.10470000000000000        -0.46230740600181186     
  0.10500000000000000        -0.47846018984384464     
  0.10530000000000000        -0.46696431717515241     
  0.10560000000000000        -0.42600341288265420     
  0.10590000000000001        -0.35662309704208583     
  0.10620000000000000        -0.26284944570745278     
  0.10650000000000001        -0.15146135311542472     
  0.10679999999999999         -3.1528717422275594E-002
  0.10710000000000000          8.6536629536111187E-002
  0.10740000000000001         0.19181815344348158     
  0.10770000000000000         0.27413455517098406     
  0.10800000000000000         0.32502317269829017     
  0.10830000000000001         0.33886603355814210     
  0.10859999999999999         0.31350135203247675     
  0.10890000000000000         0.25080332220462476     
  0.10920000000000001         0.15656061118193701     
  0.10950000000000001          4.0263243866210385E-002
  0.10979999999999999         -8.5813812297642872E-002
  0.11009999999999999        -0.20746939945340076     
  0.11040000000000001        -0.31007525892517529     
  0.11070000000000001        -0.37977495971573194     
  0.11100000000000000        -0.40506520411195951     
  0.11130000000000000        -0.37763769944141479     
  0.11160000000000002        -0.29369285566465114     
  0.11190000000000001        -0.15396367714935510     
  0.11220000000000001          3.5632281593242915E-002
  0.11250000000000000         0.26502552263423185     
  0.11280000000000000         0.52006187914048674     
  0.11309999999999999         0.78427741966727149     
  0.11340000000000001          1.0395519240246891     
  0.11369999999999998          1.2681947537328102     
  0.11400000000000000          1.4537682422268596     
  0.11430000000000000          1.5828316529010404     
  0.11460000000000002          1.6454301001157940     
  0.11489999999999999          1.6361842606445243     
  0.11520000000000001          1.5542675734357678     
  0.11550000000000001          1.4034338481208701     
  0.11580000000000000          1.1914316208819364     
  0.11609999999999999         0.92928398142699642     
  0.11640000000000002         0.63036836771560212     
  0.11670000000000001         0.30928916805911499     
  0.11700000000000001         -1.9075949022121980E-002
  0.11730000000000000        -0.34076866983143211     
  0.11760000000000000        -0.64318303670114196     
  0.11789999999999999        -0.91602043384744714     
  0.11820000000000001         -1.1511866761300522     
  0.11850000000000001         -1.3434305428283788     
  0.11880000000000000         -1.4896553932045009     
  0.11910000000000000         -1.5891950357728128     
  0.11940000000000002         -1.6429756765305663     
  0.11970000000000001         -1.6535922724039007     
  0.12000000000000001         -1.6244503659708287     
  0.12030000000000000         -1.5597623403158305     
  0.12060000000000000         -1.4640049847422145     
  0.12089999999999999         -1.3418858473952664     
  0.12119999999999999         -1.1979999350749972     
  0.12150000000000001         -1.0368689193742244     
  0.12180000000000001        -0.86282008845470115     
  0.12210000000000000        -0.67987558256722136     
  0.12239999999999999        -0.49194082457763821     
  0.12270000000000002        -0.30260705288598821     
  0.12300000000000001        -0.11531273719187171     
  0.12330000000000001          6.6946444583174461E-002
  0.12360000000000000         0.24121108284497761     
  0.12390000000000000         0.40497271221781900     
  0.12419999999999999         0.55594955087969966     
  0.12450000000000001         0.69234383453080528     
  0.12480000000000001         0.81255445833080353     
  0.12509999999999999         0.91552953429497519     
  0.12540000000000001          1.0006321201224382     
  0.12570000000000003          1.0676963304122387     
  0.12600000000000000          1.1169383567918238     
  0.12630000000000002          1.1490259846188362     
  0.12659999999999999          1.1648430577345867     
  0.12690000000000001          1.1654278870562851     
  0.12719999999999998          1.1517656241430734     
  0.12750000000000000          1.1246855270519716     
  0.12780000000000002          1.0845783769710411     
  0.12809999999999999          1.0313204622751244     
  0.12840000000000001         0.96416778452288066     
  0.12869999999999998         0.88192446487726506     
  0.12900000000000000         0.78290043784736718     
  0.12930000000000003         0.66538316860432656     
  0.12959999999999999         0.52782053156552156     
  0.12990000000000002         0.36928534692333242     
  0.13019999999999998         0.19000932349915955     
  0.13050000000000000         -8.3889322971765802E-003
  0.13080000000000003        -0.22238994164452092     
  0.13109999999999999        -0.44670734681227320     
  0.13140000000000002        -0.67400412945700994     
  0.13169999999999998        -0.89533863130280855     
  0.13200000000000001         -1.1005802103823892     
  0.13229999999999997         -1.2790043204666164     
  0.13260000000000000         -1.4199403188539308     
  0.13290000000000002         -1.5137735466049258     
  0.13319999999999999         -1.5526764771768324     
  0.13350000000000001         -1.5314074950742178     
  0.13380000000000003         -1.4478354662923216     
  0.13410000000000000         -1.3034195433959139     
  0.13440000000000002         -1.1032042152456656     
  0.13469999999999999        -0.85592193341555933     
  0.13500000000000001        -0.57330775606259798     
  0.13529999999999998        -0.26984429969901835     
  0.13560000000000000          3.8570092947705914E-002
  0.13590000000000002         0.33509329852937131     
  0.13619999999999999         0.60345749277032312     
  0.13650000000000001         0.82850838559269624     
  0.13680000000000003         0.99757755305876916     
  0.13710000000000000          1.1008558720994917     
  0.13740000000000002          1.1323894800801664     
  0.13769999999999999          1.0902013914736548     
  0.13800000000000001         0.97644476917240786     
  0.13829999999999998         0.79728764674032693     
  0.13860000000000000         0.56244424110250013     
  0.13890000000000002         0.28494634436062899     
  0.13919999999999999         -1.9987742147869143E-002
  0.13950000000000001        -0.33531361785200786     
  0.13979999999999998        -0.64371817917855334     
  0.14010000000000000        -0.92761520688044929     
  0.14040000000000002         -1.1709906614787493     
  0.14069999999999999         -1.3592635208856658     
  0.14100000000000001         -1.4811671074021366     
  0.14130000000000004         -1.5281747692785776     
  0.14160000000000000         -1.4961300142754390     
  0.14189999999999997         -1.3845632009073516     
  0.14219999999999999         -1.1977445062613978     
  0.14250000000000002        -0.94371169927847065     
  0.14279999999999998        -0.63474560614611431     
  0.14310000000000000        -0.28618479087964643     
  0.14339999999999997          8.3829649250875132E-002
  0.14369999999999999         0.45578846333392442     
  0.14400000000000002         0.80972761533715631     
  0.14429999999999998          1.1263005258798624     
  0.14460000000000001          1.3884072893918766     
  0.14490000000000003          1.5817618615892632     
  0.14520000000000000          1.6966685057084714     
  0.14550000000000002          1.7278016419133966     
  0.14579999999999999          1.6755105830920620     
  0.14610000000000001          1.5449907111007350     
  0.14640000000000003          1.3468962153858282     
  0.14670000000000000          1.0955853719627453     
  0.14699999999999996         0.80908175436660301     
  0.14729999999999999         0.50684481690605077     
  0.14760000000000001         0.20924673096962992     
  0.14789999999999998         -6.4688380424888475E-002
  0.14820000000000000        -0.29778620018830115     