  -1.4999999999999999E-002     0.0000000000000000     
  -1.4700000000000000E-002    -1.1293146462579004E-035
  -1.4400000000000000E-002    -3.6629986185269381E-028
  -1.4100000000000000E-002    -7.3140849092403089E-025
  -1.3800000000000000E-002     1.2733401391717227E-023
  -1.3500000000000000E-002     3.8954744158571512E-021
  -1.3200000000000000E-002    -7.3715133496121410E-021
  -1.2899999999999998E-002    -6.1799259157886221E-019
  -1.2600000000000000E-002     2.1358366709095117E-018
  -1.2299999999999998E-002     1.8651851891118398E-017
  -1.2000000000000000E-002    -7.7164861603582069E-017
  -1.1699999999999999E-002    -1.8419685897832143E-016
  -1.1399999999999999E-002     9.1193050342525152E-016
  -1.1099999999999999E-002     9.8777201848193373E-016
  -1.0799999999999999E-002    -4.9176815142195345E-015
  -1.0499999999999999E-002    -6.8282913035421757E-015
  -1.0199999999999999E-002     1.5982441197023095E-014
  -9.8999999999999991E-003     4.6477683687431482E-014
  -9.5999999999999992E-003    -3.9038578682478538E-014
  -9.2999999999999992E-003    -1.8142490525750832E-013
  -8.9999999999999993E-003     2.5124066233566654E-015
  -8.6999999999999994E-003     3.9609138647478498E-013
  -8.3999999999999995E-003     5.1406386478353168E-013
  -8.0999999999999996E-003    -2.5102897389271864E-013
  -7.7999999999999988E-003    -2.0097923091880833E-012
  -7.4999999999999997E-003    -2.3676144639124796E-012
  -7.1999999999999998E-003     3.1126800481325578E-012
  -6.8999999999999981E-003     1.2429232893597028E-011
  -6.5999999999999982E-003     1.0031732015182774E-012
  -6.3000000000000000E-003    -2.8021893552169850E-011
  -6.0000000000000001E-003    -1.8006892494847770E-011
  -5.6999999999999985E-003     1.8068207371340351E-011
  -5.3999999999999986E-003     4.3697472075326010E-011
  -5.1000000000000004E-003     6.3606219279266730E-011
  -4.7999999999999987E-003     7.6639399724781845E-012
  -4.5000000000000005E-003    -1.9600077365859050E-010
  -4.1999999999999989E-003    -3.5321348283205854E-010
  -3.8999999999999990E-003     2.5403386149252104E-010
  -3.5999999999999990E-003     1.0200218966784591E-009
  -3.2999999999999991E-003    -2.0334516492897858E-010
  -2.9999999999999992E-003    -1.0575222161125969E-009
  -2.6999999999999993E-003     4.4825316958519315E-010
  -2.3999999999999994E-003    -1.5072911131251016E-009
  -2.0999999999999977E-003    -1.5759617859096770E-009
  -1.7999999999999995E-003     7.0177017553950800E-009
  -1.4999999999999979E-003     2.6561011956808706E-009
  -1.1999999999999997E-003    -1.0078862372840217E-008
  -8.9999999999999976E-004     3.0135328404186165E-010
  -5.9999999999999810E-004     1.1838291096403675E-009
  -2.9999999999999992E-004    -1.0734453925277994E-008
   0.0000000000000000          2.1239595208391145E-008
   3.0000000000000165E-004     2.1300548868951011E-008
   5.9999999999999984E-004    -4.0457104522286176E-008
   9.0000000000000149E-004    -1.0312720856053783E-008
   1.2000000000000031E-003     3.3782929950263281E-008
   1.5000000000000013E-003    -3.5674614797989107E-008
   1.8000000000000030E-003    -3.0324556718403532E-009
   2.1000000000000012E-003     8.8012197076115037E-008
   2.3999999999999994E-003    -1.5738796231941597E-008
   2.7000000000000010E-003    -8.8920866284057776E-008
   2.9999999999999992E-003    -1.6986045589835957E-008
   3.3000000000000008E-003     2.1469815570061469E-008
   3.6000000000000025E-003     1.0015498578217737E-007
   3.9000000000000007E-003     5.8770376160438407E-008
   4.2000000000000023E-003    -1.5942136048740144E-007
   4.5000000000000005E-003    -8.2833291169450048E-008
   4.7999999999999987E-003     7.3079947403729423E-008
   5.1000000000000004E-003     3.6066476731723956E-008
   5.4000000000000020E-003     1.8253717835583404E-007
   5.7000000000000037E-003     3.3057615771954525E-008
   5.9999999999999984E-003    -4.1099590476214868E-007
   6.3000000000000000E-003    -8.4008517711175655E-008
   6.6000000000000017E-003     3.3852736846706036E-007
   6.9000000000000034E-003     3.7228385879876458E-007
   7.2000000000000015E-003     1.1084871160225985E-006
   7.5000000000000032E-003     2.2400616215013782E-006
   7.8000000000000014E-003     5.4097405748723186E-006
   8.0999999999999996E-003     1.6199586804517448E-005
   8.4000000000000012E-003     3.7724483232691987E-005
   8.7000000000000029E-003     6.8799177542283002E-005
   9.0000000000000011E-003     1.0438823396854249E-004
   9.2999999999999992E-003     1.3608892240337967E-004
   9.6000000000000009E-003     1.6064188357221387E-004
   9.8999999999999991E-003     1.8312495580587163E-004
   1.0200000000000001E-002     2.1175845994392912E-004
   1.0500000000000002E-002     2.5545469234118640E-004
   1.0800000000000004E-002     3.1254662014045930E-004
   1.1099999999999999E-002     3.5937422533937870E-004
   1.1400000000000000E-002     3.5484789079146884E-004
   1.1700000000000002E-002     2.3312292181650420E-004
   1.2000000000000004E-002    -1.1784409642390077E-004
   1.2300000000000002E-002    -8.6746131973580482E-004
   1.2600000000000000E-002    -2.2643423741480328E-003
   1.2900000000000002E-002    -4.6773546945501083E-003
   1.3200000000000000E-002    -8.6376374598742152E-003
   1.3500000000000002E-002    -1.4893257202127381E-002
   1.3800000000000003E-002    -2.4465466580971915E-002
   1.4100000000000001E-002    -3.8680851985843603E-002
   1.4400000000000000E-002    -5.9200345532090998E-002
   1.4700000000000001E-002    -8.8049845860109055E-002
   1.4999999999999999E-002   -0.12764824890554427     
   1.5300000000000001E-002   -0.18082169780454829     
   1.5600000000000003E-002   -0.25069965660537108     
   1.5899999999999997E-002   -0.34051656538254177     
   1.6199999999999999E-002   -0.45338611545886870     
   1.6500000000000001E-002   -0.59199092738557246     
   1.6800000000000002E-002   -0.75816429003459029     
   1.7100000000000004E-002   -0.95246278614690638     
   1.7400000000000006E-002    -1.1736629708024930     
   1.7700000000000000E-002    -1.4182374741114987     
   1.8000000000000002E-002    -1.6798418890784981     
   1.8300000000000004E-002    -1.9489989075452212     
   1.8600000000000005E-002    -2.2130112421128278     
   1.8900000000000000E-002    -2.4561881002049741     
   1.9200000000000002E-002    -2.6602485844051369     
   1.9500000000000003E-002    -2.8051809584547005     
   1.9799999999999998E-002    -2.8705314440260472     
   2.0100000000000000E-002    -2.8368883786009249     
   2.0400000000000001E-002    -2.6876410002228006     
   2.0700000000000003E-002    -2.4109937175239216     
   2.0999999999999998E-002    -2.0015629357996931     
   2.1299999999999999E-002    -1.4619746335796908     
   2.1600000000000001E-002   -0.80353771091422810     
   2.1900000000000003E-002    -4.6723354356218022E-002
   2.2200000000000004E-002    0.77979564707086158     
   2.2500000000000006E-002     1.6403448296486756     
   2.2800000000000001E-002     2.4948536069138640     
   2.3100000000000002E-002     3.3015433104124043     
   2.3400000000000004E-002     4.0203848229525745     
   2.3699999999999999E-002     4.6169022013513015     
   2.4000000000000000E-002     5.0645827042708929     
   2.4300000000000002E-002     5.3481078645534801     
   2.4599999999999997E-002     5.4645478416798747     
   2.4900000000000005E-002     5.4231414618902711     
   2.5200000000000000E-002     5.2456482191550098     
   2.5499999999999995E-002     4.9633479695524167     
   2.5800000000000003E-002     4.6139934863042100     
   2.6099999999999998E-002     4.2388418708422986     
   2.6400000000000007E-002     3.8775621295287284     
   2.6700000000000002E-002     3.5644621809688353     
   2.6999999999999996E-002     3.3257175862562778     
   2.7300000000000005E-002     3.1756084724107323     
   2.7600000000000000E-002     3.1154383822128340     
   2.7900000000000008E-002     3.1335685700571836     
   2.8200000000000003E-002     3.2049339207769005     
   2.8499999999999998E-002     3.2937192641440398     
   2.8800000000000006E-002     3.3564836087539796     
   2.9100000000000001E-002     3.3445861441990705     
   2.9400000000000003E-002     3.2093783299980774     
   2.9700000000000004E-002     2.9058096928950041     
   3.0000000000000006E-002     2.3969504766415413     
   3.0300000000000001E-002     1.6581530207995350     
   3.0600000000000002E-002    0.68074080255739511     
   3.0900000000000004E-002   -0.52510323074054466     
   3.1199999999999999E-002    -1.9274185151479908     
   3.1500000000000007E-002    -3.4720345091032541     
   3.1800000000000002E-002    -5.0831411438413516     
   3.2099999999999997E-002    -6.6637572386903532     
   3.2400000000000005E-002    -8.1022607864241696     
   3.2700000000000000E-002    -9.2773564578550545     
   3.3000000000000002E-002    -10.064653044628443     
   3.3300000000000003E-002    -10.350204665205876     
   3.3599999999999998E-002    -10.038195970900128     
   3.3900000000000000E-002    -9.0641532105057649     
   3.4200000000000001E-002    -7.4057114759792686     
   3.4500000000000003E-002    -5.0908144922137168     
   3.4799999999999998E-002    -2.2036852115875067     
   3.5099999999999999E-002     1.1125718691624575     
   3.5400000000000001E-002     4.6612977528550150     
   3.5699999999999996E-002     8.2009274678062685     
   3.6000000000000004E-002     11.458849504723231     
   3.6299999999999999E-002     14.152228915136510     
   3.6600000000000008E-002     16.010204221429980     
   3.6900000000000002E-002     16.797511398424714     
   3.7199999999999997E-002     16.339147200881300     
   3.7500000000000006E-002     14.540413755179081     
   3.7800000000000000E-002     11.400446308064218     
   3.8100000000000009E-002     7.0203489395698551     
   3.8400000000000004E-002     1.6026726682724042     
   3.8699999999999998E-002    -4.5618067978610206     
   3.9000000000000007E-002    -11.109289244575947     
   3.9300000000000002E-002    -17.631189677359696     
   3.9600000000000003E-002    -23.704176272217115     
   3.9900000000000005E-002    -28.921234474712698     
   4.0200000000000000E-002    -32.925195070078082     
   4.0500000000000001E-002    -35.434283087732538     
   4.0800000000000003E-002    -36.264192179837515     
   4.1100000000000005E-002    -35.340639266715890     
   4.1399999999999999E-002    -32.704861278456974     
   4.1700000000000008E-002    -28.504811935458726     
   4.2000000000000003E-002    -22.984256819696643     
   4.2299999999999997E-002    -16.462695927893733     
   4.2600000000000006E-002    -9.3057532884009539     
   4.2900000000000001E-002    -1.9029015492339800     
   4.3200000000000002E-002     5.3628580762486866     
   4.3500000000000004E-002     12.140645058584058     
   4.3799999999999999E-002     18.132770816967852     
   4.4100000000000000E-002     23.105572306564813     
   4.4400000000000002E-002     26.907522184814276     
   4.4700000000000004E-002     29.463107007017449     
   4.4999999999999998E-002     30.774664113918149     
   4.5300000000000000E-002     30.913368306532938     
   4.5600000000000002E-002     30.006429319133304     
   4.5899999999999996E-002     28.222606610591825     
   4.6200000000000005E-002     25.755877614880461     
   4.6500000000000000E-002     22.811473953026042     
   4.6799999999999994E-002     19.587994273624098     
   4.7100000000000003E-002     16.267774186157567     
   4.7399999999999998E-002     13.009300773659053     
   4.7700000000000006E-002     9.9331175978995745     
   4.8000000000000001E-002     7.1294472898322816     
   4.8300000000000010E-002     4.6499078856453595     
   4.8600000000000004E-002     2.5125902990394167     
   4.8899999999999999E-002    0.70817009715493295     
   4.9200000000000008E-002   -0.79339133147438456     
   4.9500000000000002E-002    -2.0422532265271496     
   4.9800000000000011E-002    -3.0900562091154584     
   5.0100000000000006E-002    -3.9936294590268417     
   5.0400000000000000E-002    -4.8058039509261583     
   5.0700000000000009E-002    -5.5636744672366456     
   5.1000000000000004E-002    -6.2995250707950143     
   5.1299999999999998E-002    -7.0250111973940630     
   5.1600000000000007E-002    -7.7394973495243651     
   5.1900000000000002E-002    -8.4297712697548128     
   5.2200000000000010E-002    -9.0716442826334411     
   5.2500000000000005E-002    -9.6318185379244241     
   5.2800000000000000E-002    -10.076454883961977     
   5.3099999999999994E-002    -10.370634157737303     
   5.3400000000000003E-002    -10.482547555778741     
   5.3699999999999998E-002    -10.389782564376102     
   5.4000000000000006E-002    -10.078055855715412     
   5.4300000000000001E-002    -9.5445070617304850     
   5.4599999999999996E-002    -8.7994867141231676     
   5.4900000000000004E-002    -7.8647557739723268     
   5.5199999999999999E-002    -6.7728986064161010     
   5.5499999999999994E-002    -5.5653913610199375     
   5.5800000000000002E-002    -4.2933255791642271     
   5.6099999999999997E-002    -3.0059902242817671     
   5.6400000000000006E-002    -1.7600074296871675     
   5.6700000000000000E-002   -0.60367156785903364     
   5.6999999999999995E-002    0.41839878957308274     
   5.7300000000000004E-002     1.2706135248544803     
   5.7599999999999998E-002     1.9303124668846707     
   5.7900000000000007E-002     2.3863564810971587     
   5.8200000000000002E-002     2.6423278583793000     
   5.8499999999999996E-002     2.7137032468581870     
   5.8800000000000005E-002     2.6293630015265950     
   5.9100000000000000E-002     2.4252767578161913     
   5.9400000000000008E-002     2.1449425769950365     
   5.9700000000000003E-002     1.8331233332719903     
   6.0000000000000012E-002     1.5339216805410278     
   6.0300000000000006E-002     1.2860061806960275     
   6.0600000000000001E-002     1.1199858764089392     
   6.0900000000000010E-002     1.0578941824349015     
   6.1200000000000004E-002     1.1082126056399573     
   6.1500000000000013E-002     1.2708845509749276     
   6.1800000000000008E-002     1.5319913022745206     
   6.2100000000000002E-002     1.8713934073224103     
   6.2399999999999997E-002     2.2609506591301280     
   6.2700000000000006E-002     2.6668907951102097     
   6.3000000000000000E-002     3.0570940095068275     
   6.3300000000000009E-002     3.3966620191279393     
   6.3600000000000004E-002     3.6561631815352738     
   6.3899999999999998E-002     3.8112469351103613     
   6.4199999999999993E-002     3.8446703618184976     
   6.4500000000000002E-002     3.7455324688193325     
   6.4800000000000010E-002     3.5142185759584144     
   6.5100000000000005E-002     3.1578799199502989     
   6.5400000000000000E-002     2.6907015601621911     
   6.5700000000000008E-002     2.1383074388983569     
   6.5999999999999989E-002     1.5260444213035878     
   6.6299999999999998E-002    0.88808681930895039     
   6.6600000000000006E-002    0.25753835360291233     
   6.6900000000000001E-002   -0.33310190913861221     
   6.7199999999999996E-002   -0.85362848608749631     
   6.7500000000000004E-002    -1.2789725783805355     
   6.7800000000000013E-002    -1.5928957300488240     
   6.8099999999999994E-002    -1.7848268545007553     
   6.8400000000000002E-002    -1.8544044443171537     
   6.8700000000000011E-002    -1.8112253593114840     
   6.8999999999999992E-002    -1.6690999770942883     
   6.9300000000000000E-002    -1.4512655979955180     
   6.9600000000000009E-002    -1.1837817340717791     
   6.9900000000000004E-002   -0.89334780914651590     
   7.0199999999999999E-002   -0.60898410729955332     
   7.0500000000000007E-002   -0.35418517688813334     
   7.0800000000000016E-002   -0.15051626020858389     
   7.1099999999999997E-002    -1.1397985329803184E-002
   7.1400000000000005E-002     5.3126069835441353E-002
   7.1700000000000000E-002     4.1880942428121952E-002
   7.1999999999999995E-002    -4.1865842522815368E-002
   7.2300000000000003E-002   -0.18966694102196235     
   7.2600000000000012E-002   -0.38788702876627529     
   7.2900000000000006E-002   -0.62127128905813755     
   7.3200000000000001E-002   -0.87156900188280451     
   7.3499999999999996E-002    -1.1210756723186690     
   7.3800000000000004E-002    -1.3505448364940928     
   7.4099999999999999E-002    -1.5440892770501122     
   7.4400000000000008E-002    -1.6852107789584083     
   7.4700000000000003E-002    -1.7609292822134932     
   7.5000000000000011E-002    -1.7613823088167742     
   7.5299999999999992E-002    -1.6795715889883120     
   7.5600000000000001E-002    -1.5138467101105029     
   7.5900000000000009E-002    -1.2664977916326534     
   7.6200000000000004E-002   -0.94611250692442739     
   7.6499999999999999E-002   -0.56555460641806965     
   7.6800000000000007E-002   -0.14487084402671063     
   7.7099999999999988E-002    0.29274562507370872     
   7.7399999999999997E-002    0.72053640273849417     
   7.7700000000000005E-002     1.1081084932854051     
   7.8000000000000014E-002     1.4284010462976306     
   7.8299999999999995E-002     1.6553248352004741     
   7.8600000000000003E-002     1.7683139217703987     
   7.8900000000000012E-002     1.7551952112690123     
   7.9199999999999993E-002     1.6135025522171547     
   7.9500000000000001E-002     1.3487670284180091     
   7.9800000000000010E-002    0.97944052037152129     
   8.0100000000000018E-002    0.53229318567094053     
   8.0399999999999999E-002     3.9329737578110258E-002
   8.0700000000000008E-002   -0.45975966419273484     
   8.1000000000000003E-002   -0.92679183420588873     
   8.1299999999999997E-002    -1.3257309519881950     
   8.1600000000000006E-002    -1.6256537807020270     
   8.1900000000000014E-002    -1.8041439516913231     
   8.2199999999999995E-002    -1.8502962879645000     
   8.2500000000000004E-002    -1.7628577741179048     
   8.2799999999999999E-002    -1.5517712039172649     
   8.3100000000000007E-002    -1.2376138320479126     
   8.3400000000000002E-002   -0.84570011187269634     
   8.3700000000000011E-002   -0.40738763213908924     
   8.4000000000000005E-002     4.3944498710500018E-002
   8.4300000000000000E-002    0.47865626584924303     
   8.4599999999999995E-002    0.86888592176870905     
   8.4900000000000003E-002     1.1924837322294377     
   8.5199999999999998E-002     1.4358762134218255     
   8.5500000000000007E-002     1.5911570451496113     
   8.5800000000000001E-002     1.6565774320005819     
   8.6100000000000010E-002     1.6387555262075459     
   8.6399999999999991E-002     1.5471708629384529     
   8.6699999999999999E-002     1.3951298946749302     
   8.7000000000000008E-002     1.1987594991969468     
   8.7300000000000003E-002    0.97464477323626486     
   8.7599999999999997E-002    0.73825697416457958     
   8.7900000000000006E-002    0.50457623030891063     
   8.8200000000000014E-002    0.28646127226149432     
   8.8499999999999995E-002     9.3666976787982803E-002
   8.8800000000000004E-002    -6.6477968825370409E-002
   8.9100000000000013E-002   -0.18975906816206442     
   8.9399999999999993E-002   -0.27574050204439121     
   8.9700000000000002E-002   -0.32539026162493084     
   9.0000000000000011E-002   -0.34419479414021414     
   9.0299999999999991E-002   -0.33814687925732495     
   9.0600000000000000E-002   -0.31460635419223809     
   9.0900000000000009E-002   -0.28278801627447336     
   9.1200000000000017E-002   -0.25035643083162601     
   9.1499999999999998E-002   -0.22376138787091868     
   9.1800000000000007E-002   -0.20921029720445838     
   9.2100000000000001E-002   -0.20987689259869635     
   9.2399999999999996E-002   -0.22613504724515443     
   9.2700000000000005E-002   -0.25710519872022630     
   9.3000000000000013E-002   -0.29962329208714600     
   9.3300000000000008E-002   -0.34719065275635835     
   9.3600000000000003E-002   -0.39551726701101786     
   9.3899999999999997E-002   -0.43751165712414897     
   9.4200000000000006E-002   -0.46692534664435803     
   9.4500000000000001E-002   -0.47874316410649359     
   9.4800000000000009E-002   -0.46936927119690891     
   9.5100000000000004E-002   -0.43579186129279113     
   9.5399999999999999E-002   -0.37857736310483880     
   9.5699999999999993E-002   -0.29835877235970087     
   9.6000000000000002E-002   -0.19757381520065109     
   9.6300000000000011E-002    -8.1485743148147244E-002
   9.6600000000000005E-002     4.5524947815316269E-002
   9.6900000000000000E-002    0.17717585041916259     
   9.7200000000000009E-002    0.30627774958567744     
   9.7499999999999989E-002    0.42728001764470247     
   9.7799999999999998E-002    0.53330073671422862     
   9.8100000000000007E-002    0.61848509559389131     
   9.8400000000000015E-002    0.67862926045966354     
   9.8699999999999996E-002    0.71043958424973319     
   9.9000000000000005E-002    0.71075733629343740     
   9.9300000000000013E-002    0.68119181360020542     
   9.9599999999999994E-002    0.62103210876834147     
   9.9900000000000003E-002    0.53378913820455465     
  0.10020000000000001         0.42452158761155590     
  0.10049999999999999         0.29669986282712713     
  0.10080000000000000         0.15798493618665505     
  0.10110000000000001          1.3891427130207745E-002
  0.10140000000000000        -0.12925285380919022     
  0.10170000000000000        -0.26513141381887578     
  0.10200000000000001        -0.38808362374850908     
  0.10230000000000002        -0.49436177710519713     
  0.10260000000000000        -0.58019505163038920     
  0.10290000000000001        -0.64254747404388146     
  0.10320000000000000        -0.68155055755786464     
  0.10350000000000001        -0.69608595722556255     
  0.10380000000000000        -0.68736786045924081     
  0.10410000000000001        -0.65703477081605111     
  0.10440000000000001        -0.60859331855516507     
  0.10470000000000000        -0.54354767463937259     
  0.10500000000000000        -0.46709278030070311     
  0.10530000000000000        -0.38274922006943329     
  0.10560000000000000        -0.29378566832291719     
  0.10590000000000001        -0.20538364804356488     
  0.10620000000000000        -0.11956959372099013     
  0.10650000000000001         -4.0549361849612532E-002
  0.10679999999999999          2.9970634933274655E-002
  0.10710000000000000          9.0422077152474079E-002
  0.10740000000000001         0.14004459804600289     
  0.10770000000000000         0.17906835018449102     
  0.10800000000000000         0.20787483207348559     
  0.10830000000000001         0.22864651876362585     
  0.10859999999999999         0.24098080041799330     
  0.10890000000000000         0.24843271079993989     
  0.10920000000000001         0.25124602931252382     
  0.10950000000000001         0.25009956044087550     
  0.10979999999999999         0.24631427594421129     
  0.11009999999999999         0.23993378899199047     
  0.11040000000000001         0.22999222191373331     
  0.11070000000000001         0.21704912311679148     
  0.11100000000000000         0.20095679450433715     
  0.11130000000000000         0.17992383098434300     
  0.11160000000000002         0.15590210525674833     
  0.11190000000000001         0.12797650847409561     
  0.11220000000000001          9.7177849743853295E-002
  0.11250000000000000          6.4890610720207853E-002
  0.11280000000000000          3.1845743755350382E-002
  0.11309999999999999         -1.4890121497325784E-004
  0.11340000000000001         -3.0601931487549604E-002
  0.11369999999999998         -5.7186818925368504E-002
  0.11400000000000000         -8.0669414155537217E-002
  0.11430000000000000         -9.8839891450169137E-002
  0.11460000000000002        -0.11213874161289439     
  0.11489999999999999        -0.12061926756411709     
  0.11520000000000001        -0.12384700574730312     
  0.11550000000000001        -0.12220724515412792     
  0.11580000000000000        -0.11569804599712649     
  0.11609999999999999        -0.10519255323440391     
  0.11640000000000002         -9.0398180406608158E-002
  0.11670000000000001         -7.2755811275834192E-002
  0.11700000000000001         -5.2658095436328128E-002
  0.11730000000000000         -3.0842600108807204E-002
  0.11760000000000000         -9.1919687086066577E-003
  0.11789999999999999          1.2343720129598581E-002
  0.11820000000000001          3.1441936881041778E-002
  0.11850000000000001          4.8327849825160446E-002
  0.11880000000000000          6.1379120992177877E-002
  0.11910000000000000          7.0879573001706164E-002
  0.11940000000000002          7.5881943883881850E-002
  0.11970000000000001          7.7734732954808233E-002
  0.12000000000000001          7.5315224291970295E-002
  0.12030000000000000          7.0291533907725828E-002
  0.12060000000000000          6.3105033212543654E-002
  0.12089999999999999          5.2959870815353104E-002
  0.12119999999999999          4.1999422807290500E-002
  0.12150000000000001          2.9740247203170686E-002
  0.12180000000000001          1.6520260995793724E-002
  0.12210000000000000          3.8335814496827623E-003
  0.12239999999999999         -8.7309729111168001E-003
  0.12270000000000002         -1.8899582678482282E-002
  0.12300000000000001         -2.6904145247275232E-002
  0.12330000000000001         -3.0111898986408592E-002
  0.12360000000000000         -2.8313325426498212E-002
  0.12390000000000000         -1.9888874119790054E-002
  0.12419999999999999         -5.0437152742586460E-003
  0.12450000000000001          1.7618663524172747E-002
  0.12480000000000001          4.5701299496004363E-002
  0.12509999999999999          7.8916987119796014E-002
  0.12540000000000001         0.11537482929987940     
  0.12570000000000003         0.15174221520389339     
  0.12600000000000000         0.18620396047013071     
  0.12630000000000002         0.21618484829231260     
  0.12659999999999999         0.23873655100396085     
  0.12690000000000001         0.25288616099085559     
  0.12719999999999998         0.25733899632189461     
  0.12750000000000000         0.25215278750564185     
  0.12780000000000002         0.23689198254125624     
  0.12809999999999999         0.21406969382279245     
  0.12840000000000001         0.18362298792682100     
  0.12869999999999998         0.14881397306494479     
  0.12900000000000000         0.11082891846313563     
  0.12930000000000003          7.1951440500565178E-002
  0.12959999999999999          3.3944096434226002E-002
  0.12990000000000002         -1.3928935433392062E-003
  0.13019999999999998         -3.2822166759427333E-002
  0.13050000000000000         -5.9554181377531913E-002
  0.13080000000000003         -7.9959361650444968E-002
  0.13109999999999999         -9.4879636071809437E-002
  0.13140000000000002        -0.10353634613972711     
  0.13169999999999998        -0.10662143832540068     
  0.13200000000000001        -0.10537328489273062     
  0.13229999999999997        -0.10020732779038284     
  0.13260000000000000         -9.3132647928173454E-002
  0.13290000000000002         -8.5284937028235724E-002
  0.13319999999999999         -7.8219691640328576E-002
  0.13350000000000001         -7.3207970058730740E-002
  0.13380000000000003         -7.1154347450083005E-002
  0.13410000000000000         -7.2213531821412366E-002
  0.13440000000000002         -7.6409105071681666E-002
  0.13469999999999999         -8.3697393709821072E-002
  0.13500000000000001         -9.2022564700305315E-002
  0.13529999999999998        -0.10196680095463377     
  0.13560000000000000        -0.11069919947365062     
  0.13590000000000002        -0.11843768655496101     
  0.13619999999999999        -0.12352002813546195     
  0.13650000000000001        -0.12649648915601738     
  0.13680000000000003        -0.12688481498186827     
  0.13710000000000000        -0.12519850457994616     
  0.13740000000000002        -0.12236680087295942     
  0.13769999999999999        -0.11874717489869407     
  0.13800000000000001        -0.11544827750693031     
  0.13829999999999998        -0.11294323446897775     
  0.13860000000000000        -0.11185458866568476     
  0.13890000000000002        -0.11178659244922966     
  0.13919999999999999        -0.11228165916914254     
  0.13950000000000001        -0.11349458087554223     
  0.13979999999999998        -0.11349717354338686     
  0.14010000000000000        -0.11256787468980593     
  0.14040000000000002        -0.10872993826947765     
  0.14069999999999999        -0.10207702570870729     
  0.14100000000000001         -9.1481037520820763E-002
  0.14130000000000004         -7.7128741381553900E-002
  0.14160000000000000         -5.8918465199359032E-002
  0.14189999999999997         -3.6979761608513385E-002
  0.14219999999999999         -1.2402628855867908E-002
  0.14250000000000002          1.4428015149689367E-002
  0.14279999999999998          4.1990569796587357E-002
  0.14310000000000000          6.9885151720822020E-002
  0.14339999999999997          9.5266057937861567E-002
  0.14369999999999999         0.11869293221768876     
  0.14400000000000002         0.13799238466887143     
  0.14429999999999998         0.15194529694396292     
  0.14460000000000001         0.16135324717863245     
  0.14490000000000003         0.16450315216618788     
  0.14520000000000000         0.16241141235888415     
  0.14550000000000002         0.15599388720356328     
  0.14579999999999999         0.14521126870367224     
  0.14610000000000001         0.13190745445418101     
  0.14640000000000003         0.11751360806726058     
  0.14670000000000000         0.10269104577288705     
  0.14699999999999996          8.8553026657869974E-002
  0.14729999999999999          7.6439252326081564E-002
  0.14760000000000001          6.5314546609088475E-002
  0.14789999999999998          5.6813071176236005E-002
  0.14820000000000000          4.9040816601020283E-002