  -1.4999999999999999E-002     0.0000000000000000     
  -1.4700000000000000E-002     0.0000000000000000     
  -1.4400000000000000E-002     0.0000000000000000     
  -1.4100000000000000E-002     1.0670263173395304E-035
  -1.3800000000000000E-002     9.4297945951958858E-033
  -1.3500000000000000E-002    -7.0582887994257000E-030
  -1.3200000000000000E-002    -6.5561063374192101E-028
  -1.2899999999999998E-002     2.7187979542200946E-027
  -1.2600000000000000E-002     2.9583238237969809E-025
  -1.2299999999999998E-002    -9.6498150783313908E-025
  -1.2000000000000000E-002    -2.5523119890402546E-023
  -1.1699999999999999E-002     1.0473330216220104E-022
  -1.1399999999999999E-002     6.9726257103534375E-022
  -1.1099999999999999E-002    -3.4984412830275877E-021
  -1.0799999999999999E-002    -7.6052132582690898E-021
  -1.0499999999999999E-002     5.0079992971411472E-020
  -1.0199999999999999E-002     4.2882050579882996E-020
  -9.8999999999999991E-003    -3.8273647150777963E-019
  -9.5999999999999992E-003    -2.8565043175294919E-019
  -9.2999999999999992E-003     1.9622808699007560E-018
  -8.9999999999999993E-003     2.6237742865528878E-018
  -8.6999999999999994E-003    -8.2010003272129427E-018
  -8.3999999999999995E-003    -1.6681160747590785E-017
  -8.0999999999999996E-003     2.5746888442586580E-017
  -7.7999999999999988E-003     6.9372659864367257E-017
  -7.4999999999999997E-003    -3.5022192502857815E-017
  -7.1999999999999998E-003    -1.9836072893592589E-016
  -6.8999999999999981E-003    -1.2183476902159665E-016
  -6.5999999999999982E-003     2.8334961805903997E-016
  -6.3000000000000000E-003     8.5523365165825261E-016
  -6.0000000000000001E-003     8.6627171576847335E-016
  -5.6999999999999985E-003    -2.7632503776222364E-015
  -5.3999999999999986E-003    -6.9597931780723573E-015
  -5.1000000000000004E-003     5.2586312768945968E-015
  -4.7999999999999987E-003     2.2120253561322206E-014
  -4.5000000000000005E-003    -1.2215338981795656E-015
  -4.1999999999999989E-003    -4.2278609405385669E-014
  -3.8999999999999990E-003    -9.3863620074430511E-015
  -3.5999999999999990E-003     1.9647459841264071E-014
  -3.2999999999999991E-003    -5.7682437769734256E-014
  -2.9999999999999992E-003     2.6373312614076417E-013
  -2.6999999999999993E-003     3.3528855424187674E-013
  -2.3999999999999994E-003    -1.1813085287065910E-012
  -2.0999999999999977E-003    -4.5181167178435953E-013
  -1.7999999999999995E-003     2.1971814955420222E-012
  -1.4999999999999979E-003    -9.5869071250200074E-013
  -1.1999999999999997E-003     1.3332336656580615E-013
  -8.9999999999999976E-004     4.1919091258338772E-012
  -5.9999999999999810E-004    -1.0469563484952331E-011
  -2.9999999999999992E-004    -2.6850173539492174E-012
   0.0000000000000000          2.2346886797131343E-011
   3.0000000000000165E-004    -1.8953844927285505E-011
   5.9999999999999984E-004    -1.6228421616174118E-012
   9.0000000000000149E-004     6.6897897528538016E-011
   1.2000000000000031E-003    -1.0027194084103409E-010
   1.5000000000000013E-003    -9.9058904002195123E-011
   1.8000000000000030E-003     2.7524699019639820E-010
   2.1000000000000012E-003     1.0040065173833534E-011
   2.3999999999999994E-003    -3.8955045319767857E-010
   2.7000000000000010E-003     2.9018081016179778E-010
   2.9999999999999992E-003     2.6407692143266396E-010
   3.3000000000000008E-003    -7.0664145796456250E-010
   3.6000000000000025E-003     6.5243814633801040E-011
   3.9000000000000007E-003     8.6458219184512124E-010
   4.2000000000000023E-003    -2.0183555580017084E-010
   4.5000000000000005E-003    -3.2951467681200187E-010
   4.7999999999999987E-003    -2.7319988930087307E-010
   5.1000000000000004E-003    -8.8259930823984781E-010
   5.4000000000000020E-003     1.2131966001825266E-009
   5.7000000000000037E-003     2.0525187190040786E-009
   5.9999999999999984E-003    -1.9447133297818044E-009
   6.3000000000000000E-003    -2.4001095502807295E-009
   6.6000000000000017E-003     2.1818902807592887E-009
   6.9000000000000034E-003     2.2543525932517975E-009
   7.2000000000000015E-003    -2.5506100139014904E-009
   7.5000000000000032E-003    -3.1274939607771959E-009
   7.8000000000000014E-003     3.5802139733151113E-009
   8.0999999999999996E-003     5.9196509783478094E-009
   8.4000000000000012E-003    -4.3577044847696496E-009
   8.7000000000000029E-003    -9.5125188673112923E-009
   9.0000000000000011E-003     2.7487697403283451E-009
   9.2999999999999992E-003     1.2462650686729927E-008
   9.6000000000000009E-003     3.9954224837438415E-009
   9.8999999999999991E-003    -1.5480983939901775E-008
   1.0200000000000001E-002    -2.2084081653872103E-008
   1.0500000000000002E-002     1.5899968169569815E-008
   1.0800000000000004E-002     6.5790777838374241E-008
   1.1099999999999999E-002     1.0209568259589671E-008
   1.1400000000000000E-002    -1.6641200511378891E-007
   1.1700000000000002E-002    -1.5774367875670391E-007
   1.2000000000000004E-002     5.1578995696832996E-007
   1.2300000000000002E-002     1.8994339427998143E-006
   1.2600000000000000E-002     3.4598528256442355E-006
   1.2900000000000002E-002     5.0728575549897920E-006
   1.3200000000000000E-002     7.3887279611184586E-006
   1.3500000000000002E-002     1.0714168378817807E-005
   1.3800000000000003E-002     1.5909199254553069E-005
   1.4100000000000001E-002     2.7280991439613580E-005
   1.4400000000000000E-002     4.9599088746434373E-005
   1.4700000000000001E-002     7.9493080203132499E-005
   1.4999999999999999E-002     1.0676229163668501E-004
   1.5300000000000001E-002     1.2960240945155782E-004
   1.5600000000000003E-002     1.6061108488016777E-004
   1.5899999999999997E-002     2.0967289524333950E-004
   1.6199999999999999E-002     2.6931100800694265E-004
   1.6500000000000001E-002     3.2701295891744762E-004
   1.6800000000000002E-002     3.8102806564930712E-004
   1.7100000000000004E-002     4.2455089273111309E-004
   1.7400000000000006E-002     4.1297289411508362E-004
   1.7700000000000000E-002     2.5785946329424155E-004
   1.8000000000000002E-002    -1.4973181574494542E-004
   1.8300000000000004E-002    -9.3149007947220333E-004
   1.8600000000000005E-002    -2.2562136404478609E-003
   1.8900000000000000E-002    -4.3912412565829586E-003
   1.9200000000000002E-002    -7.7333900258636208E-003
   1.9500000000000003E-002    -1.2811949180891659E-002
   1.9799999999999998E-002    -2.0286181466618813E-002
   2.0100000000000000E-002    -3.0965618055342595E-002
   2.0400000000000001E-002    -4.5848960821296462E-002
   2.0700000000000003E-002    -6.6140359531015325E-002
   2.0999999999999998E-002    -9.3226512483930324E-002
   2.1299999999999999E-002   -0.12863032203834357     
   2.1600000000000001E-002   -0.17396203743051808     
   2.1900000000000003E-002   -0.23084684630997751     
   2.2200000000000004E-002   -0.30080743869127263     
   2.2500000000000006E-002   -0.38508792738611430     
   2.2800000000000001E-002   -0.48445581157555784     
   2.3100000000000002E-002   -0.59903280393273939     
   2.3400000000000004E-002   -0.72807679683892379     
   2.3699999999999999E-002   -0.86976198085566303     
   2.4000000000000000E-002    -1.0209511251836785     
   2.4300000000000002E-002    -1.1771478343475867     
   2.4599999999999997E-002    -1.3323672657227288     
   2.4900000000000005E-002    -1.4793135725645239     
   2.5200000000000000E-002    -1.6093829438404061     
   2.5499999999999995E-002    -1.7132216229055417     
   2.5800000000000003E-002    -1.7809820882552736     
   2.6099999999999998E-002    -1.8029797774881573     
   2.6400000000000007E-002    -1.7703338372146689     
   2.6700000000000002E-002    -1.6758338937836563     
   2.6999999999999996E-002    -1.5144480040411654     
   2.7300000000000005E-002    -1.2842490306981307     
   2.7600000000000000E-002   -0.98683217285022706     
   2.7900000000000008E-002   -0.62729499841198300     
   2.8200000000000003E-002   -0.21518083662204937     
   2.8499999999999998E-002    0.23664538045637634     
   2.8800000000000006E-002    0.71206991008814258     
   2.9100000000000001E-002     1.1923132812933426     
   2.9400000000000003E-002     1.6575244210332900     
   2.9700000000000004E-002     2.0879437345042597     
   3.0000000000000006E-002     2.4650320319799799     
   3.0300000000000001E-002     2.7732390581681332     
   3.0600000000000002E-002     3.0015160196345123     
   3.0900000000000004E-002     3.1438621593693674     
   3.1199999999999999E-002     3.2005969582958640     
   3.1500000000000007E-002     3.1783787318966854     
   3.1800000000000002E-002     3.0899821856990743     
   3.2099999999999997E-002     2.9535438204946725     
   3.2400000000000005E-002     2.7909363944942363     
   3.2700000000000000E-002     2.6261026159478895     
   3.3000000000000002E-002     2.4823917692598241     
   3.3300000000000003E-002     2.3807057721959906     
   3.3599999999999998E-002     2.3365325335622620     
   3.3900000000000000E-002     2.3586446646778496     
   3.4200000000000001E-002     2.4468054158398638     
   3.4500000000000003E-002     2.5918740573614727     
   3.4799999999999998E-002     2.7756983527891936     
   3.5099999999999999E-002     2.9722518154904387     
   3.5400000000000001E-002     3.1500803600561089     
   3.5699999999999996E-002     3.2746843422448944     
   3.6000000000000004E-002     3.3123199047156366     
   3.6299999999999999E-002     3.2327913353250044     
   3.6600000000000008E-002     3.0129343624906215     
   3.6900000000000002E-002     2.6392292227244685     
   3.7199999999999997E-002     2.1091122011965111     
   3.7500000000000006E-002     1.4321556844804693     
   3.7800000000000000E-002    0.62872979783619221     
   3.8100000000000009E-002   -0.27005469596514364     
   3.8400000000000004E-002    -1.2268930389064427     
   3.8699999999999998E-002    -2.1986886897896594     
   3.9000000000000007E-002    -3.1418439516260532     
   3.9300000000000002E-002    -4.0143307560962960     
   3.9600000000000003E-002    -4.7790897971972379     
   3.9900000000000005E-002    -5.4047573502024138     
   4.0200000000000000E-002    -5.8687709120152203     
   4.0500000000000001E-002    -6.1577437567449227     
   4.0800000000000003E-002    -6.2658103107663381     
   4.1100000000000005E-002    -6.1969841124682894     
   4.1399999999999999E-002    -5.9615047627867108     
   4.1700000000000008E-002    -5.5768636019843472     
   4.2000000000000003E-002    -5.0651453424934125     
   4.2299999999999997E-002    -4.4534734348500526     
   4.2600000000000006E-002    -3.7720125968733571     
   4.2900000000000001E-002    -3.0535084274133379     
   4.3200000000000002E-002    -2.3323487524112774     
   4.3500000000000004E-002    -1.6440218187319431     
   4.3799999999999999E-002    -1.0236379798128683     
   4.4100000000000000E-002   -0.50290326986365430     
   4.4400000000000002E-002   -0.11027618650381329     
   4.4700000000000004E-002    0.13381362241542241     
   4.4999999999999998E-002    0.21910686419872274     
   4.5300000000000000E-002    0.14841457584508491     
   4.5600000000000002E-002    -6.0081058483308865E-002
   4.5899999999999996E-002   -0.37048478513622274     
   4.6200000000000005E-002   -0.72884250694182717     
   4.6500000000000000E-002    -1.0671225828618274     
   4.6799999999999994E-002    -1.3029896021622505     
   4.7100000000000003E-002    -1.3505080933026632     
   4.7399999999999998E-002    -1.1247232002108580     
   4.7700000000000006E-002   -0.55480326789688184     
   4.8000000000000001E-002    0.40825241295593340     
   4.8300000000000010E-002     1.7785704707919574     
   4.8600000000000004E-002     3.5287643899844849     
   4.8899999999999999E-002     5.5836509296264545     
   4.9200000000000008E-002     7.8190887568655061     
   4.9500000000000002E-002     10.066778915471668     
   4.9800000000000011E-002     12.122906426189669     
   5.0100000000000006E-002     13.764980982808318     
   5.0400000000000000E-002     14.768723186016221     
   5.0700000000000009E-002     14.932693182209803     
   5.1000000000000004E-002     14.099042616183148     
   5.1299999999999998E-002     12.174008138124357     
   5.1600000000000007E-002     9.1445272709440353     
   5.1900000000000002E-002     5.0865105811301419     
   5.2200000000000010E-002    0.16703679860239398     
   5.2500000000000005E-002    -5.3639434344534251     
   5.2800000000000000E-002    -11.187782024578581     
   5.3099999999999994E-002    -16.943484878540680     
   5.3400000000000003E-002    -22.250812040435633     
   5.3699999999999998E-002    -26.745087995762081     
   5.4000000000000006E-002    -30.105452841953579     
   5.4300000000000001E-002    -32.077658918741072     
   5.4599999999999996E-002    -32.501113196611946     
   5.4900000000000004E-002    -31.314660357646915     
   5.5199999999999999E-002    -28.563901292143694     
   5.5499999999999994E-002    -24.395259337076084     
   5.5800000000000002E-002    -19.042272161686391     
   5.6099999999999997E-002    -12.807339395203194     
   5.6400000000000006E-002    -6.0334337859553706     
   5.6700000000000000E-002    0.91226647189702548     
   5.6999999999999995E-002     7.6784208535610121     
   5.7300000000000004E-002     13.937949831348691     
   5.7599999999999998E-002     19.420260960175096     
   5.7900000000000007E-002     23.911483242489304     
   5.8200000000000002E-002     27.276318906237041     
   5.8499999999999996E-002     29.449235268760418     
   5.8800000000000005E-002     30.432948394666852     
   5.9100000000000000E-002     30.299437805440501     
   5.9400000000000008E-002     29.162581748803504     
   5.9700000000000003E-002     27.181460726908814     
   6.0000000000000012E-002     24.534835264404499     
   6.0300000000000006E-002     21.414336674272967     
   6.0600000000000001E-002     18.007329530619078     
   6.0900000000000010E-002     14.489392900549753     
   6.1200000000000004E-002     11.016084413052672     
   6.1500000000000013E-002     7.7099144984854613     
   6.1800000000000008E-002     4.6721805333018445     
   6.2100000000000002E-002     1.9592079516735219     
   6.2399999999999997E-002   -0.39208085171103563     
   6.2700000000000006E-002    -2.3825888276498497     
   6.3000000000000000E-002    -4.0324391593023190     
   6.3300000000000009E-002    -5.3818978230355796     
   6.3600000000000004E-002    -6.4860104223182882     
   6.3899999999999998E-002    -7.3996985828796715     
   6.4199999999999993E-002    -8.1841085627790129     
   6.4500000000000002E-002    -8.8849542624454561     
   6.4800000000000010E-002    -9.5439651314526301     
   6.5100000000000005E-002    -10.178638232084079     
   6.5400000000000000E-002    -10.796891922283335     
   6.5700000000000008E-002    -11.385179258850220     
   6.5999999999999989E-002    -11.913902960154731     
   6.6299999999999998E-002    -12.348779389235728     
   6.6600000000000006E-002    -12.639409720625366     
   6.6900000000000001E-002    -12.743843729658751     
   6.7199999999999996E-002    -12.616909679631821     
   6.7500000000000004E-002    -12.229092304912188     
   6.7800000000000013E-002    -11.559097012080274     
   6.8099999999999994E-002    -10.605272990906629     
   6.8400000000000002E-002    -9.3833234422879261     
   6.8700000000000011E-002    -7.9224970798113690     
   6.8999999999999992E-002    -6.2754681958235699     
   6.9300000000000000E-002    -4.4975651579124998     
   6.9600000000000009E-002    -2.6649336133638672     
   6.9900000000000004E-002   -0.84791246516842667     
   7.0199999999999999E-002    0.87589703444284706     
   7.0500000000000007E-002     2.4372741654335490     
   7.0800000000000016E-002     3.7761811374820549     
   7.1099999999999997E-002     4.8438853132965907     
   7.1400000000000005E-002     5.6136711765183458     
   7.1700000000000000E-002     6.0699099126196590     
   7.1999999999999995E-002     6.2249673394208633     
   7.2300000000000003E-002     6.1020849761305431     
   7.2600000000000012E-002     5.7476018567244438     
   7.2900000000000006E-002     5.2168420574418919     
   7.3200000000000001E-002     4.5754417347308420     
   7.3499999999999996E-002     3.8942653259684308     
   7.3800000000000004E-002     3.2376128898741019     
   7.4099999999999999E-002     2.6683966508476886     
   7.4400000000000008E-002     2.2309302769489396     
   7.4700000000000003E-002     1.9617526068720306     
   7.5000000000000011E-002     1.8703350567614523     
   7.5299999999999992E-002     1.9574917070009941     
   7.5600000000000001E-002     2.2002934857389143     
   7.5900000000000009E-002     2.5624853918468986     
   7.6200000000000004E-002     2.9996997554226863     
   7.6499999999999999E-002     3.4555768098438828     
   7.6800000000000007E-002     3.8766728862051472     
   7.7099999999999988E-002     4.2065061474920800     
   7.7399999999999997E-002     4.4023460250163353     
   7.7700000000000005E-002     4.4234489301904754     
   7.8000000000000014E-002     4.2489637282820594     
   7.8299999999999995E-002     3.8698889260202312     
   7.8600000000000003E-002     3.2900833279075044     
   7.8900000000000012E-002     2.5337111332183264     
   7.9199999999999993E-002     1.6317922671623621     
   7.9500000000000001E-002    0.63135765442270586     
   7.9800000000000010E-002   -0.41748647892232127     
   8.0100000000000018E-002    -1.4553719410312989     
   8.0399999999999999E-002    -2.4302245989008515     
   8.0700000000000008E-002    -3.2865094353105908     
   8.1000000000000003E-002    -3.9803170208033740     
   8.1299999999999997E-002    -4.4799569970323478     
   8.1600000000000006E-002    -4.7601202786094872     
   8.1900000000000014E-002    -4.8177532005662593     
   8.2199999999999995E-002    -4.6570619432247291     
   8.2500000000000004E-002    -4.3013252193397280     
   8.2799999999999999E-002    -3.7800461352016828     
   8.3100000000000007E-002    -3.1373626445440759     
   8.3400000000000002E-002    -2.4188126948300961     
   8.3700000000000011E-002    -1.6729595268895103     
   8.4000000000000005E-002   -0.94927654445334653     
   8.4300000000000000E-002   -0.28958954759367506     
   8.4599999999999995E-002    0.26809045004898019     
   8.4900000000000003E-002    0.69989965672901511     
   8.5199999999999998E-002    0.98489812667603360     
   8.5500000000000007E-002     1.1204502320392917     
   8.5800000000000001E-002     1.1099360924806367     
   8.6100000000000010E-002    0.96580819086028324     
   8.6399999999999991E-002    0.71186517118039538     
   8.6699999999999999E-002    0.37341120116587134     
   8.7000000000000008E-002    -1.5799812602557400E-002
   8.7300000000000003E-002   -0.42609034767380743     
   8.7599999999999997E-002   -0.82121364131652719     
   8.7900000000000006E-002    -1.1730847065109840     
   8.8200000000000014E-002    -1.4530915858375779     
   8.8499999999999995E-002    -1.6404524647783951     
   8.8800000000000004E-002    -1.7186963153270809     
   8.9100000000000013E-002    -1.6776338428112119     
   8.9399999999999993E-002    -1.5180735246201325     
   8.9700000000000002E-002    -1.2412993637618706     
   9.0000000000000011E-002   -0.86362693930533641     
   9.0299999999999991E-002   -0.40172671614866629     
   9.0600000000000000E-002    0.11666066393526821     
   9.0900000000000009E-002    0.66223488450173873     
   9.1200000000000017E-002     1.2012310922547969     
   9.1499999999999998E-002     1.6968196226837335     
   9.1800000000000007E-002     2.1176878915935888     
   9.2100000000000001E-002     2.4314333841284457     
   9.2399999999999996E-002     2.6159502877496519     
   9.2700000000000005E-002     2.6532208337802423     
   9.3000000000000013E-002     2.5421318458615740     
   9.3300000000000008E-002     2.2859673012852517     
   9.3600000000000003E-002     1.9032656746371646     
   9.3899999999999997E-002     1.4235136214333439     
   9.4200000000000006E-002    0.88030157686733856     
   9.4500000000000001E-002    0.31762843718495293     
   9.4800000000000009E-002   -0.22448971363690412     
   9.5100000000000004E-002   -0.70168356623253558     
   9.5399999999999999E-002    -1.0828965681534801     
   9.5699999999999993E-002    -1.3403538196723181     
   9.6000000000000002E-002    -1.4596150825808829     
   9.6300000000000011E-002    -1.4393419941725492     
   9.6600000000000005E-002    -1.2880451437804632     
   9.6900000000000000E-002    -1.0280210788863131     
   9.7200000000000009E-002   -0.68446819885922938     
   9.7499999999999989E-002   -0.29574528076465889     
   9.7799999999999998E-002    0.10706932266187758     
   9.8100000000000007E-002    0.48517064886876787     
   9.8400000000000015E-002    0.81124834204879459     
   9.8699999999999996E-002     1.0592945566673773     
   9.9000000000000005E-002     1.2135394537878532     
   9.9300000000000013E-002     1.2671171149280378     
   9.9599999999999994E-002     1.2181261518720023     
   9.9900000000000003E-002     1.0772982615142284     
  0.10020000000000001         0.85706071393171446     
  0.10049999999999999         0.57775883888239632     
  0.10080000000000000         0.26151898270656032     
  0.10110000000000001         -6.8973372036490871E-002
  0.10140000000000000        -0.38989533713782704     
  0.10170000000000000        -0.68168143511799939     
  0.10200000000000001        -0.92431691832045659     
  0.10230000000000002         -1.1097538189540705     
  0.10260000000000000         -1.2229538852328563     
  0.10290000000000001         -1.2681610275377799     
  0.10320000000000000         -1.2437066733337179     
  0.10350000000000001         -1.1573648178624165     
  0.10380000000000000         -1.0215835332522121     
  0.10410000000000001        -0.84954224060530781     
  0.10440000000000001        -0.65632878250708848     
  0.10470000000000000        -0.45785989350587525     
  0.10500000000000000        -0.27121909892763618     
  0.10530000000000000        -0.10507855391387126     
  0.10560000000000000          2.6094446495084508E-002
  0.10590000000000001         0.11804727868365705     
  0.10620000000000000         0.16856258659116694     
  0.10650000000000001         0.17561548490440665     
  0.10679999999999999         0.14673149208484554     
  0.10710000000000000          8.5985322983094817E-002
  0.10740000000000001          5.6983601840470497E-003
  0.10770000000000000         -8.7632371117340846E-002
  0.10800000000000000        -0.17789272564507819     
  0.10830000000000001        -0.25843649521079803     
  0.10859999999999999        -0.31777345421339737     
  0.10890000000000000        -0.34752305567765834     
  0.10920000000000001        -0.34488617619443546     
  0.10950000000000001        -0.30552982630460496     
  0.10979999999999999        -0.23259785299457125     
  0.11009999999999999        -0.12719450669206236     
  0.11040000000000001         -1.1190188015066382E-005
  0.11070000000000001         0.14424708070567910     
  0.11100000000000000         0.29334443048712833     
  0.11130000000000000         0.43742375478743956     
  0.11160000000000002         0.56826512627633219     
  0.11190000000000001         0.67542020850434303     
  0.11220000000000001         0.75512580280226393     
  0.11250000000000000         0.79996715102619864     
  0.11280000000000000         0.81198279166788323     
  0.11309999999999999         0.78846226307246237     
  0.11340000000000001         0.73456857912050222     
  0.11369999999999998         0.65379820774642472     
  0.11400000000000000         0.55143092823911355     
  0.11430000000000000         0.43597801552706805     
  0.11460000000000002         0.31117226988870633     
  0.11489999999999999         0.18751199138523525     
  0.11520000000000001          6.8371667034345426E-002
  0.11550000000000001         -3.8443370735564038E-002
  0.11580000000000000        -0.12983035755438124     
  0.11609999999999999        -0.20109509985739416     
  0.11640000000000002        -0.25112398919084988     
  0.11670000000000001        -0.27947124245399119     
  0.11700000000000001        -0.28475128999921390     
  0.11730000000000000        -0.27390446683178571     
  0.11760000000000000        -0.24497791607748995     
  0.11789999999999999        -0.20656206769228572     
  0.11820000000000001        -0.16092683032845650     
  0.11850000000000001        -0.11327524982514496     
  0.11880000000000000         -6.8070574054480637E-002
  0.11910000000000000         -2.8264460311293368E-002
  0.11940000000000002          2.2649783071312470E-003
  0.11970000000000001          2.4328820200812576E-002
  0.12000000000000001          3.4459311140122691E-002
  0.12030000000000000          3.6215115005931726E-002
  0.12060000000000000          2.7749573672518530E-002
  0.12089999999999999          1.3631635544851861E-002
  0.12119999999999999         -5.9422844578961827E-003
  0.12150000000000001         -2.8050561363490035E-002
  0.12180000000000001         -4.8602441812398520E-002
  0.12210000000000000         -6.8285791433710649E-002
  0.12239999999999999         -8.1266408896701975E-002
  0.12270000000000002         -8.8741628616256896E-002
  0.12300000000000001         -8.7462848453968331E-002
  0.12330000000000001         -7.7587752507111488E-002
  0.12360000000000000         -5.8744564203862489E-002
  0.12390000000000000         -3.3068400133728769E-002
  0.12419999999999999         -1.0844066269249841E-003
  0.12450000000000001          3.4607866813844895E-002
  0.12480000000000001          6.8909299804798332E-002
  0.12509999999999999         0.10246569347328731     
  0.12540000000000001         0.12885143994195836     
  0.12570000000000003         0.14670601109121595     
  0.12600000000000000         0.15524397416895611     
  0.12630000000000002         0.15284776341930298     
  0.12659999999999999         0.13996453291196237     
  0.12690000000000001         0.11707993375856171     
  0.12719999999999998          8.8459393517492782E-002
  0.12750000000000000          5.3144737663666251E-002
  0.12780000000000002          1.6485445751862313E-002
  0.12809999999999999         -2.0191140888322558E-002
  0.12840000000000001         -5.4219582661703299E-002
  0.12869999999999998         -8.4415596797387055E-002
  0.12900000000000000        -0.10796456449051746     
  0.12930000000000003        -0.12370489179736623     
  0.12959999999999999        -0.13248028993596417     
  0.12990000000000002        -0.13116955422880583     
  0.13019999999999998        -0.12220246056510826     
  0.13050000000000000        -0.10421687885324155     
  0.13080000000000003         -7.9305505792492501E-002
  0.13109999999999999         -4.8328637508051962E-002
  0.13140000000000002         -1.4285893530204170E-002
  0.13169999999999998          2.1235665941139705E-002
  0.13200000000000001          5.4131658616210970E-002
  0.13229999999999997          8.2015459634831200E-002
  0.13260000000000000         0.10256676079996459     
  0.13290000000000002         0.11231547289583423     
  0.13319999999999999         0.11051098717277789     
  0.13350000000000001          9.7491962338351307E-002
  0.13380000000000003          7.1724405769552302E-002
  0.13410000000000000          3.6621845659305222E-002
  0.13440000000000002         -6.9511797249154463E-003
  0.13469999999999999         -5.5427977831519128E-002
  0.13500000000000001        -0.10720644574074997     
  0.13529999999999998        -0.15785358399214808     
  0.13560000000000000        -0.20595491856860690     
  0.13590000000000002        -0.24830318316635583     
  0.13619999999999999        -0.28432916840037092     
  0.13650000000000001        -0.31044914504079135     
  0.13680000000000003        -0.32732411372649289     
  0.13710000000000000        -0.33287533266905656     
  0.13740000000000002        -0.32661818635666356     
  0.13769999999999999        -0.30787485072724641     
  0.13800000000000001        -0.27755429661730752     
  0.13829999999999998        -0.23494728833688922     
  0.13860000000000000        -0.18233128953606742     
  0.13890000000000002        -0.12112916730890085     
  0.13919999999999999         -5.3999370738790596E-002
  0.13950000000000001          1.5837387488990027E-002
  0.13979999999999998          8.5304600681149922E-002
  0.14010000000000000         0.15045991152033414     
  0.14040000000000002         0.20832952330235283     
  0.14069999999999999         0.25596951796530554     
  0.14100000000000001         0.29147952066883398     
  0.14130000000000004         0.31369840317408465     
  0.14160000000000000         0.32165809664657541     
  0.14189999999999997         0.31671767638261233     
  0.14219999999999999         0.29867833108420255     
  0.14250000000000002         0.27043583316455583     
  0.14279999999999998         0.23343902243635348     
  0.14310000000000000         0.19089176775689670     
  0.14339999999999997         0.14404292045080891     
  0.14369999999999999          9.6935016449897007E-002
  0.14400000000000002          5.2727101881937799E-002
  0.14429999999999998          1.1541640935247222E-002
  0.14460000000000001         -2.1333805804535613E-002
  0.14490000000000003         -4.6281690664270868E-002
  0.14520000000000000         -6.1486511097538443E-002
  0.14550000000000002         -6.6997183932524379E-002
  0.14579999999999999         -6.1536683340736864E-002
  0.14610000000000001         -4.8881973105154283E-002
  0.14640000000000003         -2.9654606659290091E-002
  0.14670000000000000         -5.5319857945473243E-003
  0.14699999999999996          1.8319770111803791E-002
  0.14729999999999999          4.1920075987849074E-002
  0.14760000000000001          6.0139371466692342E-002
  0.14789999999999998          7.3497479905036175E-002
  0.14820000000000000          7.8843137283909376E-002