  -1.4999999999999999E-002     0.0000000000000000     
  -1.4700000000000000E-002     0.0000000000000000     
  -1.4400000000000000E-002     0.0000000000000000     
  -1.4100000000000000E-002     0.0000000000000000     
  -1.3800000000000000E-002     0.0000000000000000     
  -1.3500000000000000E-002     0.0000000000000000     
  -1.3200000000000000E-002     0.0000000000000000     
  -1.2899999999999998E-002     0.0000000000000000     
  -1.2600000000000000E-002     0.0000000000000000     
  -1.2299999999999998E-002     0.0000000000000000     
  -1.2000000000000000E-002     0.0000000000000000     
  -1.1699999999999999E-002     0.0000000000000000     
  -1.1399999999999999E-002     0.0000000000000000     
  -1.1099999999999999E-002     0.0000000000000000     
  -1.0799999999999999E-002     0.0000000000000000     
  -1.0499999999999999E-002     0.0000000000000000     
  -1.0199999999999999E-002     0.0000000000000000     
  -9.8999999999999991E-003     0.0000000000000000     
  -9.5999999999999992E-003     0.0000000000000000     
  -9.2999999999999992E-003     0.0000000000000000     
  -8.9999999999999993E-003     0.0000000000000000     
  -8.6999999999999994E-003     0.0000000000000000     
  -8.3999999999999995E-003     0.0000000000000000     
  -8.0999999999999996E-003     0.0000000000000000     
  -7.7999999999999988E-003     0.0000000000000000     
  -7.4999999999999997E-003     0.0000000000000000     
  -7.1999999999999998E-003     0.0000000000000000     
  -6.8999999999999981E-003     0.0000000000000000     
  -6.5999999999999982E-003     0.0000000000000000     
  -6.3000000000000000E-003     0.0000000000000000     
  -6.0000000000000001E-003     0.0000000000000000     
  -5.6999999999999985E-003     0.0000000000000000     
  -5.3999999999999986E-003     0.0000000000000000     
  -5.1000000000000004E-003     0.0000000000000000     
  -4.7999999999999987E-003     0.0000000000000000     
  -4.5000000000000005E-003     0.0000000000000000     
  -4.1999999999999989E-003     0.0000000000000000     
  -3.8999999999999990E-003     0.0000000000000000     
  -3.5999999999999990E-003     0.0000000000000000     
  -3.2999999999999991E-003     0.0000000000000000     
  -2.9999999999999992E-003     0.0000000000000000     
  -2.6999999999999993E-003     0.0000000000000000     
  -2.3999999999999994E-003     0.0000000000000000     
  -2.0999999999999977E-003     0.0000000000000000     
  -1.7999999999999995E-003     0.0000000000000000     
  -1.4999999999999979E-003     0.0000000000000000     
  -1.1999999999999997E-003     0.0000000000000000     
  -8.9999999999999976E-004     0.0000000000000000     
  -5.9999999999999810E-004     0.0000000000000000     
  -2.9999999999999992E-004     0.0000000000000000     
   0.0000000000000000          0.0000000000000000     
   3.0000000000000165E-004     0.0000000000000000     
   5.9999999999999984E-004     0.0000000000000000     
   9.0000000000000149E-004     0.0000000000000000     
   1.2000000000000031E-003     0.0000000000000000     
   1.5000000000000013E-003     0.0000000000000000     
   1.8000000000000030E-003     0.0000000000000000     
   2.1000000000000012E-003     0.0000000000000000     
   2.3999999999999994E-003     0.0000000000000000     
   2.7000000000000010E-003     0.0000000000000000     
   2.9999999999999992E-003     0.0000000000000000     
   3.3000000000000008E-003     0.0000000000000000     
   3.6000000000000025E-003     0.0000000000000000     
   3.9000000000000007E-003     0.0000000000000000     
   4.2000000000000023E-003     0.0000000000000000     
   4.5000000000000005E-003     0.0000000000000000     
   4.7999999999999987E-003     0.0000000000000000     
   5.1000000000000004E-003     0.0000000000000000     
   5.4000000000000020E-003     0.0000000000000000     
   5.7000000000000037E-003     0.0000000000000000     
   5.9999999999999984E-003     0.0000000000000000     
   6.3000000000000000E-003     0.0000000000000000     
   6.6000000000000017E-003     0.0000000000000000     
   6.9000000000000034E-003     0.0000000000000000     
   7.2000000000000015E-003     0.0000000000000000     
   7.5000000000000032E-003     0.0000000000000000     
   7.8000000000000014E-003     0.0000000000000000     
   8.0999999999999996E-003     0.0000000000000000     
   8.4000000000000012E-003     0.0000000000000000     
   8.7000000000000029E-003     0.0000000000000000     
   9.0000000000000011E-003     0.0000000000000000     
   9.2999999999999992E-003     0.0000000000000000     
   9.6000000000000009E-003     0.0000000000000000     
   9.8999999999999991E-003     0.0000000000000000     
   1.0200000000000001E-002     0.0000000000000000     
   1.0500000000000002E-002     0.0000000000000000     
   1.0800000000000004E-002     0.0000000000000000     
   1.1099999999999999E-002     0.0000000000000000     
   1.1400000000000000E-002     0.0000000000000000     
   1.1700000000000002E-002     0.0000000000000000     
   1.2000000000000004E-002     0.0000000000000000     
   1.2300000000000002E-002     0.0000000000000000     
   1.2600000000000000E-002     0.0000000000000000     
   1.2900000000000002E-002     0.0000000000000000     
   1.3200000000000000E-002     0.0000000000000000     
   1.3500000000000002E-002     0.0000000000000000     
   1.3800000000000003E-002     0.0000000000000000     
   1.4100000000000001E-002     0.0000000000000000     
   1.4400000000000000E-002     0.0000000000000000     
   1.4700000000000001E-002     0.0000000000000000     
   1.4999999999999999E-002     0.0000000000000000     
   1.5300000000000001E-002     0.0000000000000000     
   1.5600000000000003E-002     0.0000000000000000     
   1.5899999999999997E-002     0.0000000000000000     
   1.6199999999999999E-002     0.0000000000000000     
   1.6500000000000001E-002     0.0000000000000000     
   1.6800000000000002E-002     0.0000000000000000     
   1.7100000000000004E-002     0.0000000000000000     
   1.7400000000000006E-002     0.0000000000000000     
   1.7700000000000000E-002     0.0000000000000000     
   1.8000000000000002E-002     0.0000000000000000     
   1.8300000000000004E-002     0.0000000000000000     
   1.8600000000000005E-002     0.0000000000000000     
   1.8900000000000000E-002     0.0000000000000000     
   1.9200000000000002E-002     0.0000000000000000     
   1.9500000000000003E-002     0.0000000000000000     
   1.9799999999999998E-002     0.0000000000000000     
   2.0100000000000000E-002     0.0000000000000000     
   2.0400000000000001E-002     0.0000000000000000     
   2.0700000000000003E-002     0.0000000000000000     
   2.0999999999999998E-002     0.0000000000000000     
   2.1299999999999999E-002     0.0000000000000000     
   2.1600000000000001E-002     0.0000000000000000     
   2.1900000000000003E-002     0.0000000000000000     
   2.2200000000000004E-002     0.0000000000000000     
   2.2500000000000006E-002     0.0000000000000000     
   2.2800000000000001E-002     0.0000000000000000     
   2.3100000000000002E-002     0.0000000000000000     
   2.3400000000000004E-002     0.0000000000000000     
   2.3699999999999999E-002     0.0000000000000000     
   2.4000000000000000E-002     0.0000000000000000     
   2.4300000000000002E-002     0.0000000000000000     
   2.4599999999999997E-002     0.0000000000000000     
   2.4900000000000005E-002     0.0000000000000000     
   2.5200000000000000E-002     0.0000000000000000     
   2.5499999999999995E-002     0.0000000000000000     
   2.5800000000000003E-002     0.0000000000000000     
   2.6099999999999998E-002     0.0000000000000000     
   2.6400000000000007E-002     0.0000000000000000     
   2.6700000000000002E-002     0.0000000000000000     
   2.6999999999999996E-002     0.0000000000000000     
   2.7300000000000005E-002     0.0000000000000000     
   2.7600000000000000E-002     0.0000000000000000     
   2.7900000000000008E-002     0.0000000000000000     
   2.8200000000000003E-002     1.4875408670642710E-059
   2.8499999999999998E-002    -4.8296435626963360E-058
   2.8800000000000006E-002     2.8438095077004963E-057
   2.9100000000000001E-002     4.1696967619858232E-044
   2.9400000000000003E-002    -2.9677603481135413E-043
   2.9700000000000004E-002    -1.1811014272956865E-038
   3.0000000000000006E-002     8.8757600818246081E-036
   3.0300000000000001E-002    -4.9480156450676496E-035
   3.0600000000000002E-002     1.9890838460524947E-034
   3.0900000000000004E-002    -4.8305095311715209E-034
   3.1199999999999999E-002     1.3363355144417376E-033
   3.1500000000000007E-002    -3.8878245820774756E-033
   3.1800000000000002E-002     1.4741531113229800E-032
   3.2099999999999997E-002    -5.5417935932491699E-032
   3.2400000000000005E-002     2.0770969629075886E-031
   3.2700000000000000E-002    -8.0092072581691822E-031
   3.3000000000000002E-002     2.9680892397667714E-030
   3.3300000000000003E-002    -9.3144398299762794E-030
   3.3599999999999998E-002     1.9494724909068340E-029
   3.3900000000000000E-002     5.6985375523910492E-030
   3.4200000000000001E-002    -2.8977103373226101E-028
   3.4500000000000003E-002     1.5900337210872815E-027
   3.4799999999999998E-002    -5.3552916385189136E-027
   3.5099999999999999E-002     1.0753715857728338E-026
   3.5400000000000001E-002     1.4965399325525831E-027
   3.5699999999999996E-002    -1.1778231398094416E-025
   3.6000000000000004E-002     5.7206192818247746E-025
   3.6299999999999999E-002    -1.6995269951762156E-024
   3.6600000000000008E-002     3.0994151882150920E-024
   3.6900000000000002E-002    -4.0472000585194434E-025
   3.7199999999999997E-002    -2.2293673807309519E-023
   3.7500000000000006E-002     1.0150414865614745E-022
   3.7800000000000000E-002    -2.7984135631970929E-022
   3.8100000000000009E-002     4.8254292267735070E-022
   3.8400000000000004E-002    -9.9331275866436521E-023
   3.8699999999999998E-002    -2.8902122508011446E-021
   3.9000000000000007E-002     1.2520192300776950E-020
   3.9300000000000002E-002    -3.0923108813744641E-020
   3.9600000000000003E-002     3.8479315803118713E-020
   3.9900000000000005E-002     5.4108781183125285E-020
   4.0200000000000000E-002    -4.4368282587364762E-019
   4.0500000000000001E-002     1.2418654460328834E-018
   4.0800000000000003E-002    -1.5634883295382710E-018
   4.1100000000000005E-002    -2.2186840550975825E-018
   4.1399999999999999E-002     1.6173933225921555E-017
   4.1700000000000008E-002    -3.6854178304826331E-017
   4.2000000000000003E-002     1.7726480061101624E-017
   4.2299999999999997E-002     1.5291539280089587E-016
   4.2600000000000006E-002    -5.0822871893633024E-016
   4.2900000000000001E-002     4.9359332027830677E-016
   4.3200000000000002E-002     1.4527475740204324E-015
   4.3500000000000004E-002    -5.9136242063592808E-015
   4.3799999999999999E-002     5.6074345094314881E-015
   4.4100000000000000E-002     1.7914517137281299E-014
   4.4400000000000002E-002    -6.2260801487135486E-014
   4.4700000000000004E-002     2.6176800794481530E-014
   4.4999999999999998E-002     2.5250369530747345E-013
   4.5300000000000000E-002    -5.1757188687938560E-013
   4.5600000000000002E-002    -4.2448872059901449E-013
   4.5899999999999996E-002     2.9295760744028050E-012
   4.6200000000000005E-002    -1.6088395737023281E-012
   4.6500000000000000E-002    -1.1344712171834953E-011
   4.6799999999999994E-002     1.8207134859973113E-011
   4.7100000000000003E-002     3.3828215005721193E-011
   4.7399999999999998E-002    -1.0452028050599204E-010
   4.7700000000000006E-002    -7.6365604029653067E-011
   4.8000000000000001E-002     4.8393544652337734E-010
   4.8300000000000010E-002     1.0443225524255257E-010
   4.8600000000000004E-002    -2.0251280653682533E-009
   4.8899999999999999E-002     4.5982265046981482E-011
   4.9200000000000008E-002     8.0667472638519533E-009
   4.9500000000000002E-002    -2.6691667513110789E-010
   4.9800000000000011E-002    -3.1390836436876122E-008
   5.0100000000000006E-002    -8.2243065190810068E-009
   5.0400000000000000E-002     1.0765590568433405E-007
   5.0700000000000009E-002     7.4317132622128209E-008
   5.1000000000000004E-002    -3.4233910079881443E-007
   5.1299999999999998E-002    -4.6840274057648345E-007
   5.1600000000000007E-002     1.3339216480311577E-006
   5.1900000000000002E-002     5.9975862785972848E-006
   5.2200000000000010E-002     1.2516559256484700E-005
   5.2500000000000005E-002     1.9538402129107965E-005
   5.2800000000000000E-002     2.7945149047430665E-005
   5.3099999999999994E-002     4.0934232601115978E-005
   5.3400000000000003E-002     6.2187872990421820E-005
   5.3699999999999998E-002     9.5227931743858813E-005
   5.4000000000000006E-002     1.4459727664529209E-004
   5.4300000000000001E-002     2.1772075358901004E-004
   5.4599999999999996E-002     3.2601628324363817E-004
   5.4900000000000004E-002     4.8319798354530227E-004
   5.5199999999999999E-002     7.0245850407333319E-004
   5.5499999999999994E-002     9.9936688065028708E-004
   5.5800000000000002E-002     1.3990365183772623E-003
   5.6099999999999997E-002     1.9351413066891327E-003
   5.6400000000000006E-002     2.6397931312268615E-003
   5.6700000000000000E-002     3.5411092017394305E-003
   5.6999999999999995E-002     4.6705450548006787E-003
   5.7300000000000004E-002     6.0608089728227538E-003
   5.7599999999999998E-002     7.7318373119139435E-003
   5.7900000000000007E-002     9.6843374097634188E-003
   5.8200000000000002E-002     1.1902132191906447E-002
   5.8499999999999996E-002     1.4342785012878303E-002
   5.8800000000000005E-002     1.6920050743364778E-002
   5.9100000000000000E-002     1.9501108811007219E-002
   5.9400000000000008E-002     2.1914115296658550E-002
   5.9700000000000003E-002     2.3946790118227649E-002
   6.0000000000000012E-002     2.5341842373304682E-002
   6.0300000000000006E-002     2.5809911998112074E-002
   6.0600000000000001E-002     2.5056358331216916E-002
   6.0900000000000010E-002     2.2810807254395073E-002
   6.1200000000000004E-002     1.8864467426115111E-002
   6.1500000000000013E-002     1.3103360801806857E-002
   6.1800000000000008E-002     5.5373789663537417E-003
   6.2100000000000002E-002    -3.6594334378250697E-003
   6.2399999999999997E-002    -1.4108979919670847E-002
   6.2700000000000006E-002    -2.5224291615945072E-002
   6.3000000000000000E-002    -3.6247358549320395E-002
   6.3300000000000009E-002    -4.6283607189254887E-002
   6.3600000000000004E-002    -5.4349817929404458E-002
   6.3899999999999998E-002    -5.9451185513949609E-002
   6.4199999999999993E-002    -6.0699190953096026E-002
   6.4500000000000002E-002    -5.7461455054952620E-002
   6.4800000000000010E-002    -4.9414730670429369E-002
   6.5100000000000005E-002    -3.6691109167956537E-002
   6.5400000000000000E-002    -1.9930168908200610E-002
   6.5700000000000008E-002    -3.0972879626224895E-004
   6.5999999999999989E-002     2.0469545433446992E-002
   6.6299999999999998E-002     4.0314904743122132E-002
   6.6600000000000006E-002     5.6781183436342711E-002
   6.6900000000000001E-002     6.7373420460832348E-002
   6.7199999999999996E-002     6.9636750063064481E-002
   6.7500000000000004E-002     6.1511302769395169E-002
   6.7800000000000013E-002     4.1459256396044114E-002
   6.8099999999999994E-002     8.7513667696079763E-003
   6.8400000000000002E-002    -3.6443535914885347E-002
   6.8700000000000011E-002    -9.2906618571883121E-002
   6.8999999999999992E-002   -0.15834731188649712     
   6.9300000000000000E-002   -0.22948465203597404     
   6.9600000000000009E-002   -0.30212566824619241     
   6.9900000000000004E-002   -0.37144926855473220     
   7.0199999999999999E-002   -0.43220222732757219     
   7.0500000000000007E-002   -0.47902164639376038     
   7.0800000000000016E-002   -0.50684148854051736     
   7.1099999999999997E-002   -0.51118195804673827     
   7.1400000000000005E-002   -0.48860860548239554     
   7.1700000000000000E-002   -0.43693608616614399     
   7.1999999999999995E-002   -0.35563686923268395     
   7.2300000000000003E-002   -0.24596032769703860     
   7.2600000000000012E-002   -0.11103570548336361     
   7.2900000000000006E-002     4.4110966037658635E-002
   7.3200000000000001E-002    0.21268189251582520     
   7.3499999999999996E-002    0.38647708779039214     
   7.3800000000000004E-002    0.55620563678142476     
   7.4099999999999999E-002    0.71206677746686653     
   7.4400000000000008E-002    0.84425629075639774     
   7.4700000000000003E-002    0.94387329579246138     
   7.5000000000000011E-002     1.0032941200403704     
   7.5299999999999992E-002     1.0169825648768567     
   7.5600000000000001E-002    0.98188609763461510     
   7.5900000000000009E-002    0.89794076257302513     
   7.6200000000000004E-002    0.76804716017856356     
   7.6499999999999999E-002    0.59816635105696869     
   7.6800000000000007E-002    0.39702531956828357     
   7.7099999999999988E-002    0.17549233202882478     
   7.7399999999999997E-002    -5.3832193258654251E-002
   7.7700000000000005E-002   -0.27776635000377548     
   7.8000000000000014E-002   -0.48320246205669160     
   7.8299999999999995E-002   -0.65804195990622805     
   7.8600000000000003E-002   -0.79222053962602579     
   7.8900000000000012E-002   -0.87822765830204286     
   7.9199999999999993E-002   -0.91181958442921773     
   7.9500000000000001E-002   -0.89218235698020076     
   7.9800000000000010E-002   -0.82220686088079897     
   8.0100000000000018E-002   -0.70798683663654427     
   8.0399999999999999E-002   -0.55861401921004472     
   8.0700000000000008E-002   -0.38544202063808880     
   8.1000000000000003E-002   -0.20112210567202718     
   8.1299999999999997E-002    -1.8853834761649053E-002
   8.1600000000000006E-002    0.14878931885058835     
   8.1900000000000014E-002    0.29058140882797062     
   8.2199999999999995E-002    0.39765087231853263     
   8.2500000000000004E-002    0.46401998924591226     
   8.2799999999999999E-002    0.48696709227999668     
   8.3100000000000007E-002    0.46732554375666446     
   8.3400000000000002E-002    0.40917280801430733     
   8.3700000000000011E-002    0.31966075702522462     
   8.4000000000000005E-002    0.20810029199871727     
   8.4300000000000000E-002     8.5532562515917954E-002
   8.4599999999999995E-002    -3.6455910511297790E-002
   8.4900000000000003E-002   -0.14663380514329652     
   8.5199999999999998E-002   -0.23484464253526965     
   8.5500000000000007E-002   -0.29309568187541662     
   8.5800000000000001E-002   -0.31593877541186316     
   8.6100000000000010E-002   -0.30096653617882108     
   8.6399999999999991E-002   -0.24888319301177828     
   8.6699999999999999E-002   -0.16330309703232024     
   8.7000000000000008E-002    -5.0486173924899479E-002
   8.7300000000000003E-002     8.1552509896698266E-002
   8.7599999999999997E-002    0.22354423838321652     
   8.7900000000000006E-002    0.36595666413135330     
   8.8200000000000014E-002    0.49963286700538340     
   8.8499999999999995E-002    0.61681980253939483     
   8.8800000000000004E-002    0.71135598946757372     
   8.9100000000000013E-002    0.77920962049058684     
   8.9399999999999993E-002    0.81852007692493878     
   8.9700000000000002E-002    0.82935244695503108     
   9.0000000000000011E-002    0.81364394110228699     
   9.0299999999999991E-002    0.77440733570931608     
   9.0600000000000000E-002    0.71543581077460572     
   9.0900000000000009E-002    0.64076895192790095     
   9.1200000000000017E-002    0.55417347475945600     
   9.1499999999999998E-002    0.45889613377140381     
   9.1800000000000007E-002    0.35745403320985836     
   9.2100000000000001E-002    0.25177201579450864     
   9.2399999999999996E-002    0.14304412658715013     
   9.2700000000000005E-002     3.2069433006924900E-002
   9.3000000000000013E-002    -8.0353668068686671E-002
   9.3300000000000008E-002   -0.19357082934040062     
   9.3600000000000003E-002   -0.30650708843037866     
   9.3899999999999997E-002   -0.41788608637402219     
   9.4200000000000006E-002   -0.52599776590491032     
   9.4500000000000001E-002   -0.62909979390260851     
   9.4800000000000009E-002   -0.72523719767696881     
   9.5100000000000004E-002   -0.81262410294027509     
   9.5399999999999999E-002   -0.88984299212614915     
   9.5699999999999993E-002   -0.95569652719920939     
   9.6000000000000002E-002    -1.0097476274051189     
   9.6300000000000011E-002    -1.0517296812178150     
   9.6600000000000005E-002    -1.0818041576678166     
   9.6900000000000000E-002    -1.1003586061999413     
   9.7200000000000009E-002    -1.1074998383164347     
   9.7499999999999989E-002    -1.1034996512118842     
   9.7799999999999998E-002    -1.0878329279068031     
   9.8100000000000007E-002    -1.0598620178906011     
   9.8400000000000015E-002    -1.0184061530993105     
   9.8699999999999996E-002   -0.96197110465725066     
   9.9000000000000005E-002   -0.88893914285159503     
   9.9300000000000013E-002   -0.79807043145066547     
   9.9599999999999994E-002   -0.68856757952355307     
   9.9900000000000003E-002   -0.56011229822965725     
  0.10020000000000001        -0.41404196683773492     
  0.10049999999999999        -0.25238186176013117     
  0.10080000000000000         -7.8784682327537381E-002
  0.10110000000000001         0.10179188805479301     
  0.10140000000000000         0.28351762850179879     
  0.10170000000000000         0.45956790402018105     
  0.10200000000000001         0.62272953931757302     
  0.10230000000000002         0.76578527617521008     
  0.10260000000000000         0.88216960339468131     
  0.10290000000000001         0.96611714250709035     
  0.10320000000000000          1.0135526643761836     
  0.10350000000000001          1.0221939071804875     
  0.10380000000000000         0.99161326720044496     
  0.10410000000000001         0.92404830286279149     
  0.10440000000000001         0.82349276377090774     
  0.10470000000000000         0.69638860076709930     
  0.10500000000000000         0.55066424487158339     
  0.10530000000000000         0.39580264608611609     
  0.10560000000000000         0.24190273857652031     
  0.10590000000000001          9.9266149560383307E-002
  0.10620000000000000         -2.2227908127381849E-002
  0.10650000000000001        -0.11417759732333217     
  0.10679999999999999        -0.16962667972764767     
  0.10710000000000000        -0.18413507499841300     
  0.10740000000000001        -0.15598594588561623     
  0.10770000000000000         -8.6252474057861531E-002
  0.10800000000000000          2.1082815109707755E-002
  0.10830000000000001         0.15951454025983652     
  0.10859999999999999         0.32015139822371008     
  0.10890000000000000         0.49286882107751839     
  0.10920000000000001         0.66623903370838145     
  0.10950000000000001         0.82909483768898273     
  0.10979999999999999         0.97065509383082249     
  0.11009999999999999          1.0815461968771618     
  0.11040000000000001          1.1541383350800922     
  0.11070000000000001          1.1827495168630913     
  0.11100000000000000          1.1641860062067468     
  0.11130000000000000          1.0972082649736814     
  0.11160000000000002         0.98289871358633296     
  0.11190000000000001         0.82432526280649165     
  0.11220000000000001         0.62591945843888797     
  0.11250000000000000         0.39401760214892895     
  0.11280000000000000         0.13625399102352945     
  0.11309999999999999        -0.13853193152442619     
  0.11340000000000001        -0.42034159060447696     
  0.11369999999999998        -0.69772631969312304     
  0.11400000000000000        -0.95890880722568594     
  0.11430000000000000         -1.1912075391482679     
  0.11460000000000002         -1.3819674361151386     
  0.11489999999999999         -1.5195683342330575     
  0.11520000000000001         -1.5938913914100876     
  0.11550000000000001         -1.5973131736256871     
  0.11580000000000000         -1.5259279077771877     
  0.11609999999999999         -1.3802619029480043     
  0.11640000000000002         -1.1655384334366883     
  0.11670000000000001        -0.89210772665101856     
  0.11700000000000001        -0.57543361171941987     
  0.11730000000000000        -0.23468956181581732     
  0.11760000000000000         0.10799751737706509     
  0.11789999999999999         0.42920056407557217     
  0.11820000000000001         0.70598876984919556     
  0.11850000000000001         0.91823030084300283     
  0.11880000000000000          1.0496829807148407     
  0.11910000000000000          1.0899970589424759     
  0.11940000000000002          1.0356264167928391     
  0.11970000000000001         0.89020002347363436     
  0.12000000000000001         0.66448057052229148     
  0.12030000000000000         0.37553471552837470     
  0.12060000000000000          4.5441151460157439E-002
  0.12089999999999999        -0.30056524353602987     
  0.12119999999999999        -0.63612175221997214     
  0.12150000000000001        -0.93579399969906785     
  0.12180000000000001         -1.1772638611160664     
  0.12210000000000000         -1.3428434196097694     
  0.12239999999999999         -1.4211015771523372     
  0.12270000000000002         -1.4071278645987733     
  0.12300000000000001         -1.3033791853967969     
  0.12330000000000001         -1.1184828350152929     
  0.12360000000000000        -0.86680210235936339     
  0.12390000000000000        -0.56690687413971352     
  0.12419999999999999        -0.23995621818472349     
  0.12450000000000001          9.2221966507577149E-002
  0.12480000000000001         0.40866947229637113     
  0.12509999999999999         0.69086027396090888     
  0.12540000000000001         0.92400092324635941     
  0.12570000000000003          1.0977859557925806     
  0.12600000000000000          1.2067855671984464     
  0.12630000000000002          1.2505428877922766     
  0.12659999999999999          1.2329955195690885     
  0.12690000000000001          1.1617821553688317     
  0.12719999999999998          1.0473407605726803     
  0.12750000000000000         0.90185768363977903     
  0.12780000000000002         0.73786950991306610     
  0.12809999999999999         0.56771213593131031     
  0.12840000000000001         0.40240464262962894     
  0.12869999999999998         0.25072271130303464     
  0.12900000000000000         0.11934054976777089     
  0.12930000000000003          1.2309074142243467E-002
  0.12959999999999999         -6.8767905375130930E-002
  0.12990000000000002        -0.12450497036219954     
  0.13019999999999998        -0.15701572937761890     
  0.13050000000000000        -0.16978361190602581     
  0.13080000000000003        -0.16682960682454040     
  0.13109999999999999        -0.15223043335611633     
  0.13140000000000002        -0.12990280207599661     
  0.13169999999999998        -0.10277767448336730     
  0.13200000000000001         -7.3121889734234655E-002
  0.13229999999999997         -4.2335538584152239E-002
  0.13260000000000000         -1.0959116915246933E-002
  0.13290000000000002          2.0959824656067171E-002
  0.13319999999999999          5.3831136013923565E-002
  0.13350000000000001          8.7559349930840302E-002
  0.13380000000000003         0.12233316345388413     
  0.13410000000000000         0.15718043215816230     
  0.13440000000000002         0.19022262614306157     
  0.13469999999999999         0.21893124921915869     
  0.13500000000000001         0.23945922380471749     
  0.13529999999999998         0.24695353964679040     
  0.13560000000000000         0.23619758327897669     
  0.13590000000000002         0.20164320534400629     
  0.13619999999999999         0.13749683434718529     
  0.13650000000000001          3.9249412475811429E-002
  0.13680000000000003         -9.6177636382010948E-002
  0.13710000000000000        -0.27028981001398278     
  0.13740000000000002        -0.48132503478855787     
  0.13769999999999999        -0.72465551657345295     
  0.13800000000000001        -0.99192376011498995     
  0.13829999999999998         -1.2713686363573993     
  0.13860000000000000         -1.5475435418151373     
  0.13890000000000002         -1.8022085609170357     
  0.13919999999999999         -2.0155699446675226     
  0.13950000000000001         -2.1666701037456848     
  0.13979999999999998         -2.2357011032996521     
  0.14010000000000000         -2.2054026302296572     
  0.14040000000000002         -2.0629055649100132     
  0.14069999999999999         -1.8010962122353156     
  0.14100000000000001         -1.4207258293193163     
  0.14130000000000004        -0.93048787299514291     
  0.14160000000000000        -0.34757259127284035     
  0.14189999999999997         0.30217037515407885     
  0.14219999999999999         0.98625375278607563     
  0.14250000000000002          1.6669010115291361     
  0.14279999999999998          2.3035187951863807     
  0.14310000000000000          2.8560593387690267     
  0.14339999999999997          3.2877226151851944     
  0.14369999999999999          3.5684991162324873     
  0.14400000000000002          3.6770696909280236     
  0.14429999999999998          3.6040539988154205     
  0.14460000000000001          3.3518350336771574     
  0.14490000000000003          2.9357931782989346     
  0.14520000000000000          2.3828017830796107     
  0.14550000000000002          1.7294170921859953     
  0.14579999999999999          1.0193953525072699     
  0.14610000000000001         0.29995435064704795     
  0.14640000000000003        -0.38124955582058195     
  0.14670000000000000        -0.98021061505697238     
  0.14699999999999996         -1.4593341508434601     
  0.14729999999999999         -1.7900629220787105     
  0.14760000000000001         -1.9546164459292763     
  0.14789999999999998         -1.9465651693197514     
  0.14820000000000000         -1.7715023922064259     