  -1.4999999999999999E-002     0.0000000000000000     
  -1.4700000000000000E-002     0.0000000000000000     
  -1.4400000000000000E-002     0.0000000000000000     
  -1.4100000000000000E-002     0.0000000000000000     
  -1.3800000000000000E-002     0.0000000000000000     
  -1.3500000000000000E-002     0.0000000000000000     
  -1.3200000000000000E-002     0.0000000000000000     
  -1.2899999999999998E-002     0.0000000000000000     
  -1.2600000000000000E-002     0.0000000000000000     
  -1.2299999999999998E-002     0.0000000000000000     
  -1.2000000000000000E-002     0.0000000000000000     
  -1.1699999999999999E-002     0.0000000000000000     
  -1.1399999999999999E-002     0.0000000000000000     
  -1.1099999999999999E-002     0.0000000000000000     
  -1.0799999999999999E-002     0.0000000000000000     
  -1.0499999999999999E-002     0.0000000000000000     
  -1.0199999999999999E-002     0.0000000000000000     
  -9.8999999999999991E-003     0.0000000000000000     
  -9.5999999999999992E-003     0.0000000000000000     
  -9.2999999999999992E-003     0.0000000000000000     
  -8.9999999999999993E-003     0.0000000000000000     
  -8.6999999999999994E-003     0.0000000000000000     
  -8.3999999999999995E-003     0.0000000000000000     
  -8.0999999999999996E-003     0.0000000000000000     
  -7.7999999999999988E-003     0.0000000000000000     
  -7.4999999999999997E-003     0.0000000000000000     
  -7.1999999999999998E-003     0.0000000000000000     
  -6.8999999999999981E-003     0.0000000000000000     
  -6.5999999999999982E-003     0.0000000000000000     
  -6.3000000000000000E-003     0.0000000000000000     
  -6.0000000000000001E-003     0.0000000000000000     
  -5.6999999999999985E-003     0.0000000000000000     
  -5.3999999999999986E-003     0.0000000000000000     
  -5.1000000000000004E-003     0.0000000000000000     
  -4.7999999999999987E-003     0.0000000000000000     
  -4.5000000000000005E-003     0.0000000000000000     
  -4.1999999999999989E-003     0.0000000000000000     
  -3.8999999999999990E-003     0.0000000000000000     
  -3.5999999999999990E-003     0.0000000000000000     
  -3.2999999999999991E-003     0.0000000000000000     
  -2.9999999999999992E-003     0.0000000000000000     
  -2.6999999999999993E-003     0.0000000000000000     
  -2.3999999999999994E-003     0.0000000000000000     
  -2.0999999999999977E-003     0.0000000000000000     
  -1.7999999999999995E-003     0.0000000000000000     
  -1.4999999999999979E-003     0.0000000000000000     
  -1.1999999999999997E-003     0.0000000000000000     
  -8.9999999999999976E-004    -1.6724938337784729E-045
  -5.9999999999999810E-004     1.2332285007159653E-044
  -2.9999999999999992E-004     1.7510790195029804E-037
   0.0000000000000000         -5.4835554000188514E-037
   3.0000000000000165E-004    -6.4775553543928457E-036
   5.9999999999999984E-004     4.4017315626204431E-035
   9.0000000000000149E-004    -2.8303658691647697E-034
   1.2000000000000031E-003     6.1806503060093158E-034
   1.5000000000000013E-003    -2.6054130075473195E-033
   1.8000000000000030E-003     8.4259988160064144E-033
   2.1000000000000012E-003    -2.3677792397049894E-032
   2.3999999999999994E-003     4.8097653915803931E-032
   2.7000000000000010E-003    -6.3007612013757998E-032
   2.9999999999999992E-003     1.7601967767829552E-032
   3.3000000000000008E-003     1.7852983026530632E-031
   3.6000000000000025E-003    -6.0985003684604861E-031
   3.9000000000000007E-003     1.2132912952337356E-030
   4.2000000000000023E-003    -1.5624663764983210E-030
   4.5000000000000005E-003     7.1679396335807437E-031
   4.7999999999999987E-003     2.5562578387728435E-030
   5.1000000000000004E-003    -8.8561327223152851E-030
   5.4000000000000020E-003     1.6512187163046128E-029
   5.7000000000000037E-003    -2.0004362349805600E-029
   5.9999999999999984E-003     1.0155003486550579E-029
   6.3000000000000000E-003     2.2054433845103042E-029
   6.6000000000000017E-003    -7.7527429761878014E-029
   6.9000000000000034E-003     1.3926457031845927E-028
   7.2000000000000015E-003    -1.6729526082245121E-028
   7.5000000000000032E-003     1.0693075734542369E-028
   7.8000000000000014E-003     8.7732092583678572E-029
   8.0999999999999996E-003    -4.2134243479252554E-028
   8.4000000000000012E-003     8.1889833184882101E-028
   8.7000000000000029E-003    -1.0905455529799995E-027
   9.0000000000000011E-003     9.3876071542994434E-028
   9.2999999999999992E-003    -6.0622598204864201E-029
   9.6000000000000009E-003    -1.6232134777102322E-027
   9.8999999999999991E-003     3.7079820732509408E-027
   1.0200000000000001E-002    -5.3449706197067675E-027
   1.0500000000000002E-002     5.6068009592628863E-027
   1.0800000000000004E-002    -3.4197920902634269E-027
   1.1099999999999999E-002    -2.6902836262208095E-027
   1.1400000000000000E-002     1.3000331872265041E-026
   1.1700000000000002E-002    -2.3809058737551564E-026
   1.2000000000000004E-002     2.7714400591819624E-026
   1.2300000000000002E-002    -1.8133013371935448E-026
   1.2600000000000000E-002    -4.3946618844689085E-027
   1.2900000000000002E-002     2.9770708833836175E-026
   1.3200000000000000E-002    -4.7098227652015072E-026
   1.3500000000000002E-002     5.8728990159975561E-026
   1.3800000000000003E-002    -9.7842051877500488E-026
   1.4100000000000001E-002     2.1645873052261292E-025
   1.4400000000000000E-002    -2.7238841696728765E-025
   1.4700000000000001E-002    -2.9741423397514557E-025
   1.4999999999999999E-002     1.6177520355878572E-024
   1.5300000000000001E-002    -1.6279653046090306E-024
   1.5600000000000003E-002    -2.4387666079789285E-024
   1.5899999999999997E-002     7.1213884408542257E-024
   1.6199999999999999E-002    -5.8508296851706935E-025
   1.6500000000000001E-002    -1.9512010977305364E-023
   1.6800000000000002E-002     2.2482834748189069E-023
   1.7100000000000004E-002     2.8488197799370223E-023
   1.7400000000000006E-002    -8.8960968776328533E-023
   1.7700000000000000E-002     2.5858341273593904E-023
   1.8000000000000002E-002     1.7950512048463372E-022
   1.8300000000000004E-002    -2.4722479575133668E-022
   1.8600000000000005E-002    -1.2773006084096813E-022
   1.8900000000000000E-002     6.7781904053738723E-022
   1.9200000000000002E-002    -5.5233295560775004E-022
   1.9500000000000003E-002    -6.7870499491986760E-022
   1.9799999999999998E-002     2.2547504694576844E-021
   2.0100000000000000E-002    -2.7718442626987231E-021
   2.0400000000000001E-002    -4.8811245060680838E-023
   2.0700000000000003E-002     9.9935160152403265E-021
   2.0999999999999998E-002    -2.0706534842663761E-020
   2.1299999999999999E-002    -1.7962912731294265E-021
   2.1600000000000001E-002     4.9091199049268241E-020
   2.1900000000000003E-002     9.9377675580594738E-020
   2.2200000000000004E-002    -4.9314491023966517E-019
   2.2500000000000006E-002    -6.1284260130956284E-019
   2.2800000000000001E-002     5.8492656194606397E-018
   2.3100000000000002E-002    -6.6784684803115228E-018
   2.3400000000000004E-002    -2.5847407785482758E-017
   2.3699999999999999E-002     8.2214453205628150E-017
   2.4000000000000000E-002     1.9855121143332066E-018
   2.4300000000000002E-002    -3.7114655844221922E-016
   2.4599999999999997E-002     4.4674566693356839E-016
   2.4900000000000005E-002     8.2437014226441369E-016
   2.5200000000000000E-002    -1.8452617941740003E-015
   2.5499999999999995E-002    -1.7254877320156295E-015
   2.5800000000000003E-002     3.2713235260040261E-015
   2.6099999999999998E-002     1.6424923060752530E-014
   2.6400000000000007E-002    -1.8484007198200597E-014
   2.6700000000000002E-002    -1.2128151225910655E-013
   2.6999999999999996E-002     2.3922688883285686E-013
   2.7300000000000005E-002     4.6089213675578190E-013
   2.7600000000000000E-002    -1.7358654720330511E-012
   2.7900000000000008E-002    -4.4443552774370247E-013
   2.8200000000000003E-002     8.1327676849534233E-012
   2.8499999999999998E-002    -5.7083957197730564E-012
   2.8800000000000006E-002    -2.6791477838523380E-011
   2.9100000000000001E-002     4.3781559285975691E-011
   2.9400000000000003E-002     5.9945291955020665E-011
   2.9700000000000004E-002    -1.9538610467175576E-010
   3.0000000000000006E-002    -5.4238921281460394E-011
   3.0300000000000001E-002     6.6595182770989272E-010
   3.0600000000000002E-002    -2.7365298844080359E-010
   3.0900000000000004E-002    -1.9023321714092324E-009
   3.1199999999999999E-002     1.9389777581687588E-009
   3.1500000000000007E-002     4.9020194968315577E-009
   3.1800000000000002E-002    -7.9874202312344646E-009
   3.2099999999999997E-002    -1.2819215716971673E-008
   3.2400000000000005E-002     2.5114174382711212E-008
   3.2700000000000000E-002     3.4679912741093169E-008
   3.3000000000000002E-002    -7.0970152122612415E-008
   3.3300000000000003E-002    -1.1988117278087743E-007
   3.3599999999999998E-002     1.6607357963836372E-007
   3.3900000000000000E-002     7.4618019891466493E-007
   3.4200000000000001E-002     1.7493908542411833E-006
   3.4500000000000003E-002     4.4079281086727378E-006
   3.4799999999999998E-002     1.0091878283031537E-005
   3.5099999999999999E-002     1.8125920958197470E-005
   3.5400000000000001E-002     2.6633121705781406E-005
   3.5699999999999996E-002     3.6325102996082897E-005
   3.6000000000000004E-002     5.1142816785407897E-005
   3.6299999999999999E-002     7.4590762711721162E-005
   3.6600000000000008E-002     1.0912117098965806E-004
   3.6900000000000002E-002     1.6069770758940724E-004
   3.7199999999999997E-002     2.3944238712533033E-004
   3.7500000000000006E-002     3.5275671417245899E-004
   3.7800000000000000E-002     5.0241821920798989E-004
   3.8100000000000009E-002     6.9328568473171130E-004
   3.8400000000000004E-002     9.4098705391628952E-004
   3.8699999999999998E-002     1.2645314364681057E-003
   3.9000000000000007E-002     1.6721677303834896E-003
   3.9300000000000002E-002     2.1579843638874744E-003
   3.9600000000000003E-002     2.7098344450988965E-003
   3.9900000000000005E-002     3.3129440551309271E-003
   4.0200000000000000E-002     3.9417111359830977E-003
   4.0500000000000001E-002     4.5444128229920593E-003
   4.0800000000000003E-002     5.0312486604898437E-003
   4.1100000000000005E-002     5.2737571300012645E-003
   4.1399999999999999E-002     5.1157549664258093E-003
   4.1700000000000008E-002     4.3760966655126531E-003
   4.2000000000000003E-002     2.8341172111265964E-003
   4.2299999999999997E-002     2.2300507545630318E-004
   4.2600000000000006E-002    -3.7413610609899491E-003
   4.2900000000000001E-002    -9.3168882271251093E-003
   4.3200000000000002E-002    -1.6717796039857825E-002
   4.3500000000000004E-002    -2.6105535321481708E-002
   4.3799999999999999E-002    -3.7543249737838243E-002
   4.4100000000000000E-002    -5.0946643405508418E-002
   4.4400000000000002E-002    -6.6076608546738025E-002
   4.4700000000000004E-002    -8.2553754128406528E-002
   4.4999999999999998E-002    -9.9829937189320678E-002
   4.5300000000000000E-002   -0.11718616922237389     
   4.5600000000000002E-002   -0.13381065728801600     
   4.5899999999999996E-002   -0.14889785949325537     
   4.6200000000000005E-002   -0.16171318583595207     
   4.6500000000000000E-002   -0.17161880700923612     
   4.6799999999999994E-002   -0.17821544640884188     
   4.7100000000000003E-002   -0.18143038639730852     
   4.7399999999999998E-002   -0.18150267144641272     
   4.7700000000000006E-002   -0.17895619663700210     
   4.8000000000000001E-002   -0.17451533727743779     
   4.8300000000000010E-002   -0.16902203884467246     
   4.8600000000000004E-002   -0.16320067664120175     
   4.8899999999999999E-002   -0.15746323800830780     
   4.9200000000000008E-002   -0.15171817022206524     
   4.9500000000000002E-002   -0.14521277090481463     
   4.9800000000000011E-002   -0.13643621126268909     
   5.0100000000000006E-002   -0.12316079740419297     
   5.0400000000000000E-002   -0.10261541240972477     
   5.0700000000000009E-002    -7.1733486562263027E-002
   5.1000000000000004E-002    -2.7605156340234093E-002
   5.1299999999999998E-002     3.1959801353015585E-002
   5.1600000000000007E-002    0.10799888928618674     
   5.1900000000000002E-002    0.19974739666999727     
   5.2200000000000010E-002    0.30437678134545521     
   5.2500000000000005E-002    0.41673007914708216     
   5.2800000000000000E-002    0.52939916270317011     
   5.3099999999999994E-002    0.63308204148920044     
   5.3400000000000003E-002    0.71723170310630002     
   5.3699999999999998E-002    0.77100606234108771     
   5.4000000000000006E-002    0.78419818107042549     
   5.4300000000000001E-002    0.74863960008201547     
   5.4599999999999996E-002    0.65918524622804009     
   5.4900000000000004E-002    0.51475436799219565     
   5.5199999999999999E-002    0.31897116623036181     
   5.5499999999999994E-002     8.0494117296561224E-002
   5.5800000000000002E-002   -0.18729391896453063     
   5.6099999999999997E-002   -0.46705926322862973     
   5.6400000000000006E-002   -0.73836208900796829     
   5.6700000000000000E-002   -0.97955157476898802     
   5.6999999999999995E-002    -1.1693374176627300     
   5.7300000000000004E-002    -1.2887424519532455     
   5.7599999999999998E-002    -1.3229279817129507     
   5.7900000000000007E-002    -1.2625299977612470     
   5.8200000000000002E-002    -1.1049779901084154     
   5.8499999999999996E-002   -0.85472329332279462     
   5.8800000000000005E-002   -0.52337397187345713     
   5.9100000000000000E-002   -0.12883380119239288     
   5.9400000000000008E-002    0.30592800202126402     
   5.9700000000000003E-002    0.75459577779640330     
   6.0000000000000012E-002     1.1897601209200530     
   6.0300000000000006E-002     1.5846904932747952     
   6.0600000000000001E-002     1.9156820078217653     
   6.0900000000000010E-002     2.1635213452393520     
   6.1200000000000004E-002     2.3149302592796444     
   6.1500000000000013E-002     2.3630245325067776     
   6.1800000000000008E-002     2.3078830815089515     
   6.2100000000000002E-002     2.1556821397489716     
   6.2399999999999997E-002     1.9179569944519301     
   6.2700000000000006E-002     1.6102866312540438     
   6.3000000000000000E-002     1.2509899421851105     
   6.3300000000000009E-002    0.85927416689994296     
   6.3600000000000004E-002    0.45418355615213801     
   6.3899999999999998E-002     5.3248574029803854E-002
   6.4199999999999993E-002   -0.32827393461136806     
   6.4500000000000002E-002   -0.67807271204649699     
   6.4800000000000010E-002   -0.98684951541212873     
   6.5100000000000005E-002    -1.2484425654256761     
   6.5400000000000000E-002    -1.4590623774817395     
   6.5700000000000008E-002    -1.6178404523313894     
   6.5999999999999989E-002    -1.7253066752825525     
   6.6299999999999998E-002    -1.7836322052137978     
   6.6600000000000006E-002    -1.7961477497868943     
   6.6900000000000001E-002    -1.7668366875184418     
   6.7199999999999996E-002    -1.7002591314892990     
   6.7500000000000004E-002    -1.6014433296818629     
   6.7800000000000013E-002    -1.4756119604067963     
   6.8099999999999994E-002    -1.3282625986035550     
   6.8400000000000002E-002    -1.1651467350215388     
   6.8700000000000011E-002   -0.99200089961322646     
   6.8999999999999992E-002   -0.81464262504583485     
   6.9300000000000000E-002   -0.63904322401693869     
   6.9600000000000009E-002   -0.47051892430141545     
   6.9900000000000004E-002   -0.31450140791657577     
   7.0199999999999999E-002   -0.17594976655913577     
   7.0500000000000007E-002    -5.8884475185921027E-002
   7.0800000000000016E-002     3.3206547553683179E-002
   7.1099999999999997E-002     9.7738453002406453E-002
   7.1400000000000005E-002    0.13318287740249071     
   7.1700000000000000E-002    0.13925124110623377     
   7.1999999999999995E-002    0.11648485110753039     
   7.2300000000000003E-002     6.6812126328701302E-002
   7.2600000000000012E-002    -6.9241678594953214E-003
   7.2900000000000006E-002   -0.10109847079546348     
   7.3200000000000001E-002   -0.21128900800678310     
   7.3499999999999996E-002   -0.33260063236303372     
   7.3800000000000004E-002   -0.45971490313457014     
   7.4099999999999999E-002   -0.58729608678722622     
   7.4400000000000008E-002   -0.70985283694701329     
   7.4700000000000003E-002   -0.82187494238040404     
   7.5000000000000011E-002   -0.91788104053022601     
   7.5299999999999992E-002   -0.99228838135376374     
   7.5600000000000001E-002    -1.0394679616507942     
   7.5900000000000009E-002    -1.0535142722986008     
   7.6200000000000004E-002    -1.0286829751932374     
   7.6499999999999999E-002   -0.95907797881170154     
   7.6800000000000007E-002   -0.83929928115407926     
   7.7099999999999988E-002   -0.66474987403268515     
   7.7399999999999997E-002   -0.43217307892447621     
   7.7700000000000005E-002   -0.14076429287993192     
   7.8000000000000014E-002    0.20785762178726561     
   7.8299999999999995E-002    0.60824563476316762     
   7.8600000000000003E-002     1.0507866490135567     
   7.8900000000000012E-002     1.5216105440896173     
   7.9199999999999993E-002     2.0027418700121467     
   7.9500000000000001E-002     2.4718452161148292     
   7.9800000000000010E-002     2.9042897968895436     
   8.0100000000000018E-002     3.2740646216603997     
   8.0399999999999999E-002     3.5552996051607844     
   8.0700000000000008E-002     3.7246504686187309     
   8.1000000000000003E-002     3.7640696406242262     
   8.1299999999999997E-002     3.6616063897574072     
   8.1600000000000006E-002     3.4139247633558103     
   8.1900000000000014E-002     3.0276544672030385     
   8.2199999999999995E-002     2.5189342938551054     
   8.2500000000000004E-002     1.9133813666830521     
   8.2799999999999999E-002     1.2451247101646186     
   8.3100000000000007E-002    0.55361187125071620     
   8.3400000000000002E-002   -0.11845026460633695     
   8.3700000000000011E-002   -0.72885844147389689     
   8.4000000000000005E-002    -1.2396660245981368     
   8.4300000000000000E-002    -1.6199353194112154     
   8.4599999999999995E-002    -1.8486705298378989     
   8.4900000000000003E-002    -1.9179234957889051     
   8.5199999999999998E-002    -1.8321021002513713     
   8.5500000000000007E-002    -1.6087158042623360     
   8.5800000000000001E-002    -1.2774856303460607     
   8.6100000000000010E-002   -0.87708265583666500     
   8.6399999999999991E-002   -0.45187008245517374     
   8.6699999999999999E-002    -4.9338515583533478E-002
   8.7000000000000008E-002    0.28565203096450709     
   8.7300000000000003E-002    0.51384773289085561     
   8.7599999999999997E-002    0.60519560734207745     
   8.7900000000000006E-002    0.54170718083247493     
   8.8200000000000014E-002    0.31935696431427096     
   8.8499999999999995E-002    -5.1548512163780973E-002
   8.8800000000000004E-002   -0.54674977753527398     
   8.9100000000000013E-002    -1.1299965600109763     
   8.9399999999999993E-002    -1.7554428954202115     
   8.9700000000000002E-002    -2.3712151582253447     
   9.0000000000000011E-002    -2.9235435202980993     
   9.0299999999999991E-002    -3.3607548065703177     
   9.0600000000000000E-002    -3.6371518037833637     
   9.0900000000000009E-002    -3.7170391967544547     
   9.1200000000000017E-002    -3.5768192676361714     
   9.1499999999999998E-002    -3.2079015564562399     
   9.1800000000000007E-002    -2.6168153945469288     
   9.2100000000000001E-002    -1.8254564294621740     
   9.2399999999999996E-002   -0.86966886879754757     
   9.2700000000000005E-002    0.20242988710501059     
   9.3000000000000013E-002     1.3347115735564048     
   9.3300000000000008E-002     2.4653332707549387     
   9.3600000000000003E-002     3.5308445215690827     
   9.3899999999999997E-002     4.4713583923054525     
   9.4200000000000006E-002     5.2330757293652850     
   9.4500000000000001E-002     5.7717229168344257     
   9.4800000000000009E-002     6.0561257711378103     
   9.5100000000000004E-002     6.0690780998538489     
   9.5399999999999999E-002     5.8084160159084908     
   9.5699999999999993E-002     5.2870341500280640     
   9.6000000000000002E-002     4.5318456689042872     
   9.6300000000000011E-002     3.5809620216709099     
   9.6600000000000005E-002     2.4820893366293761     
   9.6900000000000000E-002     1.2882912460530083     
   9.7200000000000009E-002     5.4862808780568449E-002
   9.7499999999999989E-002    -1.1633563255639778     
   9.7799999999999998E-002    -2.3165982221057373     
   9.8100000000000007E-002    -3.3612869447927642     
   9.8400000000000015E-002    -4.2627325896722059     
   9.8699999999999996E-002    -4.9954014800216626     
   9.9000000000000005E-002    -5.5446058391550173     
   9.9300000000000013E-002    -5.9038425618409471     
   9.9599999999999994E-002    -6.0756865689750095     
   9.9900000000000003E-002    -6.0700899293640687     
  0.10020000000000001         -5.9009295584280679     
  0.10049999999999999         -5.5867949533804131     
  0.10080000000000000         -5.1486531215370661     
  0.10110000000000001         -4.6080661628547288     
  0.10140000000000000         -3.9878042442879953     
  0.10170000000000000         -3.3102117170116006     
  0.10200000000000001         -2.5984104152432010     
  0.10230000000000002         -1.8738731508045274     
  0.10260000000000000         -1.1595434207398490     
  0.10290000000000001        -0.47651003388600738     
  0.10320000000000000         0.15482270056440467     
  0.10350000000000001         0.71565842791515399     
  0.10380000000000000          1.1904707043742662     
  0.10410000000000001          1.5667922646548478     
  0.10440000000000001          1.8369865615000431     
  0.10470000000000000          1.9995438092471394     
  0.10500000000000000          2.0575166000206329     
  0.10530000000000000          2.0209734696612851     
  0.10560000000000000          1.9050127515997213     
  0.10590000000000001          1.7293963660049134     
  0.10620000000000000          1.5168730218228395     
  0.10650000000000001          1.2920788687939897     
  0.10679999999999999          1.0804237251022943     
  0.10710000000000000         0.90407890967901461     
  0.10740000000000001         0.78257001056401532     
  0.10770000000000000         0.73070478890558088     
  0.10800000000000000         0.75693047492215970     
  0.10830000000000001         0.86300355815532037     
  0.10859999999999999          1.0442302325057053     
  0.10890000000000000          1.2894793901438233     
  0.10920000000000001          1.5801620705879140     
  0.10950000000000001          1.8944604700520757     
  0.10979999999999999          2.2066228780153283     
  0.11009999999999999          2.4880674360251778     
  0.11040000000000001          2.7119045807876150     
  0.11070000000000001          2.8524120461675819     
  0.11100000000000000          2.8885193511863609     
  0.11130000000000000          2.8041163133978038     
  0.11160000000000002          2.5917750016514640     
  0.11190000000000001          2.2509978361671990     
  0.11220000000000001          1.7907976355059210     
  0.11250000000000000          1.2286093547386550     
  0.11280000000000000         0.58924694462156635     
  0.11309999999999999         -9.5992133713566477E-002
  0.11340000000000001        -0.79185940589648007     
  0.11369999999999998         -1.4612675048654018     
  0.11400000000000000         -2.0675178049999756     
  0.11430000000000000         -2.5779784313169145     
  0.11460000000000002         -2.9654081530386920     
  0.11489999999999999         -3.2103598815578573     
  0.11520000000000001         -3.3015249466106091     
  0.11550000000000001         -3.2389200377940761     
  0.11580000000000000         -3.0301652517304651     
  0.11609999999999999         -2.6924245810870007     
  0.11640000000000002         -2.2506854859462577     
  0.11670000000000001         -1.7345059106065948     
  0.11700000000000001         -1.1764619401364373     
  0.11730000000000000        -0.61102574292373280     
  0.11760000000000000         -7.1038525293625671E-002
  0.11789999999999999         0.41536351856037662     
  0.11820000000000001         0.82287595152846771     
  0.11850000000000001          1.1336805014305547     
  0.11880000000000000          1.3377211495139003     
  0.11910000000000000          1.4321027196328808     
  0.11940000000000002          1.4212092529381155     
  0.11970000000000001          1.3180482716129389     
  0.12000000000000001          1.1414234918922450     
  0.12030000000000000         0.91480609098279664     
  0.12060000000000000         0.66601439171268750     
  0.12089999999999999         0.42323632519971394     
  0.12119999999999999         0.21328620366798126     
  0.12150000000000001          5.8976893132313329E-002
  0.12180000000000001         -2.3385440730804428E-002
  0.12210000000000000         -2.5388751636441258E-002
  0.12239999999999999          4.9805173708280380E-002
  0.12270000000000002         0.19124488085516825     
  0.12300000000000001         0.37697473133596804     
  0.12330000000000001         0.57950613100832926     
  0.12360000000000000         0.76757875198402492     
  0.12390000000000000         0.91242959701706994     
  0.12419999999999999         0.99129940658608007     
  0.12450000000000001         0.99286592065503898     
  0.12480000000000001         0.92193220146758847     
  0.12509999999999999         0.80006750264679383     
  0.12540000000000001         0.66609161667636985     
  0.12570000000000003         0.57258996991794608     
  0.12600000000000000         0.58036401267743520     
  0.12630000000000002         0.75005557410957102     
  0.12659999999999999          1.1313623547795553     
  0.12690000000000001          1.7554184857637249     
  0.12719999999999998          2.6229429190027118     
  0.12750000000000000          3.7002273194494983     
  0.12780000000000002          4.9148756436623593     
  0.12809999999999999          6.1592991180415160     
  0.12840000000000001          7.2967951975844239     
  0.12869999999999998          8.1725133904640082     
  0.12900000000000000          8.6310648553003873     
  0.12930000000000003          8.5316758100199035     
  0.12959999999999999          7.7674260050187351     
  0.12990000000000002          6.2808403453480777     
  0.13019999999999998          4.0748017867136195     
  0.13050000000000000          1.2217280673900792     
  0.13080000000000003         -2.1402732686916992     
  0.13109999999999999         -5.8117819983330028     
  0.13140000000000002         -9.5475485993853635     
  0.13169999999999998         -13.075651661400206     
  0.13200000000000001         -16.121716207796837     
  0.13229999999999997         -18.429932440216756     
  0.13260000000000000         -19.791514335990833     
  0.13290000000000002         -20.060246447215093     
  0.13319999999999999         -19.167452773916953     
  0.13350000000000001         -17.131672744419074     
  0.13380000000000003         -14.055790655482769     
  0.13410000000000000         -10.117376858125581     
  0.13440000000000002         -5.5601919501707711     
  0.13469999999999999        -0.66745575986354955     
  0.13500000000000001          4.2554875925359452     
  0.13529999999999998          8.9074462849510621     
  0.13560000000000000          13.010484321282709     
  0.13590000000000002          16.332678586564882     
  0.13619999999999999          18.697041423574291     
  0.13650000000000001          19.994997959668979     
  0.13680000000000003          20.185853002414536     
  0.13710000000000000          19.296502076350286     
  0.13740000000000002          17.413845896976522     
  0.13769999999999999          14.675222155964018     
  0.13800000000000001          11.254332148206601     
  0.13829999999999998          7.3499869376748679     
  0.13860000000000000          3.1718537403601310     
  0.13890000000000002         -1.0728604695112320     
  0.13919999999999999         -5.1885377687773104     
  0.13950000000000001         -9.0005363020207412     
  0.13979999999999998         -12.361927514128034     
  0.14010000000000000         -15.158251409204448     
  0.14040000000000002         -17.306036685885523     
  0.14069999999999999         -18.758301531507797     
  0.14100000000000001         -19.498513048250800     
  0.14130000000000004         -19.539389438206413     
  0.14160000000000000         -18.919075769136654     
  0.14189999999999997         -17.694998496757737     
  0.14219999999999999         -15.941142724474824     
  0.14250000000000002         -13.740911089646897     
  0.14279999999999998         -11.183778274003139     
  0.14310000000000000         -8.3615974228852004     
  0.14339999999999997         -5.3631122259642572     
  0.14369999999999999         -2.2750650873675613     
  0.14400000000000002         0.82422324912329592     
  0.14429999999999998          3.8592587300877272     
  0.14460000000000001          6.7657534530350416     
  0.14490000000000003          9.4829819655006951     
  0.14520000000000000          11.959697146235706     
  0.14550000000000002          14.148146136125133     
  0.14579999999999999          16.011709747664661     
  0.14610000000000001          17.516077638189650     
  0.14640000000000003          18.636500050636844     
  0.14670000000000000          19.354902948070972     
  0.14699999999999996          19.661577925083421     
  0.14729999999999999          19.555001009454521     
  0.14760000000000001          19.042877889476944     
  0.14789999999999998          18.142157265335076     
  0.14820000000000000          16.879351283949507     