  -1.4999999999999999E-002     0.0000000000000000     
  -1.4700000000000000E-002     0.0000000000000000     
  -1.4400000000000000E-002     0.0000000000000000     
  -1.4100000000000000E-002     0.0000000000000000     
  -1.3800000000000000E-002     0.0000000000000000     
  -1.3500000000000000E-002     0.0000000000000000     
  -1.3200000000000000E-002     0.0000000000000000     
  -1.2899999999999998E-002     0.0000000000000000     
  -1.2600000000000000E-002     0.0000000000000000     
  -1.2299999999999998E-002     0.0000000000000000     
  -1.2000000000000000E-002     0.0000000000000000     
  -1.1699999999999999E-002     0.0000000000000000     
  -1.1399999999999999E-002     0.0000000000000000     
  -1.1099999999999999E-002     0.0000000000000000     
  -1.0799999999999999E-002     0.0000000000000000     
  -1.0499999999999999E-002     0.0000000000000000     
  -1.0199999999999999E-002     0.0000000000000000     
  -9.8999999999999991E-003     0.0000000000000000     
  -9.5999999999999992E-003     0.0000000000000000     
  -9.2999999999999992E-003     0.0000000000000000     
  -8.9999999999999993E-003     0.0000000000000000     
  -8.6999999999999994E-003     0.0000000000000000     
  -8.3999999999999995E-003     0.0000000000000000     
  -8.0999999999999996E-003     0.0000000000000000     
  -7.7999999999999988E-003     0.0000000000000000     
  -7.4999999999999997E-003     0.0000000000000000     
  -7.1999999999999998E-003     0.0000000000000000     
  -6.8999999999999981E-003     0.0000000000000000     
  -6.5999999999999982E-003     0.0000000000000000     
  -6.3000000000000000E-003     0.0000000000000000     
  -6.0000000000000001E-003     0.0000000000000000     
  -5.6999999999999985E-003     0.0000000000000000     
  -5.3999999999999986E-003     0.0000000000000000     
  -5.1000000000000004E-003     0.0000000000000000     
  -4.7999999999999987E-003     0.0000000000000000     
  -4.5000000000000005E-003     0.0000000000000000     
  -4.1999999999999989E-003     0.0000000000000000     
  -3.8999999999999990E-003     0.0000000000000000     
  -3.5999999999999990E-003     0.0000000000000000     
  -3.2999999999999991E-003     0.0000000000000000     
  -2.9999999999999992E-003     0.0000000000000000     
  -2.6999999999999993E-003     0.0000000000000000     
  -2.3999999999999994E-003     0.0000000000000000     
  -2.0999999999999977E-003     0.0000000000000000     
  -1.7999999999999995E-003     0.0000000000000000     
  -1.4999999999999979E-003     0.0000000000000000     
  -1.1999999999999997E-003     0.0000000000000000     
  -8.9999999999999976E-004     0.0000000000000000     
  -5.9999999999999810E-004     0.0000000000000000     
  -2.9999999999999992E-004     0.0000000000000000     
   0.0000000000000000          0.0000000000000000     
   3.0000000000000165E-004     0.0000000000000000     
   5.9999999999999984E-004     0.0000000000000000     
   9.0000000000000149E-004     0.0000000000000000     
   1.2000000000000031E-003     0.0000000000000000     
   1.5000000000000013E-003     0.0000000000000000     
   1.8000000000000030E-003     0.0000000000000000     
   2.1000000000000012E-003     0.0000000000000000     
   2.3999999999999994E-003     0.0000000000000000     
   2.7000000000000010E-003     0.0000000000000000     
   2.9999999999999992E-003     0.0000000000000000     
   3.3000000000000008E-003     0.0000000000000000     
   3.6000000000000025E-003     0.0000000000000000     
   3.9000000000000007E-003     0.0000000000000000     
   4.2000000000000023E-003     0.0000000000000000     
   4.5000000000000005E-003     0.0000000000000000     
   4.7999999999999987E-003     0.0000000000000000     
   5.1000000000000004E-003     0.0000000000000000     
   5.4000000000000020E-003     0.0000000000000000     
   5.7000000000000037E-003     0.0000000000000000     
   5.9999999999999984E-003     0.0000000000000000     
   6.3000000000000000E-003     0.0000000000000000     
   6.6000000000000017E-003     0.0000000000000000     
   6.9000000000000034E-003     0.0000000000000000     
   7.2000000000000015E-003     0.0000000000000000     
   7.5000000000000032E-003     0.0000000000000000     
   7.8000000000000014E-003     0.0000000000000000     
   8.0999999999999996E-003     0.0000000000000000     
   8.4000000000000012E-003     0.0000000000000000     
   8.7000000000000029E-003     0.0000000000000000     
   9.0000000000000011E-003     0.0000000000000000     
   9.2999999999999992E-003     0.0000000000000000     
   9.6000000000000009E-003     0.0000000000000000     
   9.8999999999999991E-003     0.0000000000000000     
   1.0200000000000001E-002     0.0000000000000000     
   1.0500000000000002E-002     0.0000000000000000     
   1.0800000000000004E-002     0.0000000000000000     
   1.1099999999999999E-002     0.0000000000000000     
   1.1400000000000000E-002     0.0000000000000000     
   1.1700000000000002E-002     0.0000000000000000     
   1.2000000000000004E-002     0.0000000000000000     
   1.2300000000000002E-002     0.0000000000000000     
   1.2600000000000000E-002     0.0000000000000000     
   1.2900000000000002E-002     0.0000000000000000     
   1.3200000000000000E-002     0.0000000000000000     
   1.3500000000000002E-002     0.0000000000000000     
   1.3800000000000003E-002     0.0000000000000000     
   1.4100000000000001E-002     0.0000000000000000     
   1.4400000000000000E-002     0.0000000000000000     
   1.4700000000000001E-002     0.0000000000000000     
   1.4999999999999999E-002     0.0000000000000000     
   1.5300000000000001E-002     0.0000000000000000     
   1.5600000000000003E-002     0.0000000000000000     
   1.5899999999999997E-002     0.0000000000000000     
   1.6199999999999999E-002     0.0000000000000000     
   1.6500000000000001E-002     0.0000000000000000     
   1.6800000000000002E-002     0.0000000000000000     
   1.7100000000000004E-002     0.0000000000000000     
   1.7400000000000006E-002     0.0000000000000000     
   1.7700000000000000E-002     0.0000000000000000     
   1.8000000000000002E-002     0.0000000000000000     
   1.8300000000000004E-002     0.0000000000000000     
   1.8600000000000005E-002     0.0000000000000000     
   1.8900000000000000E-002     0.0000000000000000     
   1.9200000000000002E-002     0.0000000000000000     
   1.9500000000000003E-002     0.0000000000000000     
   1.9799999999999998E-002     0.0000000000000000     
   2.0100000000000000E-002     0.0000000000000000     
   2.0400000000000001E-002     0.0000000000000000     
   2.0700000000000003E-002     0.0000000000000000     
   2.0999999999999998E-002     0.0000000000000000     
   2.1299999999999999E-002     0.0000000000000000     
   2.1600000000000001E-002     0.0000000000000000     
   2.1900000000000003E-002     0.0000000000000000     
   2.2200000000000004E-002     0.0000000000000000     
   2.2500000000000006E-002     0.0000000000000000     
   2.2800000000000001E-002     0.0000000000000000     
   2.3100000000000002E-002     0.0000000000000000     
   2.3400000000000004E-002     0.0000000000000000     
   2.3699999999999999E-002     0.0000000000000000     
   2.4000000000000000E-002     0.0000000000000000     
   2.4300000000000002E-002     0.0000000000000000     
   2.4599999999999997E-002     0.0000000000000000     
   2.4900000000000005E-002     0.0000000000000000     
   2.5200000000000000E-002     0.0000000000000000     
   2.5499999999999995E-002     0.0000000000000000     
   2.5800000000000003E-002     0.0000000000000000     
   2.6099999999999998E-002     0.0000000000000000     
   2.6400000000000007E-002     0.0000000000000000     
   2.6700000000000002E-002     0.0000000000000000     
   2.6999999999999996E-002     0.0000000000000000     
   2.7300000000000005E-002     0.0000000000000000     
   2.7600000000000000E-002     9.5531515080686981E-060
   2.7900000000000008E-002    -1.1628927607418672E-057
   2.8200000000000003E-002     7.7673534753386341E-045
   2.8499999999999998E-002    -4.2225488497896333E-043
   2.8800000000000006E-002     2.1960181394862695E-042
   2.9100000000000001E-002    -2.3017996523311108E-037
   2.9400000000000003E-002     8.3768219055875737E-036
   2.9700000000000004E-002    -3.1389770856427151E-035
   3.0000000000000006E-002     2.4667736002197576E-034
   3.0300000000000001E-002    -1.7321558704373590E-033
   3.0600000000000002E-002     9.0144850560482024E-033
   3.0900000000000004E-002    -3.7093041716245032E-032
   3.1199999999999999E-002     1.2128099626258906E-031
   3.1500000000000007E-002    -2.8882482616694092E-031
   3.1800000000000002E-002     3.2972678264558270E-031
   3.2099999999999997E-002     1.0575651140735997E-030
   3.2400000000000005E-002    -8.2579130300946815E-030
   3.2700000000000000E-002     3.1772582829419391E-029
   3.3000000000000002E-002    -9.4110221432185599E-029
   3.3300000000000003E-002     2.7158400174236766E-028
   3.3599999999999998E-002    -9.5287510610708599E-028
   3.3900000000000000E-002     3.8365131040708765E-027
   3.4200000000000001E-002    -1.4044781880281315E-026
   3.4500000000000003E-002     3.9134498520735302E-026
   3.4799999999999998E-002    -6.1109659208706222E-026
   3.5099999999999999E-002    -8.5144145579483306E-026
   3.5400000000000001E-002     1.0002725269782285E-024
   3.5699999999999996E-002    -3.9347500081299302E-024
   3.6000000000000004E-002     9.4779837495025696E-024
   3.6299999999999999E-002    -1.1244772716746225E-023
   3.6600000000000008E-002    -1.7561466958858364E-023
   3.6900000000000002E-002     1.2955896417641074E-022
   3.7199999999999997E-002    -3.4191107405972419E-022
   3.7500000000000006E-002     4.2945311120269462E-022
   3.7800000000000000E-002     3.0190630698800562E-022
   3.8100000000000009E-002    -2.4719253483012142E-021
   3.8400000000000004E-002     4.0603875491572101E-021
   3.8699999999999998E-002     2.4505732245487206E-021
   3.9000000000000007E-002    -2.0885199157510302E-020
   3.9300000000000002E-002     1.0307309490920243E-020
   3.9600000000000003E-002     1.5537242276590073E-019
   3.9900000000000005E-002    -5.0795454841209358E-019
   4.0200000000000000E-002     2.4808150910464520E-019
   4.0500000000000001E-002     2.8974716928485313E-018
   4.0800000000000003E-002    -9.3001449485941440E-018
   4.1100000000000005E-002     5.0197009656870388E-018
   4.1399999999999999E-002     4.4747346590500972E-017
   4.1700000000000008E-002    -1.2901654811214275E-016
   4.2000000000000003E-002     4.9802933856832493E-018
   4.2299999999999997E-002     7.5485420662675865E-016
   4.2600000000000006E-002    -1.4701303036853462E-015
   4.2900000000000001E-002    -1.8156515609781413E-015
   4.3200000000000002E-002     1.2101967622446585E-014
   4.3500000000000004E-002    -1.0304116751717755E-014
   4.3799999999999999E-002    -5.4165475278584548E-014
   4.4100000000000000E-002     1.4898624906343627E-013
   4.4400000000000002E-002     7.4397353380638962E-014
   4.4700000000000004E-002    -9.4292161811315041E-013
   4.4999999999999998E-002     9.3597609448710838E-013
   4.5300000000000000E-002     3.7491578813364379E-012
   4.5600000000000002E-002    -9.4969443870602245E-012
   4.5899999999999996E-002    -7.9392326037327916E-012
   4.6200000000000005E-002     5.4834730360228054E-011
   4.6500000000000000E-002    -1.4206868367038706E-011
   4.6799999999999994E-002    -2.4262473314955094E-010
   4.7100000000000003E-002     2.4379817611838579E-010
   4.7399999999999998E-002     9.1573196946841123E-010
   4.7700000000000006E-002    -1.5216207901227513E-009
   4.8000000000000001E-002    -3.2091563949983385E-009
   4.8300000000000010E-002     7.1319729458697253E-009
   4.8600000000000004E-002     1.1522786144541575E-008
   4.8899999999999999E-002    -2.8322110966772488E-008
   4.9200000000000008E-002    -4.7312221788592069E-008
   4.9500000000000002E-002     8.8602607951898624E-008
   4.9800000000000011E-002     1.9149158876682313E-007
   5.0100000000000006E-002    -2.2359472887871042E-007
   5.0400000000000000E-002    -7.7712198826870148E-007
   5.0700000000000009E-002     4.8498866157799386E-007
   5.1000000000000004E-002     5.2128154955793175E-006
   5.1299999999999998E-002     1.2361704916657217E-005
   5.1600000000000007E-002     1.9636466395725358E-005
   5.1900000000000002E-002     2.7461524933349047E-005
   5.2200000000000010E-002     3.9545370781250980E-005
   5.2500000000000005E-002     5.9772257722589502E-005
   5.2800000000000000E-002     9.1260410071866346E-005
   5.3099999999999994E-002     1.3892558546047906E-004
   5.3400000000000003E-002     2.1108473311686599E-004
   5.3699999999999998E-002     3.1844763899135556E-004
   5.4000000000000006E-002     4.7278987308271581E-004
   5.4300000000000001E-002     6.8725439190969772E-004
   5.4599999999999996E-002     9.7959089424038098E-004
   5.4900000000000004E-002     1.3762634036747423E-003
   5.5199999999999999E-002     1.9103362565502135E-003
   5.5499999999999994E-002     2.6136913042246069E-003
   5.5800000000000002E-002     3.5157682386144462E-003
   5.6099999999999997E-002     4.6501261042278088E-003
   5.6400000000000006E-002     6.0518387404325013E-003
   5.6700000000000000E-002     7.7437491652003069E-003
   5.6999999999999995E-002     9.7309787286905883E-003
   5.7300000000000004E-002     1.2002688703425206E-002
   5.7599999999999998E-002     1.4521517689870065E-002
   5.7900000000000007E-002     1.7204640384526827E-002
   5.8200000000000002E-002     1.9923640452981468E-002
   5.8499999999999996E-002     2.2514546455273850E-002
   5.8800000000000005E-002     2.4771798738728149E-002
   5.9100000000000000E-002     2.6439156939936617E-002
   5.9400000000000008E-002     2.7225662850249230E-002
   5.9700000000000003E-002     2.6836644139181298E-002
   6.0000000000000012E-002     2.5003077091226372E-002
   6.0300000000000006E-002     2.1508624765594762E-002
   6.0600000000000001E-002     1.6223062164192781E-002
   6.0900000000000010E-002     9.1443412744886959E-003
   6.1200000000000004E-002     4.3658125975434798E-004
   6.1500000000000013E-002    -9.5390454181242187E-003
   6.1800000000000008E-002    -2.0228953244947251E-002
   6.2100000000000002E-002    -3.0907198344791640E-002
   6.2399999999999997E-002    -4.0706245393163212E-002
   6.2700000000000006E-002    -4.8673934429190303E-002
   6.3000000000000000E-002    -5.3859360893899720E-002
   6.3300000000000009E-002    -5.5438699158638582E-002
   6.3600000000000004E-002    -5.2821758874937882E-002
   6.3899999999999998E-002    -4.5747609462151013E-002
   6.4199999999999993E-002    -3.4401900665525349E-002
   6.4500000000000002E-002    -1.9507904913448448E-002
   6.4800000000000010E-002    -2.3057977484007498E-003
   6.5100000000000005E-002     1.5482508435917504E-002
   6.5400000000000000E-002     3.1726117445700863E-002
   6.5700000000000008E-002     4.4021330062896845E-002
   6.5999999999999989E-002     4.9891255792869176E-002
   6.6299999999999998E-002     4.7019751299988449E-002
   6.6600000000000006E-002     3.3484127179597492E-002
   6.6900000000000001E-002     7.9754336938392522E-003
   6.7199999999999996E-002    -2.9982838615858206E-002
   6.7500000000000004E-002    -7.9892931528114705E-002
   6.7800000000000013E-002   -0.14018125282821273     
   6.8099999999999994E-002   -0.20821822276083876     
   6.8400000000000002E-002   -0.28037424650433002     
   6.8700000000000011E-002   -0.35214959082712766     
   6.8999999999999992E-002   -0.41844640474432493     
   6.9300000000000000E-002   -0.47382609237957335     
   6.9600000000000009E-002   -0.51285610766755607     
   6.9900000000000004E-002   -0.53048084425594488     
   7.0199999999999999E-002   -0.52238748880950181     
   7.0500000000000007E-002   -0.48535640693036930     
   7.0800000000000016E-002   -0.41762294333671546     
   7.1099999999999997E-002   -0.31910305528498895     
   7.1400000000000005E-002   -0.19160160100182722     
   7.1700000000000000E-002    -3.8891099788137727E-002
   7.1999999999999995E-002    0.13334066789241358     
   7.2300000000000003E-002    0.31761481689165838     
   7.2600000000000012E-002    0.50504349759948142     
   7.2900000000000006E-002    0.68567131884405230     
   7.3200000000000001E-002    0.84908609429664217     
   7.3499999999999996E-002    0.98504774598244105     
   7.3800000000000004E-002     1.0841438659819853     
   7.4099999999999999E-002     1.1385272642933801     
   7.4400000000000008E-002     1.1425192274600087     
   7.4700000000000003E-002     1.0930900512548691     
   7.5000000000000011E-002    0.99034374560841176     
   7.5299999999999992E-002    0.83763283320118942     
   7.5600000000000001E-002    0.64145457781151949     
   7.5900000000000009E-002    0.41126823644408261     
   7.6200000000000004E-002    0.15895194182017489     
   7.6499999999999999E-002   -0.10194185646041322     
   7.6800000000000007E-002   -0.35695808585110211     
   7.7099999999999988E-002   -0.59176343114618246     
   7.7399999999999997E-002   -0.79310231849921897     
   7.7700000000000005E-002   -0.94969123098452701     
   7.8000000000000014E-002    -1.0530570702715727     
   7.8299999999999995E-002    -1.0981670585098837     
   7.8600000000000003E-002    -1.0837613322784549     
   7.8900000000000012E-002    -1.0124725094917619     
   7.9199999999999993E-002   -0.89065861757048059     
   7.9500000000000001E-002   -0.72790515625715979     
   7.9800000000000010E-002   -0.53635734676128244     
   8.0100000000000018E-002   -0.32981828367058869     
   8.0399999999999999E-002   -0.12265720885222893     
   8.0700000000000008E-002     7.1180097058878428E-002
   8.1000000000000003E-002    0.23919797486994213     
   8.1299999999999997E-002    0.37143837347883013     
   8.1600000000000006E-002    0.46091877279367149     
   8.1900000000000014E-002    0.50422977236287891     
   8.2199999999999995E-002    0.50181870509467352     
   8.2500000000000004E-002    0.45755075349831359     
   8.2799999999999999E-002    0.37853108929127716     
   8.3100000000000007E-002    0.27442168496210417     
   8.3400000000000002E-002    0.15639410495445327     
   8.3700000000000011E-002     3.6393417971174423E-002
   8.4000000000000005E-002    -7.3960525185358436E-002
   8.4300000000000000E-002   -0.16435795400618267     
   8.4599999999999995E-002   -0.22643745466924864     
   8.4900000000000003E-002   -0.25444127835434105     
   8.5199999999999998E-002   -0.24556314921623437     
   8.5500000000000007E-002   -0.19994062009519489     
   8.5800000000000001E-002   -0.12051111979238457     
   8.6100000000000010E-002    -1.2596032782186996E-002
   8.6399999999999991E-002    0.11665868014618021     
   8.6699999999999999E-002    0.25901348626939574     
   8.7000000000000008E-002    0.40577054913425437     
   8.7300000000000003E-002    0.54842293767388994     
   8.7599999999999997E-002    0.67932069407571527     
   8.7900000000000006E-002    0.79194670645768561     
   8.8200000000000014E-002    0.88121383794955865     
   8.8499999999999995E-002    0.94357877153849368     
   8.8800000000000004E-002    0.97697078252278069     
   8.9100000000000013E-002    0.98077099597550521     
   8.9399999999999993E-002    0.95535831866414389     
   8.9700000000000002E-002    0.90199744185935349     
   9.0000000000000011E-002    0.82279175360242629     
   9.0299999999999991E-002    0.72024780771846664     
   9.0600000000000000E-002    0.59727240316796049     
   9.0900000000000009E-002    0.45732481423804949     
   9.1200000000000017E-002    0.30401356535730428     
   9.1499999999999998E-002    0.14128038583237085     
   9.1800000000000007E-002    -2.6599762169073487E-002
   9.2100000000000001E-002   -0.19520686097818868     
   9.2399999999999996E-002   -0.35999498920257234     
   9.2700000000000005E-002   -0.51661972623294072     
   9.3000000000000013E-002   -0.66106073859246639     
   9.3300000000000008E-002   -0.78990118975919987     
   9.3600000000000003E-002   -0.90063524050190502     
   9.3899999999999997E-002   -0.99162429922139006     
   9.4200000000000006E-002    -1.0624742596352925     
   9.4500000000000001E-002    -1.1138672965940262     
   9.4800000000000009E-002    -1.1473236264055322     
   9.5100000000000004E-002    -1.1652671313749199     
   9.5399999999999999E-002    -1.1704089883170965     
   9.5699999999999993E-002    -1.1653883717592659     
   9.6000000000000002E-002    -1.1526037726561378     
   9.6300000000000011E-002    -1.1336682120090773     
   9.6600000000000005E-002    -1.1091858426328574     
   9.6900000000000000E-002    -1.0787120139616380     
   9.7200000000000009E-002    -1.0407476692135833     
   9.7499999999999989E-002   -0.99287190616478549     
   9.7799999999999998E-002   -0.93218370710252973     
   9.8100000000000007E-002   -0.85573204594943764     
   9.8400000000000015E-002   -0.76088126483770480     
   9.8699999999999996E-002   -0.64598770596323041     
   9.9000000000000005E-002   -0.51074911408456025     
   9.9300000000000013E-002   -0.35643328000271818     
   9.9599999999999994E-002   -0.18622856050476311     
   9.9900000000000003E-002    -5.1672426693407979E-003
  0.10020000000000001         0.18026829839504666     
  0.10049999999999999         0.36237760143568215     
  0.10080000000000000         0.53281625519005726     
  0.10110000000000001         0.68326255681705850     
  0.10140000000000000         0.80619797602262155     
  0.10170000000000000         0.89544300091923068     
  0.10200000000000001         0.94674084632727340     
  0.10230000000000002         0.95828888878046892     
  0.10260000000000000         0.93090126804299600     
  0.10290000000000001         0.86801824505815306     
  0.10320000000000000         0.77561363589139365     
  0.10350000000000001         0.66174163766437544     
  0.10380000000000000         0.53609313149973792     
  0.10410000000000001         0.40919835120247033     
  0.10440000000000001         0.29168268942875042     
  0.10470000000000000         0.19356157469902782     
  0.10500000000000000         0.12345057571460927     
  0.10530000000000000          8.7832040696786726E-002
  0.10560000000000000          9.0561913644918363E-002
  0.10590000000000001         0.13265252003045469     
  0.10620000000000000         0.21206304161430103     
  0.10650000000000001         0.32373064504295607     
  0.10679999999999999         0.46011829310128161     
  0.10710000000000000         0.61169734863893299     
  0.10740000000000001         0.76736400262812321     
  0.10770000000000000         0.91563562858396041     
  0.10800000000000000          1.0453534022181661     
  0.10830000000000001          1.1462856495520184     
  0.10859999999999999          1.2101082835445753     
  0.10890000000000000          1.2306163411599731     
  0.10920000000000001          1.2040476962126494     
  0.10950000000000001          1.1295281866366660     
  0.10979999999999999          1.0085190796919505     
  0.11009999999999999         0.84473553271188195     
  0.11040000000000001         0.64387485547967849     
  0.11070000000000001         0.41300153942752060     
  0.11100000000000000         0.16037564085221570     
  0.11130000000000000        -0.10507883281356470     
  0.11160000000000002        -0.37405568902906672     
  0.11190000000000001        -0.63671986332049180     
  0.11220000000000001        -0.88344077960348055     
  0.11250000000000000         -1.1045998273956044     
  0.11280000000000000         -1.2906645547833584     
  0.11309999999999999         -1.4330312096017610     
  0.11340000000000001         -1.5239102988328954     
  0.11369999999999998         -1.5569998230280335     
  0.11400000000000000         -1.5284719714137336     
  0.11430000000000000         -1.4369471346721188     
  0.11460000000000002         -1.2844461485354464     
  0.11489999999999999         -1.0769099270241482     
  0.11520000000000001        -0.82388862448987710     
  0.11550000000000001        -0.53851892612573737     
  0.11580000000000000        -0.23718962105352828     
  0.11609999999999999          6.1694456279595036E-002
  0.11640000000000002         0.33888885053680368     
  0.11670000000000001         0.57560211662864036     
  0.11700000000000001         0.75514615308484323     
  0.11730000000000000         0.86445630680847474     
  0.11760000000000000         0.89510746107093109     
  0.11789999999999999         0.84443701667164273     
  0.11820000000000001         0.71599627794809761     
  0.11850000000000001         0.51919854710236091     
  0.11880000000000000         0.26897103289324409     
  0.11910000000000000         -1.5298345805501929E-002
  0.11940000000000002        -0.31163162090155627     
  0.11970000000000001        -0.59690493814058143     
  0.12000000000000001        -0.84882510483871032     
  0.12030000000000000         -1.0478077033299704     
  0.12060000000000000         -1.1783869374826572     
  0.12089999999999999         -1.2307078944777543     
  0.12119999999999999         -1.2010510061416593     
  0.12150000000000001         -1.0919233632855050     
  0.12180000000000001        -0.91188908074900954     
  0.12210000000000000        -0.67465233953437909     
  0.12239999999999999        -0.39765536641709870     
  0.12270000000000002        -0.10065134216315663     
  0.12300000000000001         0.19599182003466231     
  0.12330000000000001         0.47299296363792698     
  0.12360000000000000         0.71362865689936905     
  0.12390000000000000         0.90485400607622890     
  0.12419999999999999          1.0380359937286654     
  0.12450000000000001          1.1094054011202439     
  0.12480000000000001          1.1200474502082276     
  0.12509999999999999          1.0751833889415234     
  0.12540000000000001         0.98347615669667499     
  0.12570000000000003         0.85613899674585059     
  0.12600000000000000         0.70575647636707683     
  0.12630000000000002         0.54491632192384554     
  0.12659999999999999         0.38550808061608971     
  0.12690000000000001         0.23771665145053847     
  0.12719999999999998         0.10931158182984771     
  0.12750000000000000          5.5654733108477725E-003
  0.12780000000000002         -7.1010440267933128E-002
  0.12809999999999999        -0.12036829010453434     
  0.12840000000000001        -0.14445576729436913     
  0.12869999999999998        -0.14691260739690643     
  0.12900000000000000        -0.13213334942729305     
  0.12930000000000003        -0.10464667268028487     
  0.12959999999999999         -6.8947117655608334E-002
  0.12990000000000002         -2.8549995069917983E-002
  0.13019999999999998          1.4122428359193678E-002
  0.13050000000000000          5.7411265219407370E-002
  0.13080000000000003         0.10085130232641315     
  0.13109999999999999         0.14452455313038398     
  0.13140000000000002         0.18854359254628264     
  0.13169999999999998         0.23286880609571928     
  0.13200000000000001         0.27644848506414132     
  0.13229999999999997         0.31705962980573765     
  0.13260000000000000         0.35113134108755328     
  0.13290000000000002         0.37338777354707775     
  0.13319999999999999         0.37746425380478804     
  0.13350000000000001         0.35625760683009611     
  0.13380000000000003         0.30242102360709600     
  0.13410000000000000         0.20947720758539415     
  0.13440000000000002          7.2738856704468766E-002
  0.13469999999999999        -0.10988551897522104     
  0.13500000000000001        -0.33689698954957420     
  0.13529999999999998        -0.60285026106936435     
  0.13560000000000000        -0.89788699363782176     
  0.13590000000000002         -1.2078408024143636     
  0.13619999999999999         -1.5148369100653920     
  0.13650000000000001         -1.7981175221610652     
  0.13680000000000003         -2.0354256682045069     
  0.13710000000000000         -2.2045431206850630     
  0.13740000000000002         -2.2851829617142552     
  0.13769999999999999         -2.2606937991337483     
  0.13800000000000001         -2.1198592307103628     
  0.13829999999999998         -1.8583927286113171     
  0.13860000000000000         -1.4798033373478447     
  0.13890000000000002        -0.99601019760501575     
  0.13919999999999999        -0.42716811322781856     
  0.13950000000000001         0.19961713725520341     
  0.13979999999999998         0.85128789397253457     
  0.14010000000000000          1.4912664850633790     
  0.14040000000000002          2.0822138785802098     
  0.14069999999999999          2.5883543532937798     
  0.14100000000000001          2.9786081397579336     
  0.14130000000000004          3.2289381149040395     
  0.14160000000000000          3.3241284048172188     
  0.14189999999999997          3.2595722853944227     
  0.14219999999999999          3.0412473871419610     
  0.14250000000000002          2.6856839853273082     
  0.14279999999999998          2.2187276075626228     
  0.14310000000000000          1.6731856042260114     
  0.14339999999999997          1.0868673474717574     
  0.14369999999999999         0.49960805217968729     
  0.14400000000000002         -4.9937644614402761E-002
  0.14429999999999998        -0.52654861667113728     
  0.14460000000000001        -0.90108715914999804     
  0.14490000000000003         -1.1524212309557873     
  0.14520000000000000         -1.2682797853366701     
  0.14550000000000002         -1.2459658312644424     
  0.14579999999999999         -1.0921394725725169     
  0.14610000000000001        -0.82196943595377647     
  0.14640000000000003        -0.45813037164675957     
  0.14670000000000000         -2.8914922943502008E-002
  0.14699999999999996         0.43364855310849892     
  0.14729999999999999         0.89551326642257123     
  0.14760000000000001          1.3226427162136820     
  0.14789999999999998          1.6830683084334119     
  0.14820000000000000          1.9483489116249084     