  -1.4999999999999999E-002     0.0000000000000000     
  -1.4700000000000000E-002     0.0000000000000000     
  -1.4400000000000000E-002     0.0000000000000000     
  -1.4100000000000000E-002     0.0000000000000000     
  -1.3800000000000000E-002     0.0000000000000000     
  -1.3500000000000000E-002     0.0000000000000000     
  -1.3200000000000000E-002     0.0000000000000000     
  -1.2899999999999998E-002     0.0000000000000000     
  -1.2600000000000000E-002     0.0000000000000000     
  -1.2299999999999998E-002     0.0000000000000000     
  -1.2000000000000000E-002     0.0000000000000000     
  -1.1699999999999999E-002     0.0000000000000000     
  -1.1399999999999999E-002     0.0000000000000000     
  -1.1099999999999999E-002     0.0000000000000000     
  -1.0799999999999999E-002     0.0000000000000000     
  -1.0499999999999999E-002     0.0000000000000000     
  -1.0199999999999999E-002     0.0000000000000000     
  -9.8999999999999991E-003     0.0000000000000000     
  -9.5999999999999992E-003     0.0000000000000000     
  -9.2999999999999992E-003     0.0000000000000000     
  -8.9999999999999993E-003     0.0000000000000000     
  -8.6999999999999994E-003     0.0000000000000000     
  -8.3999999999999995E-003     0.0000000000000000     
  -8.0999999999999996E-003     0.0000000000000000     
  -7.7999999999999988E-003     0.0000000000000000     
  -7.4999999999999997E-003     0.0000000000000000     
  -7.1999999999999998E-003     0.0000000000000000     
  -6.8999999999999981E-003     0.0000000000000000     
  -6.5999999999999982E-003     0.0000000000000000     
  -6.3000000000000000E-003     0.0000000000000000     
  -6.0000000000000001E-003     0.0000000000000000     
  -5.6999999999999985E-003     0.0000000000000000     
  -5.3999999999999986E-003     0.0000000000000000     
  -5.1000000000000004E-003     0.0000000000000000     
  -4.7999999999999987E-003     0.0000000000000000     
  -4.5000000000000005E-003     0.0000000000000000     
  -4.1999999999999989E-003     0.0000000000000000     
  -3.8999999999999990E-003     0.0000000000000000     
  -3.5999999999999990E-003     0.0000000000000000     
  -3.2999999999999991E-003     0.0000000000000000     
  -2.9999999999999992E-003     0.0000000000000000     
  -2.6999999999999993E-003     0.0000000000000000     
  -2.3999999999999994E-003     0.0000000000000000     
  -2.0999999999999977E-003     0.0000000000000000     
  -1.7999999999999995E-003     0.0000000000000000     
  -1.4999999999999979E-003     0.0000000000000000     
  -1.1999999999999997E-003     0.0000000000000000     
  -8.9999999999999976E-004     0.0000000000000000     
  -5.9999999999999810E-004     0.0000000000000000     
  -2.9999999999999992E-004     0.0000000000000000     
   0.0000000000000000          0.0000000000000000     
   3.0000000000000165E-004     0.0000000000000000     
   5.9999999999999984E-004     0.0000000000000000     
   9.0000000000000149E-004     0.0000000000000000     
   1.2000000000000031E-003     0.0000000000000000     
   1.5000000000000013E-003     0.0000000000000000     
   1.8000000000000030E-003     0.0000000000000000     
   2.1000000000000012E-003     0.0000000000000000     
   2.3999999999999994E-003     0.0000000000000000     
   2.7000000000000010E-003     0.0000000000000000     
   2.9999999999999992E-003     0.0000000000000000     
   3.3000000000000008E-003     0.0000000000000000     
   3.6000000000000025E-003     0.0000000000000000     
   3.9000000000000007E-003     0.0000000000000000     
   4.2000000000000023E-003     0.0000000000000000     
   4.5000000000000005E-003     0.0000000000000000     
   4.7999999999999987E-003     0.0000000000000000     
   5.1000000000000004E-003     0.0000000000000000     
   5.4000000000000020E-003     0.0000000000000000     
   5.7000000000000037E-003     0.0000000000000000     
   5.9999999999999984E-003     0.0000000000000000     
   6.3000000000000000E-003     0.0000000000000000     
   6.6000000000000017E-003     0.0000000000000000     
   6.9000000000000034E-003     0.0000000000000000     
   7.2000000000000015E-003     0.0000000000000000     
   7.5000000000000032E-003     0.0000000000000000     
   7.8000000000000014E-003     0.0000000000000000     
   8.0999999999999996E-003     0.0000000000000000     
   8.4000000000000012E-003     0.0000000000000000     
   8.7000000000000029E-003     0.0000000000000000     
   9.0000000000000011E-003     0.0000000000000000     
   9.2999999999999992E-003     0.0000000000000000     
   9.6000000000000009E-003     0.0000000000000000     
   9.8999999999999991E-003     0.0000000000000000     
   1.0200000000000001E-002     0.0000000000000000     
   1.0500000000000002E-002     0.0000000000000000     
   1.0800000000000004E-002     0.0000000000000000     
   1.1099999999999999E-002     0.0000000000000000     
   1.1400000000000000E-002     0.0000000000000000     
   1.1700000000000002E-002     0.0000000000000000     
   1.2000000000000004E-002     0.0000000000000000     
   1.2300000000000002E-002     0.0000000000000000     
   1.2600000000000000E-002     0.0000000000000000     
   1.2900000000000002E-002     0.0000000000000000     
   1.3200000000000000E-002     0.0000000000000000     
   1.3500000000000002E-002     0.0000000000000000     
   1.3800000000000003E-002     0.0000000000000000     
   1.4100000000000001E-002     0.0000000000000000     
   1.4400000000000000E-002     0.0000000000000000     
   1.4700000000000001E-002     0.0000000000000000     
   1.4999999999999999E-002     0.0000000000000000     
   1.5300000000000001E-002     0.0000000000000000     
   1.5600000000000003E-002     0.0000000000000000     
   1.5899999999999997E-002     0.0000000000000000     
   1.6199999999999999E-002     0.0000000000000000     
   1.6500000000000001E-002     0.0000000000000000     
   1.6800000000000002E-002     0.0000000000000000     
   1.7100000000000004E-002     0.0000000000000000     
   1.7400000000000006E-002     0.0000000000000000     
   1.7700000000000000E-002     0.0000000000000000     
   1.8000000000000002E-002     0.0000000000000000     
   1.8300000000000004E-002     0.0000000000000000     
   1.8600000000000005E-002     0.0000000000000000     
   1.8900000000000000E-002     0.0000000000000000     
   1.9200000000000002E-002     0.0000000000000000     
   1.9500000000000003E-002     0.0000000000000000     
   1.9799999999999998E-002     0.0000000000000000     
   2.0100000000000000E-002     0.0000000000000000     
   2.0400000000000001E-002     0.0000000000000000     
   2.0700000000000003E-002     0.0000000000000000     
   2.0999999999999998E-002     0.0000000000000000     
   2.1299999999999999E-002     0.0000000000000000     
   2.1600000000000001E-002     0.0000000000000000     
   2.1900000000000003E-002     0.0000000000000000     
   2.2200000000000004E-002     0.0000000000000000     
   2.2500000000000006E-002     0.0000000000000000     
   2.2800000000000001E-002     0.0000000000000000     
   2.3100000000000002E-002     0.0000000000000000     
   2.3400000000000004E-002     0.0000000000000000     
   2.3699999999999999E-002     0.0000000000000000     
   2.4000000000000000E-002     0.0000000000000000     
   2.4300000000000002E-002     0.0000000000000000     
   2.4599999999999997E-002     0.0000000000000000     
   2.4900000000000005E-002     0.0000000000000000     
   2.5200000000000000E-002     0.0000000000000000     
   2.5499999999999995E-002     0.0000000000000000     
   2.5800000000000003E-002     0.0000000000000000     
   2.6099999999999998E-002     0.0000000000000000     
   2.6400000000000007E-002     0.0000000000000000     
   2.6700000000000002E-002     0.0000000000000000     
   2.6999999999999996E-002     0.0000000000000000     
   2.7300000000000005E-002     0.0000000000000000     
   2.7600000000000000E-002    -1.4486378130668830E-058
   2.7900000000000008E-002     5.3963507412750044E-058
   2.8200000000000003E-002    -3.9012534403430815E-044
   2.8499999999999998E-002    -1.7970995465446493E-043
   2.8800000000000006E-002     7.1617314226886377E-043
   2.9100000000000001E-002    -4.6500781313446366E-042
   2.9400000000000003E-002    -1.7759499406736938E-035
   2.9700000000000004E-002    -8.6926686740233800E-035
   3.0000000000000006E-002     3.0544764270248876E-034
   3.0300000000000001E-002    -3.0374347584151515E-033
   3.0600000000000002E-002     1.3548699325109581E-032
   3.0900000000000004E-002    -3.9695655500424704E-032
   3.1199999999999999E-002     7.7757505187761690E-032
   3.1500000000000007E-002    -4.4763076201101987E-032
   3.1800000000000002E-002    -4.1152507715978894E-031
   3.2099999999999997E-002     2.3691062318171768E-030
   3.2400000000000005E-002    -9.2849067027142689E-030
   3.2700000000000000E-002     3.5765760467318644E-029
   3.3000000000000002E-002    -1.4873495539996451E-028
   3.3300000000000003E-002     6.0697643471980161E-028
   3.3599999999999998E-002    -2.1395511197161422E-027
   3.3900000000000000E-002     5.8144601184691518E-027
   3.4200000000000001E-002    -9.4231585016568832E-027
   3.4500000000000003E-002    -8.3780311472863386E-027
   3.4799999999999998E-002     1.2655775369504894E-025
   3.5099999999999999E-002    -5.1205103142460337E-025
   3.5400000000000001E-002     1.2398395724363819E-024
   3.5699999999999996E-002    -1.3882192100575968E-024
   3.6000000000000004E-002    -2.9146384404580437E-024
   3.6299999999999999E-002     1.8778761899232489E-023
   3.6600000000000008E-002    -4.3359319210392657E-023
   3.6900000000000002E-002     1.6803815329786954E-023
   3.7199999999999997E-002     2.4052473862715991E-022
   3.7500000000000006E-002    -8.9322304985237713E-022
   3.7800000000000000E-002     1.1628039893048803E-021
   3.8100000000000009E-002     2.8617188906499693E-021
   3.8400000000000004E-002    -1.8940877430069824E-020
   3.8699999999999998E-002     4.5422398217319116E-020
   3.9000000000000007E-002    -2.2209986691460663E-020
   3.9300000000000002E-002    -2.3644187571086900E-019
   3.9600000000000003E-002     9.1977906184597347E-019
   3.9900000000000005E-002    -1.3915363345089771E-018
   4.0200000000000000E-002    -1.4776695177790294E-018
   4.0500000000000001E-002     1.2715986005739633E-017
   4.0800000000000003E-002    -2.6874305547112685E-017
   4.1100000000000005E-002    -1.3907080867485606E-018
   4.1399999999999999E-002     1.5581466787902359E-016
   4.1700000000000008E-002    -3.7343616103974171E-016
   4.2000000000000003E-002     1.4465388130822304E-017
   4.2299999999999997E-002     2.0015172177700428E-015
   4.2600000000000006E-002    -4.3372063299613040E-015
   4.2900000000000001E-002    -1.9059338163413494E-015
   4.3200000000000002E-002     2.6709802069008130E-014
   4.3500000000000004E-002    -3.9140810185613465E-014
   4.3799999999999999E-002    -7.1007846454493099E-014
   4.4100000000000000E-002     3.2023709288697541E-013
   4.4400000000000002E-002    -1.3783634865212965E-013
   4.4700000000000004E-002    -1.4185869755441742E-012
   4.4999999999999998E-002     2.6453457232802380E-012
   4.5300000000000000E-002     3.6075838209727149E-012
   4.5600000000000002E-002    -1.7142297089402155E-011
   4.5899999999999996E-002     1.3017910976282790E-012
   4.6200000000000005E-002     7.9569427383769646E-011
   4.6500000000000000E-002    -7.5862794579206723E-011
   4.6799999999999994E-002    -3.0453902801561262E-010
   4.7100000000000003E-002     5.4181989808547410E-010
   4.7399999999999998E-002     1.0447657300201761E-009
   4.7700000000000006E-002    -2.8002080833131019E-009
   4.8000000000000001E-002    -3.5502183347828968E-009
   4.8300000000000010E-002     1.2424363639508303E-008
   4.8600000000000004E-002     1.3653532615890298E-008
   4.8899999999999999E-002    -4.9979742986219352E-008
   4.9200000000000008E-002    -6.6412169571818764E-008
   4.9500000000000002E-002     1.6568435184397052E-007
   4.9800000000000011E-002     3.1605150256732919E-007
   5.0100000000000006E-002    -4.6461069950212629E-007
   5.0400000000000000E-002    -1.4953622685430024E-006
   5.0700000000000009E-002     1.3203689453113854E-006
   5.1000000000000004E-002     1.2636793837607830E-005
   5.1299999999999998E-002     3.1525891498714247E-005
   5.1600000000000007E-002     5.1331590648822448E-005
   5.1900000000000002E-002     6.9230853769198961E-005
   5.2200000000000010E-002     9.4359886472829572E-005
   5.2500000000000005E-002     1.4277779027568107E-004
   5.2800000000000000E-002     2.2571359443325682E-004
   5.3099999999999994E-002     3.4790236065159158E-004
   5.3400000000000003E-002     5.1898241860277546E-004
   5.3699999999999998E-002     7.6307449952714586E-004
   5.4000000000000006E-002     1.1147526161427897E-003
   5.4300000000000001E-002     1.6086496285983621E-003
   5.4599999999999996E-002     2.2792718526977152E-003
   5.4900000000000004E-002     3.1728781968224334E-003
   5.5199999999999999E-002     4.3523428310771233E-003
   5.5499999999999994E-002     5.8821193325970271E-003
   5.5800000000000002E-002     7.8095878060784009E-003
   5.6099999999999997E-002     1.0164798304731732E-002
   5.6400000000000006E-002     1.2963670391457769E-002
   5.6700000000000000E-002     1.6189750391120868E-002
   5.6999999999999995E-002     1.9758230206908430E-002
   5.7300000000000004E-002     2.3497535072361023E-002
   5.7599999999999998E-002     2.7138207288569950E-002
   5.7900000000000007E-002     3.0291596630239698E-002
   5.8200000000000002E-002     3.2419145325556419E-002
   5.8499999999999996E-002     3.2829988969425315E-002
   5.8800000000000005E-002     3.0704843087365066E-002
   5.9100000000000000E-002     2.5120468979665234E-002
   5.9400000000000008E-002     1.5086907064593943E-002
   5.9700000000000003E-002    -3.6868593010678402E-004
   6.0000000000000012E-002    -2.2081617418110121E-002
   6.0300000000000006E-002    -5.0598513685838363E-002
   6.0600000000000001E-002    -8.6045101882486000E-002
   6.0900000000000010E-002   -0.12796032517956055     
   6.1200000000000004E-002   -0.17515388253742781     
   6.1500000000000013E-002   -0.22556023458454103     
   6.1800000000000008E-002   -0.27619359092561929     
   6.2100000000000002E-002   -0.32316699853827635     
   6.2399999999999997E-002   -0.36181330939505418     
   6.2700000000000006E-002   -0.38687545339440904     
   6.3000000000000000E-002   -0.39284208701604151     
   6.3300000000000009E-002   -0.37441173469299110     
   6.3600000000000004E-002   -0.32701200488333154     
   6.3899999999999998E-002   -0.24733561463383508     
   6.4199999999999993E-002   -0.13385549293264110     
   6.4500000000000002E-002     1.2680219485116479E-002
   6.4800000000000010E-002    0.18888688215405186     
   6.5100000000000005E-002    0.38860672986768530     
   6.5400000000000000E-002    0.60300487712864459     
   6.5700000000000008E-002    0.82087934613285851     
   6.5999999999999989E-002     1.0292428807255780     
   6.6299999999999998E-002     1.2140805810808935     
   6.6600000000000006E-002     1.3613891702573806     
   6.6900000000000001E-002     1.4581743587699876     
   6.7199999999999996E-002     1.4935765378682047     
   6.7500000000000004E-002     1.4597621074580354     
   6.7800000000000013E-002     1.3528039558675611     
   6.8099999999999994E-002     1.1731191964028280     
   6.8400000000000002E-002    0.92570299634652031     
   6.8700000000000011E-002    0.61994922660197271     
   6.8999999999999992E-002    0.26922175524658176     
   6.9300000000000000E-002   -0.11004971016899245     
   6.9600000000000009E-002   -0.49923435200126409     
   6.9900000000000004E-002   -0.87891334933509535     
   7.0199999999999999E-002    -1.2298661561742936     
   7.0500000000000007E-002    -1.5345820303919970     
   7.0800000000000016E-002    -1.7779607908072137     
   7.1099999999999997E-002    -1.9485807568358948     
   7.1400000000000005E-002    -2.0389480748800004     
   7.1700000000000000E-002    -2.0461721580211347     
   7.1999999999999995E-002    -1.9717352545904825     
   7.2300000000000003E-002    -1.8214817192351769     
   7.2600000000000012E-002    -1.6049529443541772     
   7.2900000000000006E-002    -1.3348502029930887     
   7.3200000000000001E-002    -1.0261496390931562     
   7.3499999999999996E-002   -0.69523198008397424     
   7.3800000000000004E-002   -0.35899326531750225     
   7.4099999999999999E-002    -3.3768572535844803E-002
   7.4400000000000008E-002    0.26530519315696166     
   7.4700000000000003E-002    0.52521008662078794     
   7.5000000000000011E-002    0.73541796803019621     
   7.5299999999999992E-002    0.88861764213441774     
   7.5600000000000001E-002    0.98061163063960810     
   7.5900000000000009E-002     1.0106924859420401     
   7.6200000000000004E-002    0.98114992053553030     
   7.6499999999999999E-002    0.89745105121163304     
   7.6800000000000007E-002    0.76733208415960641     
   7.7099999999999988E-002    0.60084200485202643     
   7.7399999999999997E-002    0.40919784136098691     
   7.7700000000000005E-002    0.20478634785938649     
   7.8000000000000014E-002    -7.2849940902140563E-006
   7.8299999999999995E-002   -0.19280254940408906     
   7.8600000000000003E-002   -0.36229393138852845     
   7.8900000000000012E-002   -0.49814960744859588     
   7.9199999999999993E-002   -0.59201211214804084     
   7.9500000000000001E-002   -0.63728744326284936     
   7.9800000000000010E-002   -0.63002408093602491     
   8.0100000000000018E-002   -0.56863546879697258     
   8.0399999999999999E-002   -0.45454010791553145     
   8.0700000000000008E-002   -0.29186412992085176     
   8.1000000000000003E-002    -8.7766350686419456E-002
   8.1299999999999997E-002    0.14808638445365699     
   8.1600000000000006E-002    0.40354088209319411     
   8.1900000000000014E-002    0.66470921511884462     
   8.2199999999999995E-002    0.91632611238638140     
   8.2500000000000004E-002     1.1429526892093735     
   8.2799999999999999E-002     1.3296209675182062     
   8.3100000000000007E-002     1.4630837552503959     
   8.3400000000000002E-002     1.5325242398435912     
   8.3700000000000011E-002     1.5307443258822218     
   8.4000000000000005E-002     1.4547010770625970     
   8.4300000000000000E-002     1.3061595061151616     
   8.4599999999999995E-002     1.0916613420974985     
   8.4900000000000003E-002    0.82250273815934571     
   8.5199999999999998E-002    0.51403773172545986     
   8.5500000000000007E-002    0.18486550530915641     
   8.5800000000000001E-002   -0.14442214547550300     
   8.6100000000000010E-002   -0.45271447718631525     
   8.6399999999999991E-002   -0.71996981528731785     
   8.6699999999999999E-002   -0.92868525570741112     
   8.7000000000000008E-002    -1.0653412430270706     
   8.7300000000000003E-002    -1.1216808649376240     
   8.7599999999999997E-002    -1.0952627748156460     
   8.7900000000000006E-002   -0.99000347465736760     
   8.8200000000000014E-002   -0.81575501630286218     
   8.8499999999999995E-002   -0.58789927250341290     
   8.8800000000000004E-002   -0.32591620363555074     
   8.9100000000000013E-002    -5.2026525725094468E-002
   8.9399999999999993E-002    0.21070535632305118     
   8.9700000000000002E-002    0.44010746815866075     
   9.0000000000000011E-002    0.61679667719187758     
   9.0299999999999991E-002    0.72576541290264007     
   9.0600000000000000E-002    0.75740701584050141     
   9.0900000000000009E-002    0.70845884687734406     
   9.1200000000000017E-002    0.58183974554833728     
   9.1499999999999998E-002    0.38662505545979675     
   9.1800000000000007E-002    0.13666041421937666     
   9.2100000000000001E-002   -0.15013033130207576     
   9.2399999999999996E-002   -0.45396954015293056     
   9.2700000000000005E-002   -0.75418216406678396     
   9.3000000000000013E-002    -1.0316242041608552     
   9.3300000000000008E-002    -1.2691534838107632     
   9.3600000000000003E-002    -1.4536084031408882     
   9.3899999999999997E-002    -1.5754760609112690     
   9.4200000000000006E-002    -1.6301711908223095     
   9.4500000000000001E-002    -1.6167444102223032     
   9.4800000000000009E-002    -1.5384107935232065     
   9.5100000000000004E-002    -1.4006967643480759     
   9.5399999999999999E-002    -1.2115980473051988     
   9.5699999999999993E-002   -0.97977013105348587     
   9.6000000000000002E-002   -0.71457970668333937     
   9.6300000000000011E-002   -0.42488780943948995     
   9.6600000000000005E-002   -0.11934287957136099     
   9.6900000000000000E-002    0.19415988135936577     
   9.7200000000000009E-002    0.50791490407429307     
   9.7499999999999989E-002    0.81451601334170687     
   9.7799999999999998E-002     1.1061967686151588     
   9.8100000000000007E-002     1.3748031948197066     
   9.8400000000000015E-002     1.6116020789225005     
   9.8699999999999996E-002     1.8072366837766354     
   9.9000000000000005E-002     1.9524659051094495     
   9.9300000000000013E-002     2.0382595200704525     
   9.9599999999999994E-002     2.0570652623926908     
   9.9900000000000003E-002     2.0028879777686011     
  0.10020000000000001          1.8729857331800839     
  0.10049999999999999          1.6677401177302333     
  0.10080000000000000          1.3920668455558542     
  0.10110000000000001          1.0544403860749447     
  0.10140000000000000         0.66794735618349721     
  0.10170000000000000         0.24855008867296968     
  0.10200000000000001        -0.18450603039751515     
  0.10230000000000002        -0.61115998463118126     
  0.10260000000000000         -1.0105249952451356     
  0.10290000000000001         -1.3633802031185425     
  0.10320000000000000         -1.6523317212717792     
  0.10350000000000001         -1.8640315661097180     
  0.10380000000000000         -1.9889246363217175     
  0.10410000000000001         -2.0227446696821416     
  0.10440000000000001         -1.9657269854757471     
  0.10470000000000000         -1.8232864271538747     
  0.10500000000000000         -1.6046422837298686     
  0.10530000000000000         -1.3228858809187642     
  0.10560000000000000        -0.99331165155490020     
  0.10590000000000001        -0.63295543759543549     
  0.10620000000000000        -0.25908878771100380     
  0.10650000000000001         0.11128246704941436     
  0.10679999999999999         0.46254375735544639     
  0.10710000000000000         0.78088701155610374     
  0.10740000000000001          1.0549579917504379     
  0.10770000000000000          1.2759227829071875     
  0.10800000000000000          1.4376365037179437     
  0.10830000000000001          1.5365815264223261     
  0.10859999999999999          1.5717352737233015     
  0.10890000000000000          1.5444443337346387     
  0.10920000000000001          1.4580981841934899     
  0.10950000000000001          1.3181337223672172     
  0.10979999999999999          1.1316920616005730     
  0.11009999999999999         0.90763134617626906     
  0.11040000000000001         0.65602547641660536     
  0.11070000000000001         0.38833693215000659     
  0.11100000000000000         0.11666729671914940     
  0.11130000000000000        -0.14625407567375373     
  0.11160000000000002        -0.38815826163869743     
  0.11190000000000001        -0.59720903788543289     
  0.11220000000000001        -0.76332313117686279     
  0.11250000000000000        -0.87835961996012635     
  0.11280000000000000        -0.93746579193442914     
  0.11309999999999999        -0.93878931364216978     
  0.11340000000000001        -0.88460535384955052     
  0.11369999999999998        -0.78058088390457536     
  0.11400000000000000        -0.63637280985363542     
  0.11430000000000000        -0.46409038170999112     
  0.11460000000000002        -0.27835294984153841     
  0.11489999999999999         -9.4212341290738327E-002
  0.11520000000000001          7.3167515729186589E-002
  0.11550000000000001         0.21079139284713644     
  0.11580000000000000         0.30813097899765468     
  0.11609999999999999         0.35888522861253952     
  0.11640000000000002         0.36074438727723351     
  0.11670000000000001         0.31633183413526111     
  0.11700000000000001         0.23226544318542044     
  0.11730000000000000         0.11888461606253473     
  0.11760000000000000         -1.1219228349159680E-002
  0.11789999999999999        -0.14425195751103817     
  0.11820000000000001        -0.26683536194219415     
  0.11850000000000001        -0.36732211752008687     
  0.11880000000000000        -0.43692946494500351     
  0.11910000000000000        -0.47068381379699759     
  0.11940000000000002        -0.46755811647997969     
  0.11970000000000001        -0.43075975851082710     
  0.12000000000000001        -0.36678367930815853     
  0.12030000000000000        -0.28490510661291668     
  0.12060000000000000        -0.19564251690100282     
  0.12089999999999999        -0.11016354810821992     
  0.12119999999999999         -3.8274825901028792E-002
  0.12150000000000001          1.1869414984244733E-002
  0.12180000000000001          3.5289307892545939E-002
  0.12210000000000000          2.9778826387589472E-002
  0.12239999999999999         -3.1529943762633929E-003
  0.12270000000000002         -5.9361733148960691E-002
  0.12300000000000001        -0.13180899997046927     
  0.12330000000000001        -0.21212044758340567     
  0.12360000000000000        -0.29072770887582061     
  0.12390000000000000        -0.35838547749466992     
  0.12419999999999999        -0.40655833855535051     
  0.12450000000000001        -0.42856431330657430     
  0.12480000000000001        -0.41970777768205220     
  0.12509999999999999        -0.37799191646927205     
  0.12540000000000001        -0.30402955489416522     
  0.12570000000000003        -0.20118395955375815     
  0.12600000000000000         -7.5105904172831514E-002
  0.12630000000000002          6.6456290516047040E-002
  0.12659999999999999         0.21441762488535995     
  0.12690000000000001         0.35891160793023386     
  0.12719999999999998         0.49005789055854032     
  0.12750000000000000         0.59870487988249466     
  0.12780000000000002         0.67709643207550507     
  0.12809999999999999         0.71954739647348920     
  0.12840000000000001         0.72279435920564949     
  0.12869999999999998         0.68648392430723881     
  0.12900000000000000         0.61299670135204343     
  0.12930000000000003         0.50751442014707882     
  0.12959999999999999         0.37741619540193050     
  0.12990000000000002         0.23187095004341138     
  0.13019999999999998          8.0950282161441636E-002
  0.13050000000000000         -6.4904698675797082E-002
  0.13080000000000003        -0.19598649679023522     
  0.13109999999999999        -0.30377257184274153     
  0.13140000000000002        -0.38174206384501630     
  0.13169999999999998        -0.42544728911180624     
  0.13200000000000001        -0.43303916247224650     
  0.13229999999999997        -0.40494335054218655     
  0.13260000000000000        -0.34397888474164456     
  0.13290000000000002        -0.25460964640543926     
  0.13319999999999999        -0.14288599867873211     
  0.13350000000000001         -1.5592695548251708E-002
  0.13380000000000003         0.11983701803157733     
  0.13410000000000000         0.25606254122001015     
  0.13440000000000002         0.38590670174163988     
  0.13469999999999999         0.50290519692449775     
  0.13500000000000001         0.60127402178957301     
  0.13529999999999998         0.67621780369791618     
  0.13560000000000000         0.72390050687020546     
  0.13590000000000002         0.74178106596880578     
  0.13619999999999999         0.72851414454297103     
  0.13650000000000001         0.68426913891089403     
  0.13680000000000003         0.61063081742276193     
  0.13710000000000000         0.51089180025693381     
  0.13740000000000002         0.38972005511670565     
  0.13769999999999999         0.25323376043377488     
  0.13800000000000001         0.10850517144134403     
  0.13829999999999998         -3.6467167012160087E-002
  0.13860000000000000        -0.17366924253936511     
  0.13890000000000002        -0.29529450430808901     
  0.13919999999999999        -0.39473201093225413     
  0.13950000000000001        -0.46654085667929224     
  0.13979999999999998        -0.50737584988832385     
  0.14010000000000000        -0.51564897387648334     
  0.14040000000000002        -0.49223167830123210     
  0.14069999999999999        -0.43962056349710354     
  0.14100000000000001        -0.36231098202203160     
  0.14130000000000004        -0.26554265928434923     
  0.14160000000000000        -0.15561722194599781     
  0.14189999999999997         -3.8673680526459718E-002
  0.14219999999999999          7.8903770962419725E-002
  0.14250000000000002         0.19165159168387602     
  0.14279999999999998         0.29437760607729674     
  0.14310000000000000         0.38285503996741849     
  0.14339999999999997         0.45302565155063040     
  0.14369999999999999         0.50156773348879391     
  0.14400000000000002         0.52513952168010580     
  0.14429999999999998         0.52080769277001304     
  0.14460000000000001         0.48568779932778106     
  0.14490000000000003         0.41743612722183621     
  0.14520000000000000         0.31441208855835245     
  0.14550000000000002         0.17605140632021560     
  0.14579999999999999          3.4434653801742993E-003
  0.14610000000000001        -0.20056552471113531     
  0.14640000000000003        -0.43058700414235507     
  0.14670000000000000        -0.67917407828716048     
  0.14699999999999996        -0.93614728709267747     
  0.14729999999999999         -1.1897821583157508     
  0.14760000000000001         -1.4265129728805728     
  0.14789999999999998         -1.6324818295332861     
  0.14820000000000000         -1.7936196480050199     