  -1.4999999999999999E-002     0.0000000000000000     
  -1.4700000000000000E-002     0.0000000000000000     
  -1.4400000000000000E-002     0.0000000000000000     
  -1.4100000000000000E-002     0.0000000000000000     
  -1.3800000000000000E-002     0.0000000000000000     
  -1.3500000000000000E-002     0.0000000000000000     
  -1.3200000000000000E-002     0.0000000000000000     
  -1.2899999999999998E-002     0.0000000000000000     
  -1.2600000000000000E-002     0.0000000000000000     
  -1.2299999999999998E-002     0.0000000000000000     
  -1.2000000000000000E-002     0.0000000000000000     
  -1.1699999999999999E-002     0.0000000000000000     
  -1.1399999999999999E-002     0.0000000000000000     
  -1.1099999999999999E-002     0.0000000000000000     
  -1.0799999999999999E-002     0.0000000000000000     
  -1.0499999999999999E-002     0.0000000000000000     
  -1.0199999999999999E-002     0.0000000000000000     
  -9.8999999999999991E-003     0.0000000000000000     
  -9.5999999999999992E-003     0.0000000000000000     
  -9.2999999999999992E-003     0.0000000000000000     
  -8.9999999999999993E-003     0.0000000000000000     
  -8.6999999999999994E-003     0.0000000000000000     
  -8.3999999999999995E-003     0.0000000000000000     
  -8.0999999999999996E-003     0.0000000000000000     
  -7.7999999999999988E-003     0.0000000000000000     
  -7.4999999999999997E-003     0.0000000000000000     
  -7.1999999999999998E-003     0.0000000000000000     
  -6.8999999999999981E-003     0.0000000000000000     
  -6.5999999999999982E-003     0.0000000000000000     
  -6.3000000000000000E-003     0.0000000000000000     
  -6.0000000000000001E-003     0.0000000000000000     
  -5.6999999999999985E-003     0.0000000000000000     
  -5.3999999999999986E-003     0.0000000000000000     
  -5.1000000000000004E-003     0.0000000000000000     
  -4.7999999999999987E-003     0.0000000000000000     
  -4.5000000000000005E-003     0.0000000000000000     
  -4.1999999999999989E-003     0.0000000000000000     
  -3.8999999999999990E-003     0.0000000000000000     
  -3.5999999999999990E-003     0.0000000000000000     
  -3.2999999999999991E-003     0.0000000000000000     
  -2.9999999999999992E-003     0.0000000000000000     
  -2.6999999999999993E-003     0.0000000000000000     
  -2.3999999999999994E-003     0.0000000000000000     
  -2.0999999999999977E-003     0.0000000000000000     
  -1.7999999999999995E-003     0.0000000000000000     
  -1.4999999999999979E-003     0.0000000000000000     
  -1.1999999999999997E-003     0.0000000000000000     
  -8.9999999999999976E-004     0.0000000000000000     
  -5.9999999999999810E-004     0.0000000000000000     
  -2.9999999999999992E-004     0.0000000000000000     
   0.0000000000000000          0.0000000000000000     
   3.0000000000000165E-004     0.0000000000000000     
   5.9999999999999984E-004     0.0000000000000000     
   9.0000000000000149E-004     0.0000000000000000     
   1.2000000000000031E-003     0.0000000000000000     
   1.5000000000000013E-003     0.0000000000000000     
   1.8000000000000030E-003     0.0000000000000000     
   2.1000000000000012E-003     0.0000000000000000     
   2.3999999999999994E-003     0.0000000000000000     
   2.7000000000000010E-003     0.0000000000000000     
   2.9999999999999992E-003     0.0000000000000000     
   3.3000000000000008E-003     0.0000000000000000     
   3.6000000000000025E-003     0.0000000000000000     
   3.9000000000000007E-003     0.0000000000000000     
   4.2000000000000023E-003     0.0000000000000000     
   4.5000000000000005E-003     0.0000000000000000     
   4.7999999999999987E-003     0.0000000000000000     
   5.1000000000000004E-003     0.0000000000000000     
   5.4000000000000020E-003     0.0000000000000000     
   5.7000000000000037E-003     0.0000000000000000     
   5.9999999999999984E-003     0.0000000000000000     
   6.3000000000000000E-003     0.0000000000000000     
   6.6000000000000017E-003     0.0000000000000000     
   6.9000000000000034E-003     0.0000000000000000     
   7.2000000000000015E-003     0.0000000000000000     
   7.5000000000000032E-003     0.0000000000000000     
   7.8000000000000014E-003     0.0000000000000000     
   8.0999999999999996E-003     0.0000000000000000     
   8.4000000000000012E-003     0.0000000000000000     
   8.7000000000000029E-003     0.0000000000000000     
   9.0000000000000011E-003     0.0000000000000000     
   9.2999999999999992E-003     0.0000000000000000     
   9.6000000000000009E-003     0.0000000000000000     
   9.8999999999999991E-003     0.0000000000000000     
   1.0200000000000001E-002     0.0000000000000000     
   1.0500000000000002E-002     0.0000000000000000     
   1.0800000000000004E-002     0.0000000000000000     
   1.1099999999999999E-002     0.0000000000000000     
   1.1400000000000000E-002     0.0000000000000000     
   1.1700000000000002E-002     0.0000000000000000     
   1.2000000000000004E-002     0.0000000000000000     
   1.2300000000000002E-002     0.0000000000000000     
   1.2600000000000000E-002     0.0000000000000000     
   1.2900000000000002E-002     0.0000000000000000     
   1.3200000000000000E-002     0.0000000000000000     
   1.3500000000000002E-002     0.0000000000000000     
   1.3800000000000003E-002     0.0000000000000000     
   1.4100000000000001E-002     0.0000000000000000     
   1.4400000000000000E-002     0.0000000000000000     
   1.4700000000000001E-002     0.0000000000000000     
   1.4999999999999999E-002     0.0000000000000000     
   1.5300000000000001E-002     0.0000000000000000     
   1.5600000000000003E-002     0.0000000000000000     
   1.5899999999999997E-002     0.0000000000000000     
   1.6199999999999999E-002     0.0000000000000000     
   1.6500000000000001E-002     0.0000000000000000     
   1.6800000000000002E-002     0.0000000000000000     
   1.7100000000000004E-002     0.0000000000000000     
   1.7400000000000006E-002     0.0000000000000000     
   1.7700000000000000E-002     0.0000000000000000     
   1.8000000000000002E-002     0.0000000000000000     
   1.8300000000000004E-002     0.0000000000000000     
   1.8600000000000005E-002     0.0000000000000000     
   1.8900000000000000E-002     0.0000000000000000     
   1.9200000000000002E-002     0.0000000000000000     
   1.9500000000000003E-002     0.0000000000000000     
   1.9799999999999998E-002     0.0000000000000000     
   2.0100000000000000E-002     0.0000000000000000     
   2.0400000000000001E-002     0.0000000000000000     
   2.0700000000000003E-002     0.0000000000000000     
   2.0999999999999998E-002     0.0000000000000000     
   2.1299999999999999E-002     0.0000000000000000     
   2.1600000000000001E-002     0.0000000000000000     
   2.1900000000000003E-002     0.0000000000000000     
   2.2200000000000004E-002     0.0000000000000000     
   2.2500000000000006E-002     0.0000000000000000     
   2.2800000000000001E-002     0.0000000000000000     
   2.3100000000000002E-002     0.0000000000000000     
   2.3400000000000004E-002     0.0000000000000000     
   2.3699999999999999E-002     0.0000000000000000     
   2.4000000000000000E-002     0.0000000000000000     
   2.4300000000000002E-002     0.0000000000000000     
   2.4599999999999997E-002     0.0000000000000000     
   2.4900000000000005E-002     0.0000000000000000     
   2.5200000000000000E-002     0.0000000000000000     
   2.5499999999999995E-002     0.0000000000000000     
   2.5800000000000003E-002     0.0000000000000000     
   2.6099999999999998E-002     0.0000000000000000     
   2.6400000000000007E-002     0.0000000000000000     
   2.6700000000000002E-002    -2.4328740140480859E-043
   2.6999999999999996E-002     1.2109682082471174E-042
   2.7300000000000005E-002    -5.9627666730856566E-042
   2.7600000000000000E-002     3.8479834727918597E-038
   2.7900000000000008E-002     1.0726590070509543E-037
   2.8200000000000003E-002     1.3751575415118044E-036
   2.8499999999999998E-002    -7.7332608352549295E-036
   2.8800000000000006E-002     2.0503488205171733E-035
   2.9100000000000001E-002    -1.5802547503296448E-034
   2.9400000000000003E-002     1.3529121688243709E-033
   2.9700000000000004E-002    -5.0203042424499992E-033
   3.0000000000000006E-002     8.0016301623812120E-033
   3.0300000000000001E-002     2.9508189626291763E-032
   3.0600000000000002E-002    -2.7681528532081006E-031
   3.0900000000000004E-002     1.2096129774778280E-030
   3.1199999999999999E-002    -3.5454235848338070E-030
   3.1500000000000007E-002     6.3649140476209886E-030
   3.1800000000000002E-002     3.5693801732208937E-031
   3.2099999999999997E-002    -4.9773796804822927E-029
   3.2400000000000005E-002     1.8581928174584115E-028
   3.2700000000000000E-002    -2.7523815477335047E-028
   3.3000000000000002E-002    -6.6229537847366488E-028
   3.3300000000000003E-002     5.4325998767225135E-027
   3.3599999999999998E-002    -1.6252137883546827E-026
   3.3900000000000000E-002     1.5018051983725524E-026
   3.4200000000000001E-002     9.8166211453046130E-026
   3.4500000000000003E-002    -5.8958081413685194E-025
   3.4799999999999998E-002     1.7384202804824792E-024
   3.5099999999999999E-002    -2.6325417914837218E-024
   3.5400000000000001E-002    -2.0851730910677705E-024
   3.5699999999999996E-002     2.5400802357779527E-023
   3.6000000000000004E-002    -7.7863592778283781E-023
   3.6299999999999999E-002     1.1728586809800034E-022
   3.6600000000000008E-002     4.0730462517135920E-023
   3.6900000000000002E-002    -6.8870631197087824E-022
   3.7199999999999997E-002     1.6422518208510802E-021
   3.7500000000000006E-002    -9.6676843053945468E-022
   3.7800000000000000E-002    -4.7632981734455161E-021
   3.8100000000000009E-002     1.2370816746061011E-020
   3.8400000000000004E-002     5.1979083826304871E-021
   3.8699999999999998E-002    -8.7630620131239056E-020
   3.9000000000000007E-002     1.4545758537051071E-019
   3.9300000000000002E-002     3.1127780105982647E-019
   3.9600000000000003E-002    -1.8754647751605337E-018
   3.9900000000000005E-002     2.6383513172340688E-018
   4.0200000000000000E-002     6.2731127737315465E-018
   4.0500000000000001E-002    -3.4099176814354521E-017
   4.0800000000000003E-002     4.4450935778229751E-017
   4.1100000000000005E-002     1.1138147074529229E-016
   4.1399999999999999E-002    -5.5089430532130312E-016
   4.1700000000000008E-002     6.0311005607850572E-016
   4.2000000000000003E-002     1.9656481974515022E-015
   4.2299999999999997E-002    -7.8926925661521286E-015
   4.2600000000000006E-002     5.3028238311945434E-015
   4.2900000000000001E-002     3.3986244795706031E-014
   4.3200000000000002E-002    -9.5236774556249370E-014
   4.3500000000000004E-002    -9.2137928500044457E-015
   4.3799999999999999E-002     5.2311542342508788E-013
   4.4100000000000000E-002    -8.1288655886028193E-013
   4.4400000000000002E-002    -1.4215645005913463E-012
   4.4700000000000004E-002     6.1274741771460158E-012
   4.4999999999999998E-002    -1.1802385500877884E-012
   4.5300000000000000E-002    -2.8155970013523004E-011
   4.5600000000000002E-002     3.7101789922192664E-011
   4.5899999999999996E-002     9.3611290647269561E-011
   4.6200000000000005E-002    -2.5344506116128032E-010
   4.6500000000000000E-002    -2.2130176646017045E-010
   4.6799999999999994E-002     1.2640785383144468E-009
   4.7100000000000003E-002     2.6198948687404889E-010
   4.7399999999999998E-002    -5.4784938490623070E-009
   4.7700000000000006E-002     6.0470477863575581E-010
   4.8000000000000001E-002     2.2358076656706323E-008
   4.8300000000000010E-002    -3.7805676960950975E-009
   4.8600000000000004E-002    -9.0102887317259456E-008
   4.8899999999999999E-002    -9.6622962247918496E-009
   4.9200000000000008E-002     3.3010394741515419E-007
   4.9500000000000002E-002     1.7903054296491409E-007
   4.9800000000000011E-002    -1.1428282801603321E-006
   5.0100000000000006E-002    -1.3472959669631817E-006
   5.0400000000000000E-002     5.1976080197498753E-006
   5.0700000000000009E-002     2.1710838034941626E-005
   5.1000000000000004E-002     4.3470788382191455E-005
   5.1299999999999998E-002     6.2908201038667540E-005
   5.1600000000000007E-002     8.2117431422465203E-005
   5.1900000000000002E-002     1.1625516217672523E-004
   5.2200000000000010E-002     1.8204467946565824E-004
   5.2500000000000005E-002     2.8735652611265328E-004
   5.2800000000000000E-002     4.3698455270002547E-004
   5.3099999999999994E-002     6.4670073049540684E-004
   5.3400000000000003E-002     9.4704809508124022E-004
   5.3699999999999998E-002     1.3744321382969144E-003
   5.4000000000000006E-002     1.9650644614111678E-003
   5.4300000000000001E-002     2.7614510676213428E-003
   5.4599999999999996E-002     3.8204600161404452E-003
   5.4900000000000004E-002     5.2070936194912390E-003
   5.5199999999999999E-002     6.9780404180441033E-003
   5.5499999999999994E-002     9.1744995635075280E-003
   5.5800000000000002E-002     1.1824123674278424E-002
   5.6099999999999997E-002     1.4930473499367887E-002
   5.6400000000000006E-002     1.8442544180063067E-002
   5.6700000000000000E-002     2.2228456033514421E-002
   5.6999999999999995E-002     2.6063571802726983E-002
   5.7300000000000004E-002     2.9612214259009673E-002
   5.7599999999999998E-002     3.2396812817069916E-002
   5.7900000000000007E-002     3.3780579517235898E-002
   5.8200000000000002E-002     3.2980190156051324E-002
   5.8499999999999996E-002     2.9091054413026882E-002
   5.8800000000000005E-002     2.1116062985217919E-002
   5.9100000000000000E-002     8.0288910644854619E-003
   5.9400000000000008E-002    -1.1116792848973156E-002
   5.9700000000000003E-002    -3.7043112774228032E-002
   6.0000000000000012E-002    -7.0110164072270387E-002
   6.0300000000000006E-002   -0.11015315369557471     
   6.0600000000000001E-002   -0.15631774536021392     
   6.0900000000000010E-002   -0.20690074463972347     
   6.1200000000000004E-002   -0.25926579550721546     
   6.1500000000000013E-002   -0.30982180684019028     
   6.1800000000000008E-002   -0.35409205065490690     
   6.2100000000000002E-002   -0.38686909006254133     
   6.2399999999999997E-002   -0.40251083861080872     
   6.2700000000000006E-002   -0.39536262557287649     
   6.3000000000000000E-002   -0.36026840292258533     
   6.3300000000000009E-002   -0.29311228945187973     
   6.3600000000000004E-002   -0.19139000120431812     
   6.3899999999999998E-002    -5.4762377324239095E-002
   6.4199999999999993E-002    0.11449654837907672     
   6.4500000000000002E-002    0.31127884626391511     
   6.4800000000000010E-002    0.52758664089134988     
   6.5100000000000005E-002    0.75279985421569373     
   6.5400000000000000E-002    0.97405184835039949     
   6.5700000000000008E-002     1.1770927358156702     
   6.5999999999999989E-002     1.3471209446893577     
   6.6299999999999998E-002     1.4700019120363781     
   6.6600000000000006E-002     1.5332636593767044     
   6.6900000000000001E-002     1.5273069830577690     
   6.7199999999999996E-002     1.4462190464953080     
   6.7500000000000004E-002     1.2885732143771009     
   6.7800000000000013E-002     1.0576751052425404     
   6.8099999999999994E-002    0.76165774040449841     
   6.8400000000000002E-002    0.41301617994549256     
   6.8700000000000011E-002     2.7978187515012673E-002
   6.8999999999999992E-002   -0.37457364208006350     
   6.9300000000000000E-002   -0.77430925748130108     
   6.9600000000000009E-002    -1.1507722284702866     
   6.9900000000000004E-002    -1.4847072126655640     
   7.0199999999999999E-002    -1.7592906278656377     
   7.0500000000000007E-002    -1.9611042169186512     
   7.0800000000000016E-002    -2.0810096899499135     
   7.1099999999999997E-002    -2.1144665449834350     
   7.1400000000000005E-002    -2.0618286470792189     
   7.1700000000000000E-002    -1.9280027029911384     
   7.1999999999999995E-002    -1.7221536508492719     
   7.2300000000000003E-002    -1.4568110521400404     
   7.2600000000000012E-002    -1.1472050702550614     
   7.2900000000000006E-002   -0.81016548915058317     
   7.3200000000000001E-002   -0.46324526341787697     
   7.3499999999999996E-002   -0.12360977523576100     
   7.3800000000000004E-002    0.19277345939812207     
   7.4099999999999999E-002    0.47194257123617889     
   7.4400000000000008E-002    0.70249416140079202     
   7.4700000000000003E-002    0.87611394012653820     
   7.5000000000000011E-002    0.98773245438766755     
   7.5299999999999992E-002     1.0356689753705624     
   7.5600000000000001E-002     1.0214594337079332     
   7.5900000000000009E-002    0.94960520649746649     
   7.6200000000000004E-002    0.82731095604548255     
   7.6499999999999999E-002    0.66393503448266089     
   7.6800000000000007E-002    0.47056606716871507     
   7.7099999999999988E-002    0.25930828385025689     
   7.7399999999999997E-002     4.2989964810740855E-002
   7.7700000000000005E-002   -0.16563915909173363     
   7.8000000000000014E-002   -0.35413311888952997     
   7.8299999999999995E-002   -0.51123175808697563     
   7.8600000000000003E-002   -0.62692601750116828     
   7.8900000000000012E-002   -0.69330380942980363     
   7.9199999999999993E-002   -0.70461581278495355     
   7.9500000000000001E-002   -0.65798532552478062     
   7.9800000000000010E-002   -0.55336180839075011     
   8.0100000000000018E-002   -0.39408989142317430     
   8.0399999999999999E-002   -0.18661478806349974     
   8.0700000000000008E-002     5.9327495089141188E-002
   8.1000000000000003E-002    0.33131784597106517     
   8.1299999999999997E-002    0.61445623192535437     
   8.1600000000000006E-002    0.89231071734819156     
   8.1900000000000014E-002     1.1477607749278520     
   8.2199999999999995E-002     1.3641428399840092     
   8.2500000000000004E-002     1.5262651180664362     
   8.2799999999999999E-002     1.6216535857902694     
   8.3100000000000007E-002     1.6415388162164952     
   8.3400000000000002E-002     1.5817233552353125     
   8.3700000000000011E-002     1.4431646702915075     
   8.4000000000000005E-002     1.2321322502230629     
   8.4300000000000000E-002    0.96006781141612252     
   8.4599999999999995E-002    0.64290763579119559     
   8.4900000000000003E-002    0.30021074227570110     
   8.5199999999999998E-002    -4.6276904417433026E-002
   8.5500000000000007E-002   -0.37416197119479511     
   8.5800000000000001E-002   -0.66210024842289972     
   8.6100000000000010E-002   -0.89143566483980086     
   8.6399999999999991E-002    -1.0476305362088389     
   8.6699999999999999E-002    -1.1217319960512415     
   8.7000000000000008E-002    -1.1109113229831973     
   8.7300000000000003E-002    -1.0189782864122856     
   8.7599999999999997E-002   -0.85585063581642806     
   8.7900000000000006E-002   -0.63719601699091710     
   8.8200000000000014E-002   -0.38276716139413985     
   8.8499999999999995E-002   -0.11515422630649705     
   8.8800000000000004E-002    0.14245152816784021     
   8.9100000000000013E-002    0.36781127142130954     
   8.9399999999999993E-002    0.54180839037587614     
   8.9700000000000002E-002    0.64970129718499448     
   9.0000000000000011E-002    0.68249527957599021     
   9.0299999999999991E-002    0.63733160462862537     
   9.0600000000000000E-002    0.51771732287222272     
   9.0900000000000009E-002    0.33293069672303155     
   9.1200000000000017E-002     9.6966441451353802E-002
   9.1499999999999998E-002   -0.17271416875261814     
   9.1800000000000007E-002   -0.45689400667521091     
   9.2100000000000001E-002   -0.73613049874073266     
   9.2399999999999996E-002   -0.99250352133375208     
   9.2700000000000005E-002    -1.2106084399029720     
   9.3000000000000013E-002    -1.3786836110391389     
   9.3300000000000008E-002    -1.4889040146716941     
   9.3600000000000003E-002    -1.5375894317470833     
   9.3899999999999997E-002    -1.5247345381073059     
   9.4200000000000006E-002    -1.4533955860838743     
   9.4500000000000001E-002    -1.3288709756510040     
   9.4800000000000009E-002    -1.1577721914001928     
   9.5100000000000004E-002   -0.94737011353883283     
   9.5399999999999999E-002   -0.70486896216908645     
   9.5699999999999993E-002   -0.43716082397670430     
   9.6000000000000002E-002   -0.15071137592103556     
   9.6300000000000011E-002    0.14824781008559046     
   9.6600000000000005E-002    0.45347814788254009     
   9.6900000000000000E-002    0.75807100951988471     
   9.7200000000000009E-002     1.0542820241397652     
   9.7499999999999989E-002     1.3331360770319374     
   9.7799999999999998E-002     1.5843833619731307     
   9.8100000000000007E-002     1.7968762082844858     
   9.8400000000000015E-002     1.9588829230200573     
   9.8699999999999996E-002     2.0592165626892598     
   9.9000000000000005E-002     2.0878092448929295     
   9.9300000000000013E-002     2.0372009888401208     
   9.9599999999999994E-002     1.9030580846182756     
   9.9900000000000003E-002     1.6857376203604293     
  0.10020000000000001          1.3899863666726517     
  0.10049999999999999          1.0259293689121822     
  0.10080000000000000         0.60804527174632372     
  0.10110000000000001         0.15529201281955662     
  0.10140000000000000        -0.31076300432705495     
  0.10170000000000000        -0.76653174637226573     
  0.10200000000000001         -1.1886827274400136     
  0.10230000000000002         -1.5549954483979176     
  0.10260000000000000         -1.8466116281357161     
  0.10290000000000001         -2.0484904396035541     
  0.10320000000000000         -2.1511712042399482     
  0.10350000000000001         -2.1505747597789200     
  0.10380000000000000         -2.0488049169853793     
  0.10410000000000001         -1.8532115593223750     
  0.10440000000000001         -1.5762488882239580     
  0.10470000000000000         -1.2340851092701612     
  0.10500000000000000        -0.84585502250299993     
  0.10530000000000000        -0.43195043280377665     
  0.10560000000000000         -1.3138816362939509E-002
  0.10590000000000001         0.39083621470383961     
  0.10620000000000000         0.76210928404495148     
  0.10650000000000001          1.0855373673956539     
  0.10679999999999999          1.3491880484597589     
  0.10710000000000000          1.5444662336875714     
  0.10740000000000001          1.6664859453577612     
  0.10770000000000000          1.7136341684492402     
  0.10800000000000000          1.6876709585486318     
  0.10830000000000001          1.5929408424109672     
  0.10859999999999999          1.4365708642221224     
  0.10890000000000000          1.2275042083465952     
  0.10920000000000001         0.97672950057705465     
  0.10950000000000001         0.69629347077144477     
  0.10979999999999999         0.39952160229215244     
  0.11009999999999999          9.9938048568642801E-002
  0.11040000000000001        -0.18854374418928876     
  0.11070000000000001        -0.45269936605318534     
  0.11100000000000000        -0.68016411198076820     
  0.11130000000000000        -0.86046314872077145     
  0.11160000000000002        -0.98523330597532799     
  0.11190000000000001         -1.0491489180608558     
  0.11220000000000001         -1.0503235499122623     
  0.11250000000000000        -0.99054790094478662     
  0.11280000000000000        -0.87549680119483941     
  0.11309999999999999        -0.71435423546153598     
  0.11340000000000001        -0.51957866274428355     
  0.11369999999999998        -0.30584392493385421     
  0.11400000000000000         -8.9208655061834313E-002
  0.11430000000000000         0.11428835694479027     
  0.11460000000000002         0.28969518169270636     
  0.11489999999999999         0.42465191742236924     
  0.11520000000000001         0.51027699501890234     
  0.11550000000000001         0.54201465689257544     
  0.11580000000000000         0.51983563070976646     
  0.11609999999999999         0.44833353294592837     
  0.11640000000000002         0.33627174646621111     
  0.11670000000000001         0.19544129799873960     
  0.11700000000000001          3.9645600691758771E-002
  0.11730000000000000        -0.11687035567166978     
  0.11760000000000000        -0.26047688290822207     
  0.11789999999999999        -0.37987212281898958     
  0.11820000000000001        -0.46673313947703221     
  0.11850000000000001        -0.51668097031277682     
  0.11880000000000000        -0.52907602190791492     
  0.11910000000000000        -0.50721675214353568     
  0.11940000000000002        -0.45735113353023638     
  0.11970000000000001        -0.38805915305457184     
  0.12000000000000001        -0.30905667770991402     
  0.12030000000000000        -0.23010518597146923     
  0.12060000000000000        -0.15995248545260557     
  0.12089999999999999        -0.10534908618901562     
  0.12119999999999999         -7.0744578285459464E-002
  0.12150000000000001         -5.7703966160137100E-002
  0.12180000000000001         -6.5259569635376991E-002
  0.12210000000000000         -8.9760455129660008E-002
  0.12239999999999999        -0.12594156658255248     
  0.12270000000000002        -0.16702468219619920     
  0.12300000000000001        -0.20605845706721226     
  0.12330000000000001        -0.23596468420755462     
  0.12360000000000000        -0.25100542671994441     
  0.12390000000000000        -0.24657631187694684     
  0.12419999999999999        -0.22027999726018116     
  0.12450000000000001        -0.17156414719584948     
  0.12480000000000001        -0.10225990538415131     
  0.12509999999999999         -1.6048708529033770E-002
  0.12540000000000001          8.1490922688756171E-002
  0.12570000000000003         0.18351930691258184     
  0.12600000000000000         0.28256134830954249     
  0.12630000000000002         0.37096009558253640     
  0.12659999999999999         0.44180763476779106     
  0.12690000000000001         0.48908545051903818     
  0.12719999999999998         0.50887552062740049     
  0.12750000000000000         0.49904008844553627     
  0.12780000000000002         0.46015710846506641     
  0.12809999999999999         0.39461560332958789     
  0.12840000000000001         0.30744133495358228     
  0.12869999999999998         0.20482523087481194     
  0.12900000000000000          9.4549806051251017E-002
  0.12930000000000003         -1.5798293872248008E-002
  0.12959999999999999        -0.11830664065254440     
  0.12990000000000002        -0.20642271504054177     
  0.13019999999999998        -0.27454502416776705     
  0.13050000000000000        -0.31928380200403245     
  0.13080000000000003        -0.33873021656280028     
  0.13109999999999999        -0.33303394951369802     
  0.13140000000000002        -0.30369865468927465     
  0.13169999999999998        -0.25361615284092287     
  0.13200000000000001        -0.18647190909656991     
  0.13229999999999997        -0.10625142045701583     
  0.13260000000000000         -1.7088787184509142E-002
  0.13290000000000002          7.7355797327926731E-002
  0.13319999999999999         0.17344496136751072     
  0.13350000000000001         0.26828654301714394     
  0.13380000000000003         0.35891423984280291     
  0.13410000000000000         0.44308634420866427     
  0.13440000000000002         0.51817243413039882     
  0.13469999999999999         0.58195341513555199     
  0.13500000000000001         0.63166688584521613     
  0.13529999999999998         0.66514440951083631     
  0.13560000000000000         0.67995431850994059     
  0.13590000000000002         0.67459485750298387     
  0.13619999999999999         0.64784272988876046     
  0.13650000000000001         0.59988634315611689     
  0.13680000000000003         0.53173963996265017     
  0.13710000000000000         0.44602467430195725     
  0.13740000000000002         0.34627094762561295     
  0.13769999999999999         0.23733195734695672     
  0.13800000000000001         0.12470701251739891     
  0.13829999999999998          1.4264639274046873E-002
  0.13860000000000000         -8.8321597976607671E-002
  0.13890000000000002        -0.17795600342657936     
  0.13919999999999999        -0.25025693722829878     
  0.13950000000000001        -0.30220340915149213     
  0.13979999999999998        -0.33190733299506880     
  0.14010000000000000        -0.33911141617779539     
  0.14040000000000002        -0.32445622384150008     
  0.14069999999999999        -0.28983805160801446     
  0.14100000000000001        -0.23771771286160709     
  0.14130000000000004        -0.17145752888226024     
  0.14160000000000000         -9.4749320371203816E-002
  0.14189999999999997         -1.1751838128146013E-002
  0.14219999999999999          7.3130839283686508E-002
  0.14250000000000002         0.15494141387355748     
  0.14279999999999998         0.22831730110730686     
  0.14310000000000000         0.28745754375393490     
  0.14339999999999997         0.32612120387778298     
  0.14369999999999999         0.33805660197252063     
  0.14400000000000002         0.31712034632679109     
  0.14429999999999998         0.25801587320207331     
  0.14460000000000001         0.15658551703531620     
  0.14490000000000003          1.0902556267777818E-002
  0.14520000000000000        -0.17849360738844211     
  0.14550000000000002        -0.40762493971915803     
  0.14579999999999999        -0.66929438051563006     
  0.14610000000000001        -0.95231348159433127     
  0.14640000000000003         -1.2424182716669301     
  0.14670000000000000         -1.5223833335069674     
  0.14699999999999996         -1.7735094074334392     
  0.14729999999999999         -1.9761736409327106     
  0.14760000000000001         -2.1118265217134855     
  0.14789999999999998         -2.1642259587471147     
  0.14820000000000000         -2.1211057608873825     