  -1.4999999999999999E-002     0.0000000000000000     
  -1.4700000000000000E-002     0.0000000000000000     
  -1.4400000000000000E-002     0.0000000000000000     
  -1.4100000000000000E-002     0.0000000000000000     
  -1.3800000000000000E-002     0.0000000000000000     
  -1.3500000000000000E-002     0.0000000000000000     
  -1.3200000000000000E-002     0.0000000000000000     
  -1.2899999999999998E-002     0.0000000000000000     
  -1.2600000000000000E-002     0.0000000000000000     
  -1.2299999999999998E-002     0.0000000000000000     
  -1.2000000000000000E-002     0.0000000000000000     
  -1.1699999999999999E-002     0.0000000000000000     
  -1.1399999999999999E-002     0.0000000000000000     
  -1.1099999999999999E-002     0.0000000000000000     
  -1.0799999999999999E-002     0.0000000000000000     
  -1.0499999999999999E-002     0.0000000000000000     
  -1.0199999999999999E-002     0.0000000000000000     
  -9.8999999999999991E-003     0.0000000000000000     
  -9.5999999999999992E-003     0.0000000000000000     
  -9.2999999999999992E-003     0.0000000000000000     
  -8.9999999999999993E-003     0.0000000000000000     
  -8.6999999999999994E-003     0.0000000000000000     
  -8.3999999999999995E-003     0.0000000000000000     
  -8.0999999999999996E-003     0.0000000000000000     
  -7.7999999999999988E-003     0.0000000000000000     
  -7.4999999999999997E-003     0.0000000000000000     
  -7.1999999999999998E-003     0.0000000000000000     
  -6.8999999999999981E-003     0.0000000000000000     
  -6.5999999999999982E-003     0.0000000000000000     
  -6.3000000000000000E-003     0.0000000000000000     
  -6.0000000000000001E-003     0.0000000000000000     
  -5.6999999999999985E-003     0.0000000000000000     
  -5.3999999999999986E-003     0.0000000000000000     
  -5.1000000000000004E-003     0.0000000000000000     
  -4.7999999999999987E-003     0.0000000000000000     
  -4.5000000000000005E-003     0.0000000000000000     
  -4.1999999999999989E-003     0.0000000000000000     
  -3.8999999999999990E-003     0.0000000000000000     
  -3.5999999999999990E-003     0.0000000000000000     
  -3.2999999999999991E-003     0.0000000000000000     
  -2.9999999999999992E-003     0.0000000000000000     
  -2.6999999999999993E-003     0.0000000000000000     
  -2.3999999999999994E-003     0.0000000000000000     
  -2.0999999999999977E-003     0.0000000000000000     
  -1.7999999999999995E-003     0.0000000000000000     
  -1.4999999999999979E-003     0.0000000000000000     
  -1.1999999999999997E-003     0.0000000000000000     
  -8.9999999999999976E-004     0.0000000000000000     
  -5.9999999999999810E-004     0.0000000000000000     
  -2.9999999999999992E-004     0.0000000000000000     
   0.0000000000000000          0.0000000000000000     
   3.0000000000000165E-004     0.0000000000000000     
   5.9999999999999984E-004     0.0000000000000000     
   9.0000000000000149E-004     0.0000000000000000     
   1.2000000000000031E-003     0.0000000000000000     
   1.5000000000000013E-003     0.0000000000000000     
   1.8000000000000030E-003     0.0000000000000000     
   2.1000000000000012E-003     0.0000000000000000     
   2.3999999999999994E-003     0.0000000000000000     
   2.7000000000000010E-003     0.0000000000000000     
   2.9999999999999992E-003     0.0000000000000000     
   3.3000000000000008E-003     0.0000000000000000     
   3.6000000000000025E-003     0.0000000000000000     
   3.9000000000000007E-003     0.0000000000000000     
   4.2000000000000023E-003     0.0000000000000000     
   4.5000000000000005E-003     0.0000000000000000     
   4.7999999999999987E-003     0.0000000000000000     
   5.1000000000000004E-003     0.0000000000000000     
   5.4000000000000020E-003     0.0000000000000000     
   5.7000000000000037E-003     0.0000000000000000     
   5.9999999999999984E-003     0.0000000000000000     
   6.3000000000000000E-003     0.0000000000000000     
   6.6000000000000017E-003     0.0000000000000000     
   6.9000000000000034E-003     0.0000000000000000     
   7.2000000000000015E-003     0.0000000000000000     
   7.5000000000000032E-003     0.0000000000000000     
   7.8000000000000014E-003     0.0000000000000000     
   8.0999999999999996E-003     0.0000000000000000     
   8.4000000000000012E-003     0.0000000000000000     
   8.7000000000000029E-003     0.0000000000000000     
   9.0000000000000011E-003     0.0000000000000000     
   9.2999999999999992E-003     0.0000000000000000     
   9.6000000000000009E-003     0.0000000000000000     
   9.8999999999999991E-003     0.0000000000000000     
   1.0200000000000001E-002     0.0000000000000000     
   1.0500000000000002E-002    -8.5850310871338990E-043
   1.0800000000000004E-002    -7.1032550546187552E-043
   1.1099999999999999E-002     4.8321883689140822E-042
   1.1400000000000000E-002    -4.3598124805269311E-041
   1.1700000000000002E-002     2.5243264509522500E-039
   1.2000000000000004E-002     2.2662541163949801E-038
   1.2300000000000002E-002    -2.6315170918777529E-037
   1.2600000000000000E-002     6.6197284586496041E-037
   1.2900000000000002E-002    -2.3763415552027128E-036
   1.3200000000000000E-002     3.6268249268237203E-036
   1.3500000000000002E-002    -3.2165291128105997E-036
   1.3800000000000003E-002     2.2707333511862822E-037
   1.4100000000000001E-002    -1.3557499230985730E-035
   1.4400000000000000E-002     3.1477424923172211E-035
   1.4700000000000001E-002    -3.9751244907887611E-035
   1.4999999999999999E-002     7.2492142883513965E-035
   1.5300000000000001E-002    -5.8501799428610490E-035
   1.5600000000000003E-002    -5.8994930643040031E-035
   1.5899999999999997E-002     5.2424706450579098E-034
   1.6199999999999999E-002    -8.4019028071330076E-034
   1.6500000000000001E-002     4.0953532947463169E-034
   1.6800000000000002E-002    -6.4620763968818463E-035
   1.7100000000000004E-002    -6.7130039988939796E-034
   1.7400000000000006E-002     1.4736869172244432E-033
   1.7700000000000000E-002    -9.9754480602838491E-034
   1.8000000000000002E-002    -4.6972785217577124E-034
   1.8300000000000004E-002     2.5541660036712727E-033
   1.8600000000000005E-002    -5.1784950636385273E-033
   1.8900000000000000E-002     6.9166645956282850E-033
   1.9200000000000002E-002    -5.0941704656044447E-033
   1.9500000000000003E-002    -1.4512135207403625E-033
   1.9799999999999998E-002     1.1853750224886635E-032
   2.0100000000000000E-002    -2.3196550153988264E-032
   2.0400000000000001E-002     3.0795569286648926E-032
   2.0700000000000003E-002    -3.1927174268163109E-032
   2.0999999999999998E-002     1.1997215403161853E-032
   2.1299999999999999E-002     8.5362928003805569E-032
   2.1600000000000001E-002    -3.9432749317148431E-031
   2.1900000000000003E-002     1.1622704474861415E-030
   2.2200000000000004E-002    -2.6827081539480017E-030
   2.2500000000000006E-002     4.4536337394668341E-030
   2.2800000000000001E-002    -1.3220545727098773E-030
   2.3100000000000002E-002    -2.7481634032882027E-029
   2.3400000000000004E-002     1.3802352687882686E-028
   2.3699999999999999E-002    -4.2590047719755734E-028
   2.4000000000000000E-002     8.9295793019531472E-028
   2.4300000000000002E-002    -8.3868145687485453E-028
   2.4599999999999997E-002    -2.6866078726235347E-027
   2.4900000000000005E-002     1.6584400913758662E-026
   2.5200000000000000E-002    -4.6013374441483912E-026
   2.5499999999999995E-002     5.2859759640668722E-026
   2.5800000000000003E-002     1.8669601229256835E-025
   2.6099999999999998E-002    -1.3616117974871998E-024
   2.6400000000000007E-002     4.5875145094454614E-024
   2.6700000000000002E-002    -8.7066964175264415E-024
   2.6999999999999996E-002    -9.2013370222214948E-025
   2.7300000000000005E-002     7.6135358717753725E-023
   2.7600000000000000E-002    -3.1281074338048907E-022
   2.7900000000000008E-002     7.0915798241752397E-022
   2.8200000000000003E-002    -6.3159735198646205E-022
   2.8499999999999998E-002    -2.0764000575296563E-021
   2.8800000000000006E-002     1.0902245575879914E-020
   2.9100000000000001E-002    -2.5851239358198106E-020
   2.9400000000000003E-002     3.2505726841138024E-020
   2.9700000000000004E-002     3.9091216047429338E-021
   3.0000000000000006E-002    -1.2315682159804543E-019
   3.0300000000000001E-002     3.9151320487799153E-019
   3.0600000000000002E-002    -1.1540058290587598E-018
   3.0900000000000004E-002     3.2513869008545490E-018
   3.1199999999999999E-002    -5.5053992115565293E-018
   3.1500000000000007E-002    -5.6592904760868569E-018
   3.1800000000000002E-002     6.6670042831453726E-017
   3.2099999999999997E-002    -1.8817226067556152E-016
   3.2400000000000005E-002     1.4837076279748210E-016
   3.2700000000000000E-002     7.3147360248377537E-016
   3.3000000000000002E-002    -2.8738654136696586E-015
   3.3300000000000003E-002     3.3872079267064194E-015
   3.3599999999999998E-002     7.0296825813782502E-015
   3.3900000000000000E-002    -3.4127870220931339E-014
   3.4200000000000001E-002     4.1267190574274285E-014
   3.4500000000000003E-002     8.0279008556864197E-014
   3.4799999999999998E-002    -3.6613624073715850E-013
   3.5099999999999999E-002     3.3111846964669017E-013
   3.5400000000000001E-002     1.1238448939155379E-012
   3.5699999999999996E-002    -3.5290545438557121E-012
   3.6000000000000004E-002     5.9559583911396794E-013
   3.6299999999999999E-002     1.5306965899429316E-011
   3.6600000000000008E-002    -2.4526586095366976E-011
   3.6900000000000002E-002    -3.6581236220073787E-011
   3.7199999999999997E-002     1.5231381882774424E-010
   3.7500000000000006E-002    -3.5873733056705846E-012
   3.7800000000000000E-002    -6.5361776922547073E-010
   3.8100000000000009E-002     5.5947096529696920E-010
   3.8400000000000004E-002     2.3461736671666607E-009
   3.8699999999999998E-002    -3.6862875799307402E-009
   3.9000000000000007E-002    -7.8864226994197421E-009
   3.9300000000000002E-002     1.7464140641522980E-008
   3.9600000000000003E-002     2.7972303998931082E-008
   3.9900000000000005E-002    -7.0952520251991156E-008
   4.0200000000000000E-002    -1.1858119626795807E-007
   4.0500000000000001E-002     2.3426497070838092E-007
   4.0800000000000003E-002     5.1719475000053957E-007
   4.1100000000000005E-002    -6.5458909125493603E-007
   4.1399999999999999E-002    -2.3244898526541063E-006
   4.1700000000000008E-002     2.1152464158869138E-006
   4.2000000000000003E-002     2.0527169870531702E-005
   4.2299999999999997E-002     5.1062460341559800E-005
   4.2600000000000006E-002     7.9737453323892109E-005
   4.2900000000000001E-002     9.6404737156290986E-005
   4.3200000000000002E-002     1.1407680966456300E-004
   4.3500000000000004E-002     1.6593597407921283E-004
   4.3799999999999999E-002     2.7902016483397079E-004
   4.4100000000000000E-002     4.5562335187229362E-004
   4.4400000000000002E-002     6.8867332516298063E-004
   4.4700000000000004E-002     9.9538765767854219E-004
   4.4999999999999998E-002     1.4269218264944463E-003
   4.5300000000000000E-002     2.0417912710594668E-003
   4.5600000000000002E-002     2.8813595523637060E-003
   4.5899999999999996E-002     3.9820022821010588E-003
   4.6200000000000005E-002     5.4008482940428801E-003
   4.6500000000000000E-002     7.2109773769244347E-003
   4.6799999999999994E-002     9.4691873276398272E-003
   4.7100000000000003E-002     1.2196829710345861E-002
   4.7399999999999998E-002     1.5382759475637657E-002
   4.7700000000000006E-002     1.8977451270694480E-002
   4.8000000000000001E-002     2.2865791053613964E-002
   4.8300000000000010E-002     2.6833699795284927E-002
   4.8600000000000004E-002     3.0550562229895661E-002
   4.8899999999999999E-002     3.3564303963694267E-002
   4.9200000000000008E-002     3.5302900574823728E-002
   4.9500000000000002E-002     3.5066907156399804E-002
   4.9800000000000011E-002     3.2039287469540649E-002
   5.0100000000000006E-002     2.5335112163911717E-002
   5.0400000000000000E-002     1.4116134900953765E-002
   5.0700000000000009E-002    -2.3229420165161501E-003
   5.1000000000000004E-002    -2.4466610373571569E-002
   5.1299999999999998E-002    -5.2484487617639256E-002
   5.1600000000000007E-002    -8.6034460181175443E-002
   5.1900000000000002E-002   -0.12411678703334592     
   5.2200000000000010E-002   -0.16499423563385729     
   5.2500000000000005E-002   -0.20621017309427619     
   5.2800000000000000E-002   -0.24458710141841872     
   5.3099999999999994E-002   -0.27631325418536884     
   5.3400000000000003E-002   -0.29714446196512384     
   5.3699999999999998E-002   -0.30274786392260955     
   5.4000000000000006E-002   -0.28906625471531744     
   5.4300000000000001E-002   -0.25271442807213262     
   5.4599999999999996E-002   -0.19139582848609796     
   5.4900000000000004E-002   -0.10433567576402704     
   5.5199999999999999E-002     7.3382393899095368E-003
   5.5499999999999994E-002    0.14043100268262629     
   5.5800000000000002E-002    0.28964398032069694     
   5.6099999999999997E-002    0.44775680049331579     
   5.6400000000000006E-002    0.60593865889432141     
   5.6700000000000000E-002    0.75428158320764249     
   5.6999999999999995E-002    0.88251028254663222     
   5.7300000000000004E-002    0.98078323109811949     
   5.7599999999999998E-002     1.0404888357467093     
   5.7900000000000007E-002     1.0550027998247966     
   5.8200000000000002E-002     1.0203822047776820     
   5.8499999999999996E-002    0.93582773426776455     
   5.8800000000000005E-002    0.80391913153173389     
   5.9100000000000000E-002    0.63050875142065932     
   5.9400000000000008E-002    0.42447758903283805     
   5.9700000000000003E-002    0.19706597967413861     
   6.0000000000000012E-002    -3.8805020910696444E-002
   6.0300000000000006E-002   -0.26971611556540720     
   6.0600000000000001E-002   -0.48257455394501259     
   6.0900000000000010E-002   -0.66587444287063646     
   6.1200000000000004E-002   -0.81030796006152506     
   6.1500000000000013E-002   -0.90978230682725236     
   6.1800000000000008E-002   -0.96160627395322162     
   6.2100000000000002E-002   -0.96688098096074993     
   6.2399999999999997E-002   -0.93010812163403811     
   6.2700000000000006E-002   -0.85885662042823940     
   6.3000000000000000E-002   -0.76290645924140832     
   6.3300000000000009E-002   -0.65341083106926856     
   6.3600000000000004E-002   -0.54182154412363570     
   6.3899999999999998E-002   -0.43893065627890149     
   6.4199999999999993E-002   -0.35400823366397716     
   6.4500000000000002E-002   -0.29411633850187557     
   6.4800000000000010E-002   -0.26366212381573900     
   6.5100000000000005E-002   -0.26426818328829094     
   6.5400000000000000E-002   -0.29488035580969424     
   6.5700000000000008E-002   -0.35208892073408632     
   6.5999999999999989E-002   -0.43062455360689311     
   6.6299999999999998E-002   -0.52390066015852543     
   6.6600000000000006E-002   -0.62458491986793363     
   6.6900000000000001E-002   -0.72511627862891825     
   6.7199999999999996E-002   -0.81801101806217702     
   6.7500000000000004E-002   -0.89622803624959846     
   6.7800000000000013E-002   -0.95324498305946292     
   6.8099999999999994E-002   -0.98317829526906353     
   6.8400000000000002E-002   -0.98083347629784035     
   6.8700000000000011E-002   -0.94179728144258679     
   6.8999999999999992E-002   -0.86257538643795428     
   6.9300000000000000E-002   -0.74074003300537217     
   6.9600000000000009E-002   -0.57524678273912822     
   6.9900000000000004E-002   -0.36674209867883401     
   7.0199999999999999E-002   -0.11780439313566121     
   7.0500000000000007E-002    0.16691369243767115     
   7.0800000000000016E-002    0.48040905745751439     
   7.1099999999999997E-002    0.81360135057596716     
   7.1400000000000005E-002     1.1554217002711564     
   7.1700000000000000E-002     1.4934528671436182     
   7.1999999999999995E-002     1.8142717446331735     
   7.2300000000000003E-002     2.1042859446809099     
   7.2600000000000012E-002     2.3503388634554767     
   7.2900000000000006E-002     2.5404516629588558     
   7.3200000000000001E-002     2.6643364839762538     
   7.3499999999999996E-002     2.7139940095289452     
   7.3800000000000004E-002     2.6840605680663816     
   7.4099999999999999E-002     2.5719603612448783     
   7.4400000000000008E-002     2.3781135995739571     
   7.4700000000000003E-002     2.1060011787271651     
   7.5000000000000011E-002     1.7620320864413497     
   7.5299999999999992E-002     1.3553436539208197     
   7.5600000000000001E-002    0.89774968979461534     
   7.5900000000000009E-002    0.40337791099738440     
   7.6200000000000004E-002   -0.11164851567840675     
   7.6499999999999999E-002   -0.62990838217918244     
   7.6800000000000007E-002    -1.1330994735323512     
   7.7099999999999988E-002    -1.6029583256018980     
   7.7399999999999997E-002    -2.0218232417761639     
   7.7700000000000005E-002    -2.3738206690644930     
   7.8000000000000014E-002    -2.6454163138332945     
   7.8299999999999995E-002    -2.8264943006300385     
   7.8600000000000003E-002    -2.9106237742988967     
   7.8900000000000012E-002    -2.8957681896482250     
   7.9199999999999993E-002    -2.7841307929550645     
   7.9500000000000001E-002    -2.5822311348929343     
   7.9800000000000010E-002    -2.3003112828091870     
   8.0100000000000018E-002    -1.9516893072672077     
   8.0399999999999999E-002    -1.5519686177128877     
   8.0700000000000008E-002    -1.1180008383719273     
   8.1000000000000003E-002   -0.66706986661517442     
   8.1299999999999997E-002   -0.21569971958407896     
   8.1600000000000006E-002    0.22077574143383796     
   8.1900000000000014E-002    0.62909295708595914     
   8.2199999999999995E-002    0.99806555715442324     
   8.2500000000000004E-002     1.3189688781335116     
   8.2799999999999999E-002     1.5851679777730701     
   8.3100000000000007E-002     1.7921856856944027     
   8.3400000000000002E-002     1.9369116508939270     
   8.3700000000000011E-002     2.0176597984860680     
   8.4000000000000005E-002     2.0335268536484068     
   8.4300000000000000E-002     1.9844944199805630     
   8.4599999999999995E-002     1.8712114107060756     
   8.4900000000000003E-002     1.6953459122670997     
   8.5199999999999998E-002     1.4598149215048677     
   8.5500000000000007E-002     1.1691730739638730     
   8.5800000000000001E-002    0.83028808381450725     
   8.6100000000000010E-002    0.45250009274124292     
   8.6399999999999991E-002     4.8180441624802894E-002
   8.6699999999999999E-002   -0.36774572562378838     
   8.7000000000000008E-002   -0.77749044172012205     
   8.7300000000000003E-002    -1.1619077352095823     
   8.7599999999999997E-002    -1.5005948905609947     
   8.7900000000000006E-002    -1.7741227499819265     
   8.8200000000000014E-002    -1.9645051657217398     
   8.8499999999999995E-002    -2.0577740053697542     
   8.8800000000000004E-002    -2.0442147099697694     
   8.9100000000000013E-002    -1.9204995925885213     
   8.9399999999999993E-002    -1.6894509325074871     
   8.9700000000000002E-002    -1.3611992489753058     
   9.0000000000000011E-002   -0.95194816166335205     
   9.0299999999999991E-002   -0.48384225297689309     
   9.0600000000000000E-002     1.7142318625176484E-002
   9.0900000000000009E-002    0.52212671147226086     
   9.1200000000000017E-002     1.0019701680717510     
   9.1499999999999998E-002     1.4288465330746769     
   9.1800000000000007E-002     1.7785318914698141     
   9.2100000000000001E-002     2.0317208429325353     
   9.2399999999999996E-002     2.1755830412100372     
   9.2700000000000005E-002     2.2043799038245431     
   9.3000000000000013E-002     2.1196293088085016     
   9.3300000000000008E-002     1.9300199142953187     
   9.3600000000000003E-002     1.6501721142283508     
   9.3899999999999997E-002     1.2998443570383198     
   9.4200000000000006E-002    0.90204994415642359     
   9.4500000000000001E-002    0.48182288354141534     
   9.4800000000000009E-002     6.3852254962475125E-002
   9.5100000000000004E-002   -0.32842392250298519     
   9.5399999999999999E-002   -0.67472596104556803     
   9.5699999999999993E-002   -0.95841094165934226     
   9.6000000000000002E-002    -1.1677294114664245     
   9.6300000000000011E-002    -1.2956041656263497     
   9.6600000000000005E-002    -1.3401254748509828     
   9.6900000000000000E-002    -1.3037956825767074     
   9.7200000000000009E-002    -1.1934306146460467     
   9.7499999999999989E-002    -1.0189524086756219     
   9.7799999999999998E-002   -0.79319746963155824     
   9.8100000000000007E-002   -0.53058960883711093     
   9.8400000000000015E-002   -0.24703270283628115     
   9.8699999999999996E-002     4.1434373673527980E-002
   9.9000000000000005E-002    0.31875310781425398     
   9.9300000000000013E-002    0.56978362413573436     
   9.9599999999999994E-002    0.78059041442770916     
   9.9900000000000003E-002    0.93929944065933269     
  0.10020000000000001          1.0363015680929899     
  0.10049999999999999          1.0649329879615297     
  0.10080000000000000          1.0218188122715532     
  0.10110000000000001         0.90720282117726225     
  0.10140000000000000         0.72512852596869348     
  0.10170000000000000         0.48353274993238138     
  0.10200000000000001         0.19378135937059432     
  0.10230000000000002        -0.12965009347896267     
  0.10260000000000000        -0.47014486302201630     
  0.10290000000000001        -0.80970940755173815     
  0.10320000000000000         -1.1302647337652634     
  0.10350000000000001         -1.4145746645293840     
  0.10380000000000000         -1.6477699070053711     
  0.10410000000000001         -1.8181267009616446     
  0.10440000000000001         -1.9179328802305755     
  0.10470000000000000         -1.9439667323759697     
  0.10500000000000000         -1.8977470194571646     
  0.10530000000000000         -1.7850768324124380     
  0.10560000000000000         -1.6157455457969019     
  0.10590000000000001         -1.4022970502040302     
  0.10620000000000000         -1.1593940850088025     
  0.10650000000000001        -0.90198238554649790     
  0.10679999999999999        -0.64470865161447655     
  0.10710000000000000        -0.40000274969493105     
  0.10740000000000001        -0.17804566456346960     
  0.10770000000000000          1.4877149920109078E-002
  0.10800000000000000         0.17582991051766766     
  0.10830000000000001         0.30592214443005222     
  0.10859999999999999         0.40921764848073949     
  0.10890000000000000         0.49286324795689673     
  0.10920000000000001         0.56513469370764813     
  0.10950000000000001         0.63529544229689838     
  0.10979999999999999         0.71168265595488411     
  0.11009999999999999         0.80141843705176719     
  0.11040000000000001         0.90863200134932565     
  0.11070000000000001          1.0348926927217790     
  0.11100000000000000          1.1778561756882895     
  0.11130000000000000          1.3323903432247544     
  0.11160000000000002          1.4898571880459599     
  0.11190000000000001          1.6399952008976766     
  0.11220000000000001          1.7707238485930685     
  0.11250000000000000          1.8703329209274515     
  0.11280000000000000          1.9272602442420466     
  0.11309999999999999          1.9323784233177692     
  0.11340000000000001          1.8786045536643781     
  0.11369999999999998          1.7626895461440280     
  0.11400000000000000          1.5843303658910122     
  0.11430000000000000          1.3474126363652865     
  0.11460000000000002          1.0585593276098042     
  0.11489999999999999         0.72798315969044491     
  0.11520000000000001         0.36756317073233352     
  0.11550000000000001         -8.5052264486332463E-003
  0.11580000000000000        -0.38581109503053307     
  0.11609999999999999        -0.74905881517122375     
  0.11640000000000002         -1.0839738513576775     
  0.11670000000000001         -1.3771025989611387     
  0.11700000000000001         -1.6169832640212638     
  0.11730000000000000         -1.7941312781302430     
  0.11760000000000000         -1.9016964390296218     
  0.11789999999999999         -1.9358146396100042     
  0.11820000000000001         -1.8955887908582718     
  0.11850000000000001         -1.7836954470182218     
  0.11880000000000000         -1.6055087202179514     
  0.11910000000000000         -1.3697243014450922     
  0.11940000000000002         -1.0869978787562005     
  0.11970000000000001        -0.77036819135568257     
  0.12000000000000001        -0.43327577245382143     
  0.12030000000000000         -8.9945058767978869E-002
  0.12060000000000000         0.24704364722959410     
  0.12089999999999999         0.56582978979087217     
  0.12119999999999999         0.85778464245364638     
  0.12150000000000001          1.1160883691264083     
  0.12180000000000001          1.3378545801858825     
  0.12210000000000000          1.5217814789322364     
  0.12239999999999999          1.6697393016223281     
  0.12270000000000002          1.7840701878945779     
  0.12300000000000001          1.8685461534235857     
  0.12330000000000001          1.9255965765732546     
  0.12360000000000000          1.9577661832612114     
  0.12390000000000000          1.9649559105304277     
  0.12419999999999999          1.9462223800671428     
  0.12450000000000001          1.8983956312312515     
  0.12480000000000001          1.8177125085281389     
  0.12509999999999999          1.6995821142377723     
  0.12540000000000001          1.5402034100047475     
  0.12570000000000003          1.3365358185263010     
  0.12600000000000000          1.0879008421343199     
  0.12630000000000002         0.79558369545085894     
  0.12659999999999999         0.46345302214312212     
  0.12690000000000001          9.7652323280344455E-002
  0.12719999999999998        -0.29361931329474877     
  0.12750000000000000        -0.70094172807985866     
  0.12780000000000002         -1.1140167970665478     
  0.12809999999999999         -1.5224815028642293     
  0.12840000000000001         -1.9163073338984797     
  0.12869999999999998         -2.2857620412977564     
  0.12900000000000000         -2.6221525457406476     
  0.12930000000000003         -2.9169133885424214     
  0.12959999999999999         -3.1625692176661508     
  0.12990000000000002         -3.3512058543115337     
  0.13019999999999998         -3.4760462579911948     
  0.13050000000000000         -3.5299720129884116     
  0.13080000000000003         -3.5074908354004450     
  0.13109999999999999         -3.4038224836626032     
  0.13140000000000002         -3.2173371024789774     
  0.13169999999999998         -2.9486900176225488     
  0.13200000000000001         -2.6031585665921932     
  0.13229999999999997         -2.1897217463742673     
  0.13260000000000000         -1.7229504623577272     
  0.13290000000000002         -1.2209096823148171     
  0.13319999999999999        -0.70600546396821784     
  0.13350000000000001        -0.20223790665181668     
  0.13380000000000003         0.26538677267718269     
  0.13410000000000000         0.67373351029977913     
  0.13440000000000002          1.0029369103036927     
  0.13469999999999999          1.2390750190189495     
  0.13500000000000001          1.3753071813512578     
  0.13529999999999998          1.4129408641631849     
  0.13560000000000000          1.3614631637086583     
  0.13590000000000002          1.2381473383583306     
  0.13619999999999999          1.0667554430462072     
  0.13650000000000001         0.87509733085536379     
  0.13680000000000003         0.69248578272330152     
  0.13710000000000000         0.54676051206584053     
  0.13740000000000002         0.46180105445206832     
  0.13769999999999999         0.45439260551332034     
  0.13800000000000001         0.53320641761388266     
  0.13829999999999998         0.69683415571087615     
  0.13860000000000000         0.93500097038357755     
  0.13890000000000002          1.2284070505065321     
  0.13919999999999999          1.5519682749863921     
  0.13950000000000001          1.8757306642278251     
  0.13979999999999998          2.1699116878091349     
  0.14010000000000000          2.4061406282193341     
  0.14040000000000002          2.5620896437330130     
  0.14069999999999999          2.6216218825292641     
  0.14100000000000001          2.5780809634651765     
  0.14130000000000004          2.4329504902320771     
  0.14160000000000000          2.1968442673013691     
  0.14189999999999997          1.8860493971825933     
  0.14219999999999999          1.5219143503552726     
  0.14250000000000002          1.1270867520364003     
  0.14279999999999998         0.72360664030700506     
  0.14310000000000000         0.33030029801748623     
  0.14339999999999997         -3.8798298714712645E-002
  0.14369999999999999        -0.37511157979327436     
  0.14400000000000002        -0.67572451372042652     
  0.14429999999999998        -0.94207795621169099     
  0.14460000000000001         -1.1790326953594241     
  0.14490000000000003         -1.3921937869872918     
  0.14520000000000000         -1.5872621809360714     
  0.14550000000000002         -1.7672376753491055     
  0.14579999999999999         -1.9323307403381134     
  0.14610000000000001         -2.0790896182909315     
  0.14640000000000003         -2.2010235691410851     
  0.14670000000000000         -2.2893760498070934     
  0.14699999999999996         -2.3354648331433028     
  0.14729999999999999         -2.3310632039671795     
  0.14760000000000001         -2.2712999787957040     
  0.14789999999999998         -2.1548013765520952     
  0.14820000000000000         -1.9851406840073347     