  -1.4999999999999999E-002     0.0000000000000000     
  -1.4700000000000000E-002     0.0000000000000000     
  -1.4400000000000000E-002     0.0000000000000000     
  -1.4100000000000000E-002     0.0000000000000000     
  -1.3800000000000000E-002     0.0000000000000000     
  -1.3500000000000000E-002     0.0000000000000000     
  -1.3200000000000000E-002     0.0000000000000000     
  -1.2899999999999998E-002     0.0000000000000000     
  -1.2600000000000000E-002     0.0000000000000000     
  -1.2299999999999998E-002     0.0000000000000000     
  -1.2000000000000000E-002     0.0000000000000000     
  -1.1699999999999999E-002     0.0000000000000000     
  -1.1399999999999999E-002     0.0000000000000000     
  -1.1099999999999999E-002     0.0000000000000000     
  -1.0799999999999999E-002     0.0000000000000000     
  -1.0499999999999999E-002     0.0000000000000000     
  -1.0199999999999999E-002     0.0000000000000000     
  -9.8999999999999991E-003     0.0000000000000000     
  -9.5999999999999992E-003     0.0000000000000000     
  -9.2999999999999992E-003     0.0000000000000000     
  -8.9999999999999993E-003     0.0000000000000000     
  -8.6999999999999994E-003     1.4001078952596905E-037
  -8.3999999999999995E-003     5.3757740721416234E-036
  -8.0999999999999996E-003    -5.6475234379684657E-036
  -7.7999999999999988E-003    -2.5724055371084650E-035
  -7.4999999999999997E-003     6.8080905607085384E-034
  -7.1999999999999998E-003    -1.0386896569722751E-033
  -6.8999999999999981E-003    -4.5800956800885718E-033
  -6.5999999999999982E-003     7.5449536761425843E-033
  -6.3000000000000000E-003     6.5111114302368535E-032
  -6.0000000000000001E-003    -1.6055552396836096E-031
  -5.6999999999999985E-003    -2.5872527463066443E-031
  -5.3999999999999986E-003     1.0033788720342459E-030
  -5.1000000000000004E-003    -9.3354757015994591E-031
  -4.7999999999999987E-003     1.1265042841292906E-029
  -4.5000000000000005E-003    -6.1568964666468332E-029
  -4.1999999999999989E-003     1.3367133915048012E-028
  -3.8999999999999990E-003    -1.3579619841271272E-028
  -3.5999999999999990E-003     1.6933683216928686E-029
  -3.2999999999999991E-003     8.7813809991982061E-028
  -2.9999999999999992E-003    -5.1194761584633400E-027
  -2.6999999999999993E-003     1.4462882377730996E-026
  -2.3999999999999994E-003    -2.3507801949052856E-026
  -2.0999999999999977E-003     1.8667843317909285E-026
  -1.7999999999999995E-003     3.4905989991407758E-026
  -1.4999999999999979E-003    -2.1006000656442728E-025
  -1.1999999999999997E-003     5.0283174813681067E-025
  -8.9999999999999976E-004    -6.6244026132679581E-025
  -5.9999999999999810E-004     3.3827119332577477E-025
  -2.9999999999999992E-004     9.2333993193214644E-025
   0.0000000000000000         -3.8829732232557875E-024
   3.0000000000000165E-004     7.3841116072479439E-024
   5.9999999999999984E-004    -6.5080340467283812E-024
   9.0000000000000149E-004    -1.0670769769408996E-024
   1.2000000000000031E-003     1.3088751677708842E-023
   1.5000000000000013E-003    -3.1098439925712873E-023
   1.8000000000000030E-003     4.2168621867894336E-023
   2.1000000000000012E-003    -1.7122123416610351E-023
   2.3999999999999994E-003    -2.0348511146477033E-023
   2.7000000000000010E-003     5.5167615478754174E-023
   2.9999999999999992E-003    -1.3891870192643769E-022
   3.3000000000000008E-003     3.8328463718301264E-023
   3.6000000000000025E-003     3.6324768682136130E-022
   3.9000000000000007E-003     8.2657109332604631E-023
   4.2000000000000023E-003    -1.6955403750876583E-021
   4.5000000000000005E-003     1.2678541597285183E-021
   4.7999999999999987E-003     3.3014217164230412E-021
   5.1000000000000004E-003    -7.9435885900459260E-021
   5.4000000000000020E-003     2.1416363413950363E-021
   5.7000000000000037E-003     2.2121243983150686E-020
   5.9999999999999984E-003    -2.8190094003687959E-020
   6.3000000000000000E-003    -4.5565275840119611E-020
   6.6000000000000017E-003     1.0533951094926804E-019
   6.9000000000000034E-003     5.2582001681924089E-020
   7.2000000000000015E-003    -2.7102888289151692E-019
   7.5000000000000032E-003     6.9849150368069957E-020
   7.8000000000000014E-003     5.0319256690798470E-019
   8.0999999999999996E-003    -5.3813632698380288E-019
   8.4000000000000012E-003    -7.0572335049247884E-019
   8.7000000000000029E-003     1.6822512841868443E-018
   9.0000000000000011E-003     7.1217722967968956E-019
   9.2999999999999992E-003    -3.8862794056680860E-018
   9.6000000000000009E-003     3.1835693572190570E-020
   9.8999999999999991E-003     6.8824026963351002E-018
   1.0200000000000001E-002    -3.2431164457659558E-018
   1.0500000000000002E-002    -7.2366610943045664E-018
   1.0800000000000004E-002     1.0828700233698256E-017
   1.1099999999999999E-002    -6.3199569421612820E-018
   1.1400000000000000E-002    -1.2219462632630672E-017
   1.1700000000000002E-002     4.8696850674469105E-017
   1.2000000000000004E-002    -5.2232422344214844E-017
   1.2300000000000002E-002    -8.6817735285081278E-017
   1.2600000000000000E-002     3.2220143674205645E-016
   1.2900000000000002E-002    -1.0403109878244882E-016
   1.3200000000000000E-002    -9.0494965686938884E-016
   1.3500000000000002E-002     1.1121844131519332E-015
   1.3800000000000003E-002     1.4093638743756799E-015
   1.4100000000000001E-002    -3.7517019677163063E-015
   1.4400000000000000E-002    -1.6893311797980827E-016
   1.4700000000000001E-002     8.0666023995042452E-015
   1.4999999999999999E-002    -6.0612038540001504E-015
   1.5300000000000001E-002    -1.1284234063103302E-014
   1.5600000000000003E-002     2.0478887477662264E-014
   1.5899999999999997E-002     5.1792957817559905E-015
   1.6199999999999999E-002    -4.0696766620989532E-014
   1.6500000000000001E-002     2.6551680257922060E-014
   1.6800000000000002E-002     4.2347544964314518E-014
   1.7100000000000004E-002    -1.0263200553552525E-013
   1.7400000000000006E-002     6.6735468065904832E-014
   1.7700000000000000E-002     1.7803867377240203E-013
   1.8000000000000002E-002    -5.1553748565867526E-013
   1.8300000000000004E-002     1.1287685434208843E-013
   1.8600000000000005E-002     1.5856310049660264E-012
   1.8900000000000000E-002    -1.9288488897599790E-012
   1.9200000000000002E-002    -2.9515753529048632E-012
   1.9500000000000003E-002     7.0600870950077756E-012
   1.9799999999999998E-002     2.6326110789216684E-012
   2.0100000000000000E-002    -1.3726311762906796E-011
   2.0400000000000001E-002     1.8768332280945061E-013
   2.0700000000000003E-002    -2.0882713102486610E-012
   2.0999999999999998E-002     1.8403318838440090E-011
   2.1299999999999999E-002     1.5802710614143185E-010
   2.1600000000000001E-002    -1.9613773924668824E-010
   2.1900000000000003E-002    -9.5759716883555954E-010
   2.2200000000000004E-002     1.0042613716064608E-009
   2.2500000000000006E-002     4.5521557554009923E-009
   2.2800000000000001E-002    -3.2946624051984660E-009
   2.3100000000000002E-002    -2.0170329566380585E-008
   2.3400000000000004E-002     2.6173130415584532E-009
   2.3699999999999999E-002     7.7181983945826635E-008
   2.4000000000000000E-002     3.4991832281644767E-008
   2.4300000000000002E-002    -2.8083454313665026E-007
   2.4599999999999997E-002    -3.0284726859882236E-007
   2.4900000000000005E-002     1.6305401122439998E-006
   2.5200000000000000E-002     7.0438366234250621E-006
   2.5499999999999995E-002     1.5209508606254499E-005
   2.5800000000000003E-002     2.3334821692459439E-005
   2.6099999999999998E-002     3.0452281251962897E-005
   2.6400000000000007E-002     4.0781224432055698E-005
   2.6700000000000002E-002     6.1317559319660759E-005
   2.6999999999999996E-002     9.6032424068940220E-005
   2.7300000000000005E-002     1.4478699962360461E-004
   2.7600000000000000E-002     2.0878642131134467E-004
   2.7900000000000008E-002     2.9519895896360692E-004
   2.8200000000000003E-002     4.1573175194836173E-004
   2.8499999999999998E-002     5.8216997676559148E-004
   2.8800000000000006E-002     8.0260440104483130E-004
   2.9100000000000001E-002     1.0796000579524167E-003
   2.9400000000000003E-002     1.4122615324961281E-003
   2.9700000000000004E-002     1.7995545671490049E-003
   3.0000000000000006E-002     2.2333750986828372E-003
   3.0300000000000001E-002     2.6801444718840212E-003
   3.0600000000000002E-002     3.0696959607143066E-003
   3.0900000000000004E-002     3.2995932865857117E-003
   3.1199999999999999E-002     3.2303506523600114E-003
   3.1500000000000007E-002     2.6575361237161973E-003
   3.1800000000000002E-002     1.2894920436561025E-003
   3.2099999999999997E-002    -1.2447042599263792E-003
   3.2400000000000005E-002    -5.3826121141268739E-003
   3.2700000000000000E-002    -1.1635892612236284E-002
   3.3000000000000002E-002    -2.0589138453037885E-002
   3.3300000000000003E-002    -3.2858556762760928E-002
   3.3599999999999998E-002    -4.9030522781006725E-002
   3.3900000000000000E-002    -6.9608512627228336E-002
   3.4200000000000001E-002    -9.4937469362755697E-002
   3.4500000000000003E-002   -0.12507743526074641     
   3.4799999999999998E-002   -0.15965788026926184     
   3.5099999999999999E-002   -0.19777309929535208     
   3.5400000000000001E-002   -0.23790791435992947     
   3.5699999999999996E-002   -0.27784698574608518     
   3.6000000000000004E-002   -0.31459327395768610     
   3.6299999999999999E-002   -0.34436214684311289     
   3.6600000000000008E-002   -0.36270134009377381     
   3.6900000000000002E-002   -0.36466610322262549     
   3.7199999999999997E-002   -0.34507571315274188     
   3.7500000000000006E-002   -0.29882378638663115     
   3.7800000000000000E-002   -0.22133921410234816     
   3.8100000000000009E-002   -0.10907170805164046     
   3.8400000000000004E-002     3.9943580426433895E-002
   3.8699999999999998E-002    0.22568576298936277     
   3.9000000000000007E-002    0.44569776327727828     
   3.9300000000000002E-002    0.69483231239099208     
   3.9600000000000003E-002    0.96502723022837666     
   3.9900000000000005E-002     1.2454033241935223     
   4.0200000000000000E-002     1.5225153364830062     
   4.0500000000000001E-002     1.7809489865334132     
   4.0800000000000003E-002     2.0039654509156914     
   4.1100000000000005E-002     2.1744835632574140     
   4.1399999999999999E-002     2.2760281568210003     
   4.1700000000000008E-002     2.2939390643336086     
   4.2000000000000003E-002     2.2163893449510637     
   4.2299999999999997E-002     2.0353780036236477     
   4.2600000000000006E-002     1.7477582981774127     
   4.2900000000000001E-002     1.3555500423435629     
   4.3200000000000002E-002    0.86657782533770544     
   4.3500000000000004E-002    0.29408883927211205     
   4.3799999999999999E-002   -0.34318109149959325     
   4.4100000000000000E-002    -1.0220628176395046     
   4.4400000000000002E-002    -1.7154078149696659     
   4.4700000000000004E-002    -2.3939627565054113     
   4.4999999999999998E-002    -3.0268628743156607     
   4.5300000000000000E-002    -3.5839703865838457     
   4.5600000000000002E-002    -4.0366240903045254     
   4.5899999999999996E-002    -4.3599586868468414     
   4.6200000000000005E-002    -4.5334355511596778     
   4.6500000000000000E-002    -4.5429551631878704     
   4.6799999999999994E-002    -4.3811547125501695     
   4.7100000000000003E-002    -4.0488452370779910     
   4.7399999999999998E-002    -3.5546538557988003     
   4.7700000000000006E-002    -2.9158319537600974     
   4.8000000000000001E-002    -2.1570963833893617     
   4.8300000000000010E-002    -1.3105267506946885     
   4.8600000000000004E-002   -0.41339019592450121     
   4.8899999999999999E-002    0.49297271709531076     
   4.9200000000000008E-002     1.3656030786775979     
   4.9500000000000002E-002     2.1619405369927298     
   4.9800000000000011E-002     2.8428917720088549     
   5.0100000000000006E-002     3.3746889220082212     
   5.0400000000000000E-002     3.7315923301035174     
   5.0700000000000009E-002     3.8973856753947267     
   5.1000000000000004E-002     3.8667724220476627     
   5.1299999999999998E-002     3.6459579303091245     
   5.1600000000000007E-002     3.2524526594731187     
   5.1900000000000002E-002     2.7138836426565280     
   5.2200000000000010E-002     2.0664400872219364     
   5.2500000000000005E-002     1.3523305127755272     
   5.2800000000000000E-002    0.61696348877923590     
   5.3099999999999994E-002    -9.4061417103938727E-002
   5.3400000000000003E-002   -0.73814911749600232     
   5.3699999999999998E-002    -1.2781609617603487     
   5.4000000000000006E-002    -1.6853162823806964     
   5.4300000000000001E-002    -1.9402106166284925     
   5.4599999999999996E-002    -2.0345936723132287     
   5.4900000000000004E-002    -1.9703668463642949     
   5.5199999999999999E-002    -1.7600909913036344     
   5.5499999999999994E-002    -1.4245246794224111     
   5.5800000000000002E-002   -0.99195581766682572     
   5.6099999999999997E-002   -0.49463030894252924     
   5.6400000000000006E-002     3.2266798724030460E-002
   5.6700000000000000E-002    0.55430714516323221     
   5.6999999999999995E-002     1.0386167098316159     
   5.7300000000000004E-002     1.4569146470153285     
   5.7599999999999998E-002     1.7857685339262321     
   5.7900000000000007E-002     2.0083302710627269     
   5.8200000000000002E-002     2.1139285112492940     
   5.8499999999999996E-002     2.0986132867129736     
   5.8800000000000005E-002     1.9643196372702887     
   5.9100000000000000E-002     1.7185188680206436     
   5.9400000000000008E-002     1.3730942357582039     
   5.9700000000000003E-002    0.94373946237973705     
   6.0000000000000012E-002    0.44896440658012837     
   6.0300000000000006E-002    -9.0593203155003854E-002
   6.0600000000000001E-002   -0.65306535808193600     
   6.0900000000000010E-002    -1.2158630301439566     
   6.1200000000000004E-002    -1.7563497154408538     
   6.1500000000000013E-002    -2.2523671947387300     
   6.1800000000000008E-002    -2.6830122676195454     
   6.2100000000000002E-002    -3.0292475123440425     
   6.2399999999999997E-002    -3.2746053556653201     
   6.2700000000000006E-002    -3.4059027170976366     
   6.3000000000000000E-002    -3.4141323669572228     
   6.3300000000000009E-002    -3.2946203541287096     
   6.3600000000000004E-002    -3.0481052286342609     
   6.3899999999999998E-002    -2.6803656036727892     
   6.4199999999999993E-002    -2.2027885903139319     
   6.4500000000000002E-002    -1.6311073423644462     
   6.4800000000000010E-002   -0.98568727745148599     
   6.5100000000000005E-002   -0.28922364152302910     
   6.5400000000000000E-002    0.43294314083641194     
   6.5700000000000008E-002     1.1557794690886576     
   6.5999999999999989E-002     1.8545348375287320     
   6.6299999999999998E-002     2.5071332295812629     
   6.6600000000000006E-002     3.0940466036800087     
   6.6900000000000001E-002     3.6002414691877855     
   6.7199999999999996E-002     4.0141836131448922     
   6.7500000000000004E-002     4.3290606143640611     
   6.7800000000000013E-002     4.5410956743767921     
   6.8099999999999994E-002     4.6505109701686456     
   6.8400000000000002E-002     4.6595127714200801     
   6.8700000000000011E-002     4.5727071710584477     
   6.8999999999999992E-002     4.3953950678552189     
   6.9300000000000000E-002     4.1345396881285872     
   6.9600000000000009E-002     3.7972439966579357     
   6.9900000000000004E-002     3.3921808576943184     
   7.0199999999999999E-002     2.9284091084689012     
   7.0500000000000007E-002     2.4170208498305676     
   7.0800000000000016E-002     1.8696215077113911     
   7.1099999999999997E-002     1.3000716440273479     
   7.1400000000000005E-002    0.72263958898770975     
   7.1700000000000000E-002    0.15288075106371668     
   7.1999999999999995E-002   -0.39504377143415820     
   7.2300000000000003E-002   -0.90749052335042257     
   7.2600000000000012E-002    -1.3739953070779982     
   7.2900000000000006E-002    -1.7867871113274023     
   7.3200000000000001E-002    -2.1430079056113081     
   7.3499999999999996E-002    -2.4433313019945442     
   7.3800000000000004E-002    -2.6926813265611131     
   7.4099999999999999E-002    -2.8987495266071850     
   7.4400000000000008E-002    -3.0711808606919710     
   7.4700000000000003E-002    -3.2190960354896108     
   7.5000000000000011E-002    -3.3503845371586416     
   7.5299999999999992E-002    -3.4688929247039177     
   7.5600000000000001E-002    -3.5747829827831814     
   7.5900000000000009E-002    -3.6626579837069770     
   7.6200000000000004E-002    -3.7234680558509980     
   7.6499999999999999E-002    -3.7440004873291084     
   7.6800000000000007E-002    -3.7105795916718600     
   7.7099999999999988E-002    -3.6095157882239701     
   7.7399999999999997E-002    -3.4314543327387073     
   7.7700000000000005E-002    -3.1711623631835439     
   7.8000000000000014E-002    -2.8316535409455734     
   7.8299999999999995E-002    -2.4222803522953447     
   7.8600000000000003E-002    -1.9609083083204575     
   7.8900000000000012E-002    -1.4698333223075706     
   7.9199999999999993E-002   -0.97607053356131623     
   7.9500000000000001E-002   -0.50592262017564282     
   7.9800000000000010E-002    -8.3964686048479453E-002
   8.0100000000000018E-002    0.27242752250247632     
   8.0399999999999999E-002    0.55280797528867809     
   8.0700000000000008E-002    0.75761507717748233     
   8.1000000000000003E-002    0.89589972640644522     
   8.1299999999999997E-002    0.98662443326312865     
   8.1600000000000006E-002     1.0542291103871240     
   8.1900000000000014E-002     1.1270066026718923     
   8.2199999999999995E-002     1.2320830037132806     
   8.2500000000000004E-002     1.3926833153739788     
   8.2799999999999999E-002     1.6239900986874880     
   8.3100000000000007E-002     1.9319114225875893     
   8.3400000000000002E-002     2.3106836250274001     
   8.3700000000000011E-002     2.7446330776829906     
   8.4000000000000005E-002     3.2080424471802447     
   8.4300000000000000E-002     3.6698358754685829     
   8.4599999999999995E-002     4.0949052597199636     
   8.4900000000000003E-002     4.4497588932755736     
   8.5199999999999998E-002     4.7035488012650548     
   8.5500000000000007E-002     4.8324283519732338     
   8.5800000000000001E-002     4.8188125280604339     
   8.6100000000000010E-002     4.6536204596944657     
   8.6399999999999991E-002     4.3325778760320794     
   8.6699999999999999E-002     3.8570909518448238     
   8.7000000000000008E-002     3.2293210195070410     
   8.7300000000000003E-002     2.4527162229690882     
   8.7599999999999997E-002     1.5290035138237414     
   8.7900000000000006E-002    0.46069943068055275     
   8.8200000000000014E-002   -0.74891195182113046     
   8.8499999999999995E-002    -2.0899840864134092     
   8.8800000000000004E-002    -3.5434510262465952     
   8.9100000000000013E-002    -5.0738387317364673     
   8.9399999999999993E-002    -6.6267963972587882     
   8.9700000000000002E-002    -8.1246684293036946     
   9.0000000000000011E-002    -9.4679865043387519     
   9.0299999999999991E-002    -10.538816264152970     
   9.0600000000000000E-002    -11.208535669239847     
   9.0900000000000009E-002    -11.349516411795939     
   9.1200000000000017E-002    -10.849902081885107     
   9.1499999999999998E-002    -9.6290097256923808     
   9.1800000000000007E-002    -7.6534145994596763     
   9.2100000000000001E-002    -4.9494937723012500     
   9.2399999999999996E-002    -1.6114399002912942     
   9.2700000000000005E-002     2.1959516080884067     
   9.3000000000000013E-002     6.2438261560751922     
   9.3300000000000008E-002     10.252278788361256     
   9.3600000000000003E-002     13.910120374385018     
   9.3899999999999997E-002     16.901662062993807     
   9.4200000000000006E-002     18.934110980377564     
   9.4500000000000001E-002     19.767280558114138     
   9.4800000000000009E-002     19.238097708095736     
   9.5100000000000004E-002     17.282324216616765     
   9.5399999999999999E-002     13.943161614332425     
   9.5699999999999993E-002     9.3760762617874409     
   9.6000000000000002E-002     3.8367749308090238     
   9.6300000000000011E-002    -2.3333617857523530     
   9.6600000000000005E-002    -8.7378035729801038     
   9.6900000000000000E-002    -14.951525021234303     
   9.7200000000000009E-002    -20.559897019673674     
   9.7499999999999989E-002    -25.186826715020448     
   9.7799999999999998E-002    -28.527313862586247     
   9.8100000000000007E-002    -30.365485080882262     
   9.8400000000000015E-002    -30.591370860569974     
   9.8699999999999996E-002    -29.200641447498029     
   9.9000000000000005E-002    -26.293704962768935     
   9.9300000000000013E-002    -22.057008510251567     
   9.9599999999999994E-002    -16.748515719128452     
   9.9900000000000003E-002    -10.669594701252409     
  0.10020000000000001         -4.1447359117581755     
  0.10049999999999999          2.5055726882892060     
  0.10080000000000000          8.9813423991543289     
  0.10110000000000001          15.021276029886412     
  0.10140000000000000          20.410931172901901     
  0.10170000000000000          24.987610239025798     
  0.10200000000000001          28.641527279899218     
  0.10230000000000002          31.310151421964257     
  0.10260000000000000          32.973998955271071     
  0.10290000000000001          33.646700092393246     
  0.10320000000000000          33.371039607696950     
  0.10350000000000001          32.208399484269478     
  0.10380000000000000          30.237176759802928     
  0.10410000000000001          27.545178924767139     
  0.10440000000000001          24.230389108754178     
  0.10470000000000000          20.396641186622446     
  0.10500000000000000          16.153647111697346     
  0.10530000000000000          11.614431426242666     
  0.10560000000000000          6.8972495075952160     
  0.10590000000000001          2.1172030605263288     
  0.10620000000000000         -2.6059334648931314     
  0.10650000000000001         -7.1638915677369539     
  0.10679999999999999         -11.446335980990771     
  0.10710000000000000         -15.362742110849393     
  0.10740000000000001         -18.824516104272067     
  0.10770000000000000         -21.767807631334065     
  0.10800000000000000         -24.136216385969686     
  0.10830000000000001         -25.899256270430236     
  0.10859999999999999         -27.036378951517076     
  0.10890000000000000         -27.552117771984538     
  0.10920000000000001         -27.460900250642798     
  0.10950000000000001         -26.798955591695325     
  0.10979999999999999         -25.608530690171591     
  0.11009999999999999         -23.949893568750174     
  0.11040000000000001         -21.884100542264363     
  0.11070000000000001         -19.484882931228725     
  0.11100000000000000         -16.822257082977011     
  0.11130000000000000         -13.973378010243003     
  0.11160000000000002         -11.008023870129442     
  0.11190000000000001         -7.9990018324748924     
  0.11220000000000001         -5.0091991831107299     
  0.11250000000000000         -2.1023949831278532     
  0.11280000000000000         0.66982881923076265     
  0.11309999999999999          3.2556152212347289     
  0.11340000000000001          5.6173614441330280     
  0.11369999999999998          7.7177544679395780     
  0.11400000000000000          9.5346772059066058     
  0.11430000000000000          11.047352967831459     
  0.11460000000000002          12.252529016508785     
  0.11489999999999999          13.147309883377723     
  0.11520000000000001          13.746770569675451     
  0.11550000000000001          14.066379904136205     
  0.11580000000000000          14.136165557765452     
  0.11609999999999999          13.985963910988122     
  0.11640000000000002          13.654940279945526     
  0.11670000000000001          13.179055710268772     
  0.11700000000000001          12.596946315998286     
  0.11730000000000000          11.940661540633338     
  0.11760000000000000          11.240265584322653     
  0.11789999999999999          10.515581002872969     
  0.11820000000000001          9.7803123231977587     
  0.11850000000000001          9.0384874435037723     
  0.11880000000000000          8.2875410518664410     
  0.11910000000000000          7.5172211445081061     
  0.11940000000000002          6.7133106972571737     
  0.11970000000000001          5.8582621455713744     
  0.12000000000000001          4.9361008480574178     
  0.12030000000000000          3.9320503856255300     
  0.12060000000000000          2.8385983979767198     
  0.12089999999999999          1.6549561186497224     
  0.12119999999999999         0.38945544608618099     
  0.12150000000000001        -0.93998679092123516     
  0.12180000000000001         -2.3053105559706237     
  0.12210000000000000         -3.6703196306650550     
  0.12239999999999999         -4.9932214312395011     
  0.12270000000000002         -6.2272064316924096     
  0.12300000000000001         -7.3256243474103995     
  0.12330000000000001         -8.2449580419147992     
  0.12360000000000000         -8.9469046173636535     
  0.12390000000000000         -9.4035901044402106     
  0.12419999999999999         -9.5979769714303362     
  0.12450000000000001         -9.5262708171312500     
  0.12480000000000001         -9.1989058149947116     
  0.12509999999999999         -8.6390762894258994     
  0.12540000000000001         -7.8825127638118104     
  0.12570000000000003         -6.9742503064979831     
  0.12600000000000000         -5.9660932723281119     
  0.12630000000000002         -4.9116393437280230     
  0.12659999999999999         -3.8657404690272577     
  0.12690000000000001         -2.8759434585291714     
  0.12719999999999998         -1.9841422695109365     
  0.12750000000000000         -1.2198478552764795     
  0.12780000000000002        -0.60258405513842150     
  0.12809999999999999        -0.13714885968724211     
  0.12840000000000001         0.18185238931036207     
  0.12869999999999998         0.37132675115489966     
  0.12900000000000000         0.45581377298050163     
  0.12930000000000003         0.46541713126983564     
  0.12959999999999999         0.43174750959629293     
  0.12990000000000002         0.38629503328994730     
  0.13019999999999998         0.35691967502665978     
  0.13050000000000000         0.36646258984222102     
  0.13080000000000003         0.43129188283754405     
  0.13109999999999999         0.56119706473605879     
  0.13140000000000002         0.75989106232051840     
  0.13169999999999998          1.0251318153688616     
  0.13200000000000001          1.3499084029625652     
  0.13229999999999997          1.7232995573353047     
  0.13260000000000000          2.1315715376542732     
  0.13290000000000002          2.5585229042749043     
  0.13319999999999999          2.9861610190283745     
  0.13350000000000001          3.3943806202171358     
  0.13380000000000003          3.7625855960949623     
  0.13410000000000000          4.0684059782604223     
  0.13440000000000002          4.2913317774120783     
  0.13469999999999999          4.4099092046797326     
  0.13500000000000001          4.4084881960684594     
  0.13529999999999998          4.2736650479092457     
  0.13560000000000000          4.0012675555512871     
  0.13590000000000002          3.5918723524613809     
  0.13619999999999999          3.0592762890245373     
  0.13650000000000001          2.4216776825221542     
  0.13680000000000003          1.7111145062781787     
  0.13710000000000000         0.95968913145678258     
  0.13740000000000002         0.21187461112758554     
  0.13769999999999999        -0.49608430468991971     
  0.13800000000000001         -1.1204527590001134     
  0.13829999999999998         -1.6336791977929492     
  0.13860000000000000         -2.0060237611906389     
  0.13890000000000002         -2.2301019353252607     
  0.13919999999999999         -2.2982470845225373     
  0.13950000000000001         -2.2274257649888316     
  0.13979999999999998         -2.0326819023561629     
  0.14010000000000000         -1.7503517993943589     
  0.14040000000000002         -1.4104623661975151     
  0.14069999999999999         -1.0566124005137882     
  0.14100000000000001        -0.72089589562568535     
  0.14130000000000004        -0.44126908860874936     
  0.14160000000000000        -0.23880790606854224     
  0.14189999999999997        -0.13453579921642095     
  0.14219999999999999        -0.13081788986119974     
  0.14250000000000002        -0.22736052929954209     
  0.14279999999999998        -0.40644716034469863     
  0.14310000000000000        -0.65012824077646614     
  0.14339999999999997        -0.92675346661980806     
  0.14369999999999999         -1.2088109271047771     
  0.14400000000000002         -1.4618529750325444     
  0.14429999999999998         -1.6606149606992255     
  0.14460000000000001         -1.7783336306511364     
  0.14490000000000003         -1.8018490588888949     
  0.14520000000000000         -1.7199376600683027     
  0.14550000000000002         -1.5371282729187135     
  0.14579999999999999         -1.2596205315718243     
  0.14610000000000001        -0.90831405670301502     
  0.14640000000000003        -0.50403055498760396     
  0.14670000000000000         -7.7862743014530084E-002
  0.14699999999999996         0.34293902808026355     
  0.14729999999999999         0.72526921320107485     
  0.14760000000000001          1.0446490241730007     
  0.14789999999999998          1.2752926569408647     
  0.14820000000000000          1.4033492743774008     