  -1.4999999999999999E-002     0.0000000000000000     
  -1.4700000000000000E-002     0.0000000000000000     
  -1.4400000000000000E-002     0.0000000000000000     
  -1.4100000000000000E-002     0.0000000000000000     
  -1.3800000000000000E-002     0.0000000000000000     
  -1.3500000000000000E-002     0.0000000000000000     
  -1.3200000000000000E-002     0.0000000000000000     
  -1.2899999999999998E-002     0.0000000000000000     
  -1.2600000000000000E-002     0.0000000000000000     
  -1.2299999999999998E-002     0.0000000000000000     
  -1.2000000000000000E-002     0.0000000000000000     
  -1.1699999999999999E-002     0.0000000000000000     
  -1.1399999999999999E-002     0.0000000000000000     
  -1.1099999999999999E-002     0.0000000000000000     
  -1.0799999999999999E-002    -2.6069708168240269E-037
  -1.0499999999999999E-002    -1.3377026743531363E-035
  -1.0199999999999999E-002     8.9042046795870818E-035
  -9.8999999999999991E-003    -5.9617978694092727E-035
  -9.5999999999999992E-003    -4.1713603321063319E-033
  -9.2999999999999992E-003     1.3039845625974021E-032
  -8.9999999999999993E-003     7.4995255887642588E-032
  -8.6999999999999994E-003    -3.5144755120218838E-031
  -8.3999999999999995E-003    -7.4810704587347193E-031
  -8.0999999999999996E-003     5.0341136120263859E-030
  -7.7999999999999988E-003     5.0781687520622949E-030
  -7.4999999999999997E-003    -4.9239215804773363E-029
  -7.1999999999999998E-003    -2.6267861749097767E-029
  -6.8999999999999981E-003     3.2789831004181220E-028
  -6.5999999999999982E-003     3.4224619227317447E-028
  -6.3000000000000000E-003    -2.2246234092603504E-027
  -6.0000000000000001E-003    -2.5671345277346987E-027
  -5.6999999999999985E-003     1.2643593260431289E-026
  -5.3999999999999986E-003     9.4933321210298957E-027
  -5.1000000000000004E-003    -2.1091586433634469E-026
  -4.7999999999999987E-003    -1.5785220339272315E-025
  -4.5000000000000005E-003     2.5232042895993940E-025
  -4.1999999999999989E-003     3.6034497798340294E-025
  -3.8999999999999990E-003    -6.7689602624625787E-025
  -3.5999999999999990E-003     6.7092752975308224E-025
  -3.2999999999999991E-003    -5.6466194423542696E-024
  -2.9999999999999992E-003     1.0508042560249816E-023
  -2.6999999999999993E-003     1.4634906130711214E-024
  -2.3999999999999994E-003    -1.1687173573176999E-023
  -2.0999999999999977E-003     3.6594885414766278E-023
  -1.7999999999999995E-003    -1.9122493075510483E-022
  -1.4999999999999979E-003     2.4307478371902006E-022
  -1.1999999999999997E-003     2.7389247933788163E-022
  -8.9999999999999976E-004    -6.7602870881361127E-022
  -5.9999999999999810E-004     3.7516985567870749E-022
  -2.9999999999999992E-004    -7.3696778621234880E-022
   0.0000000000000000         -4.9917445651248306E-023
   3.0000000000000165E-004     3.1859899897428803E-021
   5.9999999999999984E-004     1.8376958946642704E-021
   9.0000000000000149E-004    -8.0426675627569449E-021
   1.2000000000000031E-003    -9.7034779660061344E-021
   1.5000000000000013E-003     1.5734800758642097E-020
   1.8000000000000030E-003    -4.6012466397941419E-021
   2.1000000000000012E-003     5.9583054662797188E-020
   2.3999999999999994E-003     3.0119832642649788E-020
   2.7000000000000010E-003    -3.9051691875430724E-019
   2.9999999999999992E-003     1.5028772760242736E-019
   3.3000000000000008E-003     9.1151126869087588E-019
   3.6000000000000025E-003    -1.1116244340471643E-018
   3.9000000000000007E-003    -5.7592547446074609E-019
   4.2000000000000023E-003     4.0637277361710566E-018
   4.5000000000000005E-003    -4.2000637672683694E-018
   4.7999999999999987E-003    -9.9926000768025566E-018
   5.1000000000000004E-003     2.0383394513953639E-017
   5.4000000000000020E-003     1.5290154097223627E-017
   5.7000000000000037E-003    -5.4445132013569498E-017
   5.9999999999999984E-003    -2.7792856988739409E-018
   6.3000000000000000E-003     1.0317362695511320E-016
   6.6000000000000017E-003    -7.0618803544690957E-017
   6.9000000000000034E-003    -1.4443757960193401E-016
   7.2000000000000015E-003     2.7112425219753863E-016
   7.5000000000000032E-003     1.4600623798405362E-016
   7.8000000000000014E-003    -6.3434314905165646E-016
   8.0999999999999996E-003    -1.1319349562565262E-016
   8.4000000000000012E-003     1.0755951229082433E-015
   8.7000000000000029E-003     1.1690278256094020E-016
   9.0000000000000011E-003    -1.3875870663782499E-015
   9.2999999999999992E-003    -1.6638468654042614E-016
   9.6000000000000009E-003     1.4775805963321286E-015
   9.8999999999999991E-003     7.5526252508084888E-017
   1.0200000000000001E-002    -1.8249974477067482E-015
   1.0500000000000002E-002    -2.8214733809090262E-016
   1.0800000000000004E-002     4.0623459702907191E-015
   1.1099999999999999E-002     4.7535876476700926E-015
   1.1400000000000000E-002    -1.2624892968721713E-014
   1.1700000000000002E-002    -2.3529736627194476E-014
   1.2000000000000004E-002     4.0329305343832998E-014
   1.2300000000000002E-002     6.4232893909641516E-014
   1.2600000000000000E-002    -1.1829593045547912E-013
   1.2900000000000002E-002    -9.9521132720423081E-014
   1.3200000000000000E-002     2.9630159459257582E-013
   1.3500000000000002E-002     2.2254059299126275E-014
   1.3800000000000003E-002    -6.0103979915398994E-013
   1.4100000000000001E-002     3.4554613288979102E-013
   1.4400000000000000E-002     9.4106053647527220E-013
   1.4700000000000001E-002    -1.1081144163455046E-012
   1.4999999999999999E-002    -1.0500217784102656E-012
   1.5300000000000001E-002     2.0827222409527402E-012
   1.5600000000000003E-002     6.0461724139730147E-013
   1.5899999999999997E-002    -2.8091353815308418E-012
   1.6199999999999999E-002     8.1923067905074922E-013
   1.6500000000000001E-002     2.4112770318269269E-012
   1.6800000000000002E-002    -5.5059707478697089E-012
   1.7100000000000004E-002     5.2754795174955822E-012
   1.7400000000000006E-002     2.2982708437598788E-011
   1.7700000000000000E-002    -5.9665109275892962E-011
   1.8000000000000002E-002    -7.6110528798225624E-011
   1.8300000000000004E-002     3.4508485727401207E-010
   1.8600000000000005E-002     1.9548041724264382E-010
   1.8900000000000000E-002    -1.5954187280932751E-009
   1.9200000000000002E-002    -4.3627190819198187E-010
   1.9500000000000003E-002     6.5755587035991079E-009
   1.9799999999999998E-002     1.5760390875721949E-009
   2.0100000000000000E-002    -2.5609878879931015E-008
   2.0400000000000001E-002    -1.3085862575801517E-008
   2.0700000000000003E-002     8.8207472834642148E-008
   2.0999999999999998E-002     8.4429796752663256E-008
   2.1299999999999999E-002    -2.9059734187790519E-007
   2.1600000000000001E-002    -4.8087213421668082E-007
   2.1900000000000003E-002     1.4503567091489898E-006
   2.2200000000000004E-002     7.4866510800545492E-006
   2.2500000000000006E-002     1.7142638185489666E-005
   2.2800000000000001E-002     2.7197563843390581E-005
   2.3100000000000002E-002     3.5604365914343035E-005
   2.3400000000000004E-002     4.5846936305083285E-005
   2.3699999999999999E-002     6.5592502023293817E-005
   2.4000000000000000E-002     1.0008336094521210E-004
   2.4300000000000002E-002     1.4918037618374337E-004
   2.4599999999999997E-002     2.1350239910623563E-004
   2.4900000000000005E-002     3.0162537358176966E-004
   2.5200000000000000E-002     4.2710144316387028E-004
   2.5499999999999995E-002     5.9806600306941730E-004
   2.5800000000000003E-002     8.1241510752771669E-004
   2.6099999999999998E-002     1.0629119633422295E-003
   2.6400000000000007E-002     1.3441188894848959E-003
   2.6700000000000002E-002     1.6521713830039766E-003
   2.6999999999999996E-002     1.9726028327562571E-003
   2.7300000000000005E-002     2.2569795357253088E-003
   2.7600000000000000E-002     2.4013758900294190E-003
   2.7900000000000008E-002     2.2440408578707919E-003
   2.8200000000000003E-002     1.5760761301800590E-003
   2.8499999999999998E-002     1.3643911143802404E-004
   2.8800000000000006E-002    -2.4175530590223515E-003
   2.9100000000000001E-002    -6.5349452047448724E-003
   2.9400000000000003E-002    -1.2762381426236619E-002
   2.9700000000000004E-002    -2.1714480336196381E-002
   3.0000000000000006E-002    -3.4048262800881413E-002
   3.0300000000000001E-002    -5.0438237777296002E-002
   3.0600000000000002E-002    -7.1515987032410772E-002
   3.0900000000000004E-002    -9.7759636004580597E-002
   3.1199999999999999E-002   -0.12936101510331383     
   3.1500000000000007E-002   -0.16610634268062671     
   3.1800000000000002E-002   -0.20725849875030417     
   3.2099999999999997E-002   -0.25142424244399852     
   3.2400000000000005E-002   -0.29641411920342198     
   3.2700000000000000E-002   -0.33915879728142861     
   3.3000000000000002E-002   -0.37567159610986928     
   3.3300000000000003E-002   -0.40112400915841062     
   3.3599999999999998E-002   -0.40998223680480089     
   3.3900000000000000E-002   -0.39632734885417925     
   3.4200000000000001E-002   -0.35421961541996883     
   3.4500000000000003E-002   -0.27817468495080411     
   3.4799999999999998E-002   -0.16369961670028615     
   3.5099999999999999E-002    -7.9810813094619640E-003
   3.5400000000000001E-002    0.18947602705326189     
   3.5699999999999996E-002    0.42634019231336451     
   3.6000000000000004E-002    0.69695556354390586     
   3.6299999999999999E-002    0.99222703749421526     
   3.6600000000000008E-002     1.2994940005448159     
   3.6900000000000002E-002     1.6030169112289903     
   3.7199999999999997E-002     1.8844806299497203     
   3.7500000000000006E-002     2.1240796767666530     
   3.7800000000000000E-002     2.3016217990203893     
   3.8100000000000009E-002     2.3980845728116069     
   3.8400000000000004E-002     2.3970410867917895     
   3.8699999999999998E-002     2.2862773764625626     
   3.9000000000000007E-002     2.0589932430961619     
   3.9300000000000002E-002     1.7150449353039985     
   3.9600000000000003E-002     1.2611924159269754     
   3.9900000000000005E-002    0.71166294157815035     
   4.0200000000000000E-002     8.7271114723286913E-002
   4.0500000000000001E-002   -0.58517476163278703     
   4.0800000000000003E-002    -1.2747428649449952     
   4.1100000000000005E-002    -1.9477211522638527     
   4.1399999999999999E-002    -2.5703250236179782     
   4.1700000000000008E-002    -3.1101682129752239     
   4.2000000000000003E-002    -3.5391983351399934     
   4.2299999999999997E-002    -3.8344319001533052     
   4.2600000000000006E-002    -3.9804666793715535     
   4.2900000000000001E-002    -3.9693264006983471     
   4.3200000000000002E-002    -3.8017602542767879     
   4.3500000000000004E-002    -3.4862320423466033     
   4.3799999999999999E-002    -3.0391373494595122     
   4.4100000000000000E-002    -2.4826051669501750     
   4.4400000000000002E-002    -1.8443284918982004     
   4.4700000000000004E-002    -1.1548523378161830     
   4.4999999999999998E-002   -0.44700889233738050     
   4.5300000000000000E-002    0.24659751186522266     
   4.5600000000000002E-002    0.89452235018005699     
   4.5899999999999996E-002     1.4683786974533908     
   4.6200000000000005E-002     1.9434732644585346     
   4.6500000000000000E-002     2.3002649881552344     
   4.6799999999999994E-002     2.5249169736212993     
   4.7100000000000003E-002     2.6101940487139537     
   4.7399999999999998E-002     2.5553150329287471     
   4.7700000000000006E-002     2.3667433330729795     
   4.8000000000000001E-002     2.0574029156783991     
   4.8300000000000010E-002     1.6468741619500085     
   4.8600000000000004E-002     1.1599301735903063     
   4.8899999999999999E-002    0.62617921347477967     
   4.9200000000000008E-002     7.7941156363604713E-002
   4.9500000000000002E-002   -0.45061943661456416     
   4.9800000000000011E-002   -0.92651116185238314     
   5.0100000000000006E-002    -1.3188535176807430     
   5.0400000000000000E-002    -1.6020393134243376     
   5.0700000000000009E-002    -1.7567861801062223     
   5.1000000000000004E-002    -1.7725163944338596     
   5.1299999999999998E-002    -1.6478179886627236     
   5.1600000000000007E-002    -1.3916885471062193     
   5.1900000000000002E-002    -1.0228027317706807     
   5.2200000000000010E-002   -0.56909323784415045     
   5.2500000000000005E-002    -6.5585760582002162E-002
   5.2800000000000000E-002    0.44758815776819838     
   5.3099999999999994E-002    0.92816370753927502     
   5.3400000000000003E-002     1.3349303586325789     
   5.3699999999999998E-002     1.6309113203645118     
   5.4000000000000006E-002     1.7865526301379369     
   5.4300000000000001E-002     1.7820266649333436     
   5.4599999999999996E-002     1.6092835360861237     
   5.4900000000000004E-002     1.2726899964125975     
   5.5199999999999999E-002    0.78940751958825384     
   5.5499999999999994E-002    0.18798337230927942     
   5.5800000000000002E-002   -0.49313984691859647     
   5.6099999999999997E-002    -1.2085575644971631     
   5.6400000000000006E-002    -1.9086343959959768     
   5.6700000000000000E-002    -2.5433954809693056     
   5.6999999999999995E-002    -3.0652820042109865     
   5.7300000000000004E-002    -3.4327217612487790     
   5.7599999999999998E-002    -3.6122454607126242     
   5.7900000000000007E-002    -3.5811784129527093     
   5.8200000000000002E-002    -3.3285353041148027     
   5.8499999999999996E-002    -2.8560868883005184     
   5.8800000000000005E-002    -2.1776401937660892     
   5.9100000000000000E-002    -1.3191097715396642     
   5.9400000000000008E-002   -0.31650791775771392     
   5.9700000000000003E-002    0.78556565415318713     
   6.0000000000000012E-002     1.9364920663702785     
   6.0300000000000006E-002     3.0821709439739706     
   6.0600000000000001E-002     4.1680048131437797     
   6.0900000000000010E-002     5.1421259573191769     
   6.1200000000000004E-002     5.9579464225748655     
   6.1500000000000013E-002     6.5774334717942633     
   6.1800000000000008E-002     6.9727299841535544     
   6.2100000000000002E-002     7.1281698975727377     
   6.2399999999999997E-002     7.0407994197052819     
   6.2700000000000006E-002     6.7204493319087160     
   6.3000000000000000E-002     6.1885058684224274     
   6.3300000000000009E-002     5.4762687589315746     
   6.3600000000000004E-002     4.6224754165405990     
   6.3899999999999998E-002     3.6699762667415960     
   6.4199999999999993E-002     2.6633848874488457     
   6.4500000000000002E-002     1.6452037057491653     
   6.4800000000000010E-002    0.65440651303794439     
   6.5100000000000005E-002   -0.27646425230996652     
   6.5400000000000000E-002    -1.1216789879253175     
   6.5700000000000008E-002    -1.8629525521509400     
   6.5999999999999989E-002    -2.4891460259240228     
   6.6299999999999998E-002    -2.9948587325562874     
   6.6600000000000006E-002    -3.3803922517897793     
   6.6900000000000001E-002    -3.6489323755374290     
   6.7199999999999996E-002    -3.8072751012575559     
   6.7500000000000004E-002    -3.8630146613178233     
   6.7800000000000013E-002    -3.8262259371204452     
   6.8099999999999994E-002    -3.7071688492720720     
   6.8400000000000002E-002    -3.5184000492327514     
   6.8700000000000011E-002    -3.2729461193548057     
   6.8999999999999992E-002    -2.9866436070656275     
   6.9300000000000000E-002    -2.6759552669978830     
   6.9600000000000009E-002    -2.3595414555744298     
   6.9900000000000004E-002    -2.0552831434226926     
   7.0199999999999999E-002    -1.7815591109765592     
   7.0500000000000007E-002    -1.5536704238145347     
   7.0800000000000016E-002    -1.3838567188783755     
   7.1099999999999997E-002    -1.2791348191603764     
   7.1400000000000005E-002    -1.2406542996329133     
   7.1700000000000000E-002    -1.2627788515613809     
   7.1999999999999995E-002    -1.3329079217587811     
   7.2300000000000003E-002    -1.4325894787611619     
   7.2600000000000012E-002    -1.5377577437449339     
   7.2900000000000006E-002    -1.6215399180158474     
   7.3200000000000001E-002    -1.6551551801234323     
   7.3499999999999996E-002    -1.6120865721493793     
   7.3800000000000004E-002    -1.4694675846723670     
   7.4099999999999999E-002    -1.2120534160075882     
   7.4400000000000008E-002   -0.83387340582237157     
   7.4700000000000003E-002   -0.34169286294392986     
   7.5000000000000011E-002    0.24438381456777453     
   7.5299999999999992E-002    0.88967832897801213     
   7.5600000000000001E-002     1.5452107982531238     
   7.5900000000000009E-002     2.1503291465455705     
   7.6200000000000004E-002     2.6360570805240893     
   7.6499999999999999E-002     2.9306992660745261     
   7.6800000000000007E-002     2.9665098350062404     
   7.7099999999999988E-002     2.6876840367644919     
   7.7399999999999997E-002     2.0591660383798156     
   7.7700000000000005E-002     1.0744374653658704     
   7.8000000000000014E-002   -0.23749581195727243     
   7.8299999999999995E-002    -1.8086211804783430     
   7.8600000000000003E-002    -3.5302350852915785     
   7.8900000000000012E-002    -5.2583628980569825     
   7.9199999999999993E-002    -6.8204243853279110     
   7.9500000000000001E-002    -8.0302252116913504     
   7.9800000000000010E-002    -8.7026187991984010     
   8.0100000000000018E-002    -8.6752566716836981     
   8.0399999999999999E-002    -7.8261338596942309     
   8.0700000000000008E-002    -6.0939627906915437     
   8.1000000000000003E-002    -3.4905658112644931     
   8.1299999999999997E-002   -0.11119845471698953     
   8.1600000000000006E-002     3.8653265714016456     
   8.1900000000000014E-002     8.1841385370444755     
   8.2199999999999995E-002     12.529226957028332     
   8.2500000000000004E-002     16.548067752365288     
   8.2799999999999999E-002     19.878089848741233     
   8.3100000000000007E-002     22.181667004056447     
   8.3400000000000002E-002     23.174050972051241     
   8.3700000000000011E-002     22.656087254914645     
   8.4000000000000005E-002     20.532332271365895     
   8.4300000000000000E-002     16.828641831895226     
   8.4599999999999995E-002     11.691527142886681     
   8.4900000000000003E-002     5.3853249057126540     
   8.5199999999999998E-002    -1.7296199243111365     
   8.5500000000000007E-002    -9.2202081748901143     
   8.5800000000000001E-002    -16.615861138469462     
   8.6100000000000010E-002    -23.441778540409114     
   8.6399999999999991E-002    -29.258725683961107     
   8.6699999999999999E-002    -33.691868974326269     
   8.7000000000000008E-002    -36.460944482993881     
   8.7300000000000003E-002    -37.395306666345299     
   8.7599999999999997E-002    -36.445777952712547     
   8.7900000000000006E-002    -33.681653347421808     
   8.8200000000000014E-002    -29.281197892757142     
   8.8499999999999995E-002    -23.512440806547261     
   8.8800000000000004E-002    -16.712419651948984     
   8.9100000000000013E-002    -9.2555633201976271     
   8.9399999999999993E-002    -1.5324692926114292     
   8.9700000000000002E-002     6.0833647495100447     
   9.0000000000000011E-002     13.249118514815120     
   9.0299999999999991E-002     19.679040074964732     
   9.0600000000000000E-002     25.146892353289008     
   9.0900000000000009E-002     29.500389302065692     
   9.1200000000000017E-002     32.652182230163966     
   9.1499999999999998E-002     34.584587792785847     
   9.1800000000000007E-002     35.332351699970403     
   9.2100000000000001E-002     34.981819229343543     
   9.2399999999999996E-002     33.648483540939516     
   9.2700000000000005E-002     31.476490320740936     
   9.3000000000000013E-002     28.615275663118751     
   9.3300000000000008E-002     25.222105171937098     
   9.3600000000000003E-002     21.441314439103554     
   9.3899999999999997E-002     17.411429472321515     
   9.4200000000000006E-002     13.247109208826679     
   9.4500000000000001E-002     9.0534291095032788     
   9.4800000000000009E-002     4.9092154390591460     
   9.5100000000000004E-002    0.88699940181777448     
   9.5399999999999999E-002    -2.9626205875644880     
   9.5699999999999993E-002    -6.5895764021758358     
   9.6000000000000002E-002    -9.9563944949510166     
   9.6300000000000011E-002    -13.021924452195982     
   9.6600000000000005E-002    -15.751053597065521     
   9.6900000000000000E-002    -18.103003300299950     
   9.7200000000000009E-002    -20.042442829118290     
   9.7499999999999989E-002    -21.532385106772210     
   9.7799999999999998E-002    -22.545322981991308     
   9.8100000000000007E-002    -23.058945818636399     
   9.8400000000000015E-002    -23.066492705843693     
   9.8699999999999996E-002    -22.574329538553684     
   9.9000000000000005E-002    -21.608318116298161     
   9.9300000000000013E-002    -20.209868297841567     
   9.9599999999999994E-002    -18.439131862967958     
   9.9900000000000003E-002    -16.368245505282822     
  0.10020000000000001         -14.081046788452129     
  0.10049999999999999         -11.665361516887202     
  0.10080000000000000         -9.2101177879148501     
  0.10110000000000001         -6.7974126793417220     
  0.10140000000000000         -4.5006584723786904     
  0.10170000000000000         -2.3773336632204374     
  0.10200000000000001        -0.46918007884000335     
  0.10230000000000002          1.2007563997533528     
  0.10260000000000000          2.6270385603186313     
  0.10290000000000001          3.8210211998947212     
  0.10320000000000000          4.8080646670598428     
  0.10350000000000001          5.6230897557450579     
  0.10380000000000000          6.3071833765909657     
  0.10410000000000001          6.9008973863349823     
  0.10440000000000001          7.4445813497684439     
  0.10470000000000000          7.9669046403033441     
  0.10500000000000000          8.4905945445538222     
  0.10530000000000000          9.0203149629202688     
  0.10560000000000000          9.5530678607138597     
  0.10590000000000001          10.067451735824360     
  0.10620000000000000          10.535715375085061     
  0.10650000000000001          10.918191575494719     
  0.10679999999999999          11.174134772364845     
  0.10710000000000000          11.260756319831360     
  0.10740000000000001          11.141006556159656     
  0.10770000000000000          10.786468137028649     
  0.10800000000000000          10.179628846790765     
  0.10830000000000001          9.3192585172617761     
  0.10859999999999999          8.2167290896376457     
  0.10890000000000000          6.9026197328182146     
  0.10920000000000001          5.4161768605648390     
  0.10950000000000001          3.8137732269364202     
  0.10979999999999999          2.1548363255070013     
  0.11009999999999999         0.50735540108957289     
  0.11040000000000001         -1.0655392455083055     
  0.11070000000000001         -2.4997484020849416     
  0.11100000000000000         -3.7450932064713021     
  0.11130000000000000         -4.7574174389058816     
  0.11160000000000002         -5.5116952496301579     
  0.11190000000000001         -5.9936799600830124     
  0.11220000000000001         -6.2094976846691949     
  0.11250000000000000         -6.1768673067295712     
  0.11280000000000000         -5.9308482435112566     
  0.11309999999999999         -5.5134770351290125     
  0.11340000000000001         -4.9793237788031899     
  0.11369999999999998         -4.3818940216618296     
  0.11400000000000000         -3.7797772246464927     
  0.11430000000000000         -3.2220168450368636     
  0.11460000000000002         -2.7550433413861519     
  0.11489999999999999         -2.4088629510876918     
  0.11520000000000001         -2.2061397647993508     
  0.11550000000000001         -2.1487623215968359     
  0.11580000000000000         -2.2301379567356325     
  0.11609999999999999         -2.4237388890523293     
  0.11640000000000002         -2.6979437825148502     
  0.11670000000000001         -3.0067901648081206     
  0.11700000000000001         -3.3055270585924310     
  0.11730000000000000         -3.5448126412968994     
  0.11760000000000000         -3.6830292600869710     
  0.11789999999999999         -3.6842136201463163     
  0.11820000000000001         -3.5259373758060262     
  0.11850000000000001         -3.1989388368033649     
  0.11880000000000000         -2.7076404845140027     
  0.11910000000000000         -2.0726121046252395     
  0.11940000000000002         -1.3242238434863123     
  0.11970000000000001        -0.50552287678616503     
  0.12000000000000001         0.33925601598535804     
  0.12030000000000000          1.1602744463793591     
  0.12060000000000000          1.9151914373044638     
  0.12089999999999999          2.5636927081038481     
  0.12119999999999999          3.0797319903269034     
  0.12150000000000001          3.4438506340448822     
  0.12180000000000001          3.6523031899648561     
  0.12210000000000000          3.7091655939571204     
  0.12239999999999999          3.6296308305081801     
  0.12270000000000002          3.4346739439153300     
  0.12300000000000001          3.1495723339098616     
  0.12330000000000001          2.8019976620073881     
  0.12360000000000000          2.4182079344408063     
  0.12390000000000000          2.0234383996248866     
  0.12419999999999999          1.6377657003386112     
  0.12450000000000001          1.2801484642782472     
  0.12480000000000001         0.96262690893339919     
  0.12509999999999999         0.69720240885240514     
  0.12540000000000001         0.48916586109518256     
  0.12570000000000003         0.34421052025259857     
  0.12600000000000000         0.26160601925644394     
  0.12630000000000002         0.24099618207371287     
  0.12659999999999999         0.27529889532754698     
  0.12690000000000001         0.35711333895499264     
  0.12719999999999998         0.47214005758298161     
  0.12750000000000000         0.60627634694786736     
  0.12780000000000002         0.73877801200506266     
  0.12809999999999999         0.85164698189517507     
  0.12840000000000001         0.92259288282811269     
  0.12869999999999998         0.93603690118886163     
  0.12900000000000000         0.87493691332918822     
  0.12930000000000003         0.73362873902925463     
  0.12959999999999999         0.50692830322477889     
  0.12990000000000002         0.20442860695244691     
  0.13019999999999998        -0.16426067285179646     
  0.13050000000000000        -0.57435481733253280     
  0.13080000000000003         -1.0035146883972650     
  0.13109999999999999         -1.4176843971179189     
  0.13140000000000002         -1.7897364826258404     
  0.13169999999999998         -2.0860931913738021     
  0.13200000000000001         -2.2842762473107627     
  0.13229999999999997         -2.3617332969560509     
  0.13260000000000000         -2.3097777175653968     
  0.13290000000000002         -2.1241876741560137     
  0.13319999999999999         -1.8146470408888398     
  0.13350000000000001         -1.3973744124140171     
  0.13380000000000003        -0.89882575800030873     
  0.13410000000000000        -0.35100194313136024     
  0.13440000000000002         0.20957786337659706     
  0.13469999999999999         0.74472850874664709     
  0.13500000000000001          1.2180630634191598     
  0.13529999999999998          1.5973096823779120     
  0.13560000000000000          1.8566065540125383     
  0.13590000000000002          1.9779876657265141     
  0.13619999999999999          1.9540775268834585     
  0.13650000000000001          1.7872106046929805     
  0.13680000000000003          1.4896956404277990     
  0.13710000000000000          1.0822961040750936     
  0.13740000000000002         0.59358784479042115     
  0.13769999999999999          5.7398438284312847E-002
  0.13800000000000001        -0.48975222849150768     
  0.13829999999999998         -1.0113508710445824     
  0.13860000000000000         -1.4719214925506185     
  0.13890000000000002         -1.8417800686274552     
  0.13919999999999999         -2.0961008450026970     
  0.13950000000000001         -2.2201869714673559     
  0.13979999999999998         -2.2047825719024212     
  0.14010000000000000         -2.0544180132488123     
  0.14040000000000002         -1.7776281894925363     
  0.14069999999999999         -1.3968849337527949     
  0.14100000000000001        -0.93485702738458798     
  0.14130000000000004        -0.42682005390298317     
  0.14160000000000000          9.8072944323740696E-002
  0.14189999999999997         0.60122981635334605     
  0.14219999999999999          1.0557717243271663     
  0.14250000000000002          1.4291931947676608     
  0.14279999999999998          1.7059835795628020     
  0.14310000000000000          1.8674140688180882     
  0.14339999999999997          1.9130613820522351     
  0.14369999999999999          1.8411807872995840     
  0.14400000000000002          1.6665395552973283     
  0.14429999999999998          1.4026833453201526     
  0.14460000000000001          1.0746433771381541     
  0.14490000000000003         0.70494921729111559     
  0.14520000000000000         0.32287907086924250     
  0.14550000000000002         -4.7055081831734513E-002
  0.14579999999999999        -0.37903168096894424     
  0.14610000000000001        -0.65346269470269791     
  0.14640000000000003        -0.85384707815102689     
  0.14670000000000000        -0.97056347430257150     
  0.14699999999999996        -0.99961653105165738     
  0.14729999999999999        -0.94349322722113582     
  0.14760000000000001        -0.81091746809041787     
  0.14789999999999998        -0.61634482667765256     
  0.14820000000000000        -0.37797011085683496     