  -1.4999999999999999E-002     0.0000000000000000     
  -1.4700000000000000E-002     0.0000000000000000     
  -1.4400000000000000E-002     0.0000000000000000     
  -1.4100000000000000E-002     0.0000000000000000     
  -1.3800000000000000E-002     0.0000000000000000     
  -1.3500000000000000E-002     0.0000000000000000     
  -1.3200000000000000E-002     0.0000000000000000     
  -1.2899999999999998E-002     0.0000000000000000     
  -1.2600000000000000E-002     0.0000000000000000     
  -1.2299999999999998E-002     0.0000000000000000     
  -1.2000000000000000E-002     0.0000000000000000     
  -1.1699999999999999E-002     0.0000000000000000     
  -1.1399999999999999E-002     0.0000000000000000     
  -1.1099999999999999E-002     0.0000000000000000     
  -1.0799999999999999E-002     0.0000000000000000     
  -1.0499999999999999E-002     0.0000000000000000     
  -1.0199999999999999E-002     0.0000000000000000     
  -9.8999999999999991E-003     0.0000000000000000     
  -9.5999999999999992E-003     0.0000000000000000     
  -9.2999999999999992E-003     0.0000000000000000     
  -8.9999999999999993E-003     0.0000000000000000     
  -8.6999999999999994E-003     0.0000000000000000     
  -8.3999999999999995E-003     0.0000000000000000     
  -8.0999999999999996E-003     0.0000000000000000     
  -7.7999999999999988E-003     0.0000000000000000     
  -7.4999999999999997E-003     0.0000000000000000     
  -7.1999999999999998E-003     0.0000000000000000     
  -6.8999999999999981E-003     0.0000000000000000     
  -6.5999999999999982E-003     0.0000000000000000     
  -6.3000000000000000E-003     0.0000000000000000     
  -6.0000000000000001E-003     0.0000000000000000     
  -5.6999999999999985E-003     0.0000000000000000     
  -5.3999999999999986E-003     0.0000000000000000     
  -5.1000000000000004E-003     0.0000000000000000     
  -4.7999999999999987E-003     0.0000000000000000     
  -4.5000000000000005E-003     0.0000000000000000     
  -4.1999999999999989E-003     0.0000000000000000     
  -3.8999999999999990E-003     0.0000000000000000     
  -3.5999999999999990E-003     0.0000000000000000     
  -3.2999999999999991E-003     0.0000000000000000     
  -2.9999999999999992E-003     0.0000000000000000     
  -2.6999999999999993E-003     0.0000000000000000     
  -2.3999999999999994E-003     0.0000000000000000     
  -2.0999999999999977E-003     0.0000000000000000     
  -1.7999999999999995E-003     0.0000000000000000     
  -1.4999999999999979E-003     0.0000000000000000     
  -1.1999999999999997E-003     0.0000000000000000     
  -8.9999999999999976E-004     0.0000000000000000     
  -5.9999999999999810E-004     0.0000000000000000     
  -2.9999999999999992E-004     0.0000000000000000     
   0.0000000000000000          0.0000000000000000     
   3.0000000000000165E-004     0.0000000000000000     
   5.9999999999999984E-004     0.0000000000000000     
   9.0000000000000149E-004     0.0000000000000000     
   1.2000000000000031E-003     0.0000000000000000     
   1.5000000000000013E-003     0.0000000000000000     
   1.8000000000000030E-003     0.0000000000000000     
   2.1000000000000012E-003     0.0000000000000000     
   2.3999999999999994E-003     0.0000000000000000     
   2.7000000000000010E-003     0.0000000000000000     
   2.9999999999999992E-003     0.0000000000000000     
   3.3000000000000008E-003     0.0000000000000000     
   3.6000000000000025E-003     0.0000000000000000     
   3.9000000000000007E-003     0.0000000000000000     
   4.2000000000000023E-003     0.0000000000000000     
   4.5000000000000005E-003     0.0000000000000000     
   4.7999999999999987E-003     0.0000000000000000     
   5.1000000000000004E-003     0.0000000000000000     
   5.4000000000000020E-003     0.0000000000000000     
   5.7000000000000037E-003     0.0000000000000000     
   5.9999999999999984E-003     0.0000000000000000     
   6.3000000000000000E-003     0.0000000000000000     
   6.6000000000000017E-003     0.0000000000000000     
   6.9000000000000034E-003     0.0000000000000000     
   7.2000000000000015E-003     0.0000000000000000     
   7.5000000000000032E-003     0.0000000000000000     
   7.8000000000000014E-003     0.0000000000000000     
   8.0999999999999996E-003     0.0000000000000000     
   8.4000000000000012E-003     0.0000000000000000     
   8.7000000000000029E-003     0.0000000000000000     
   9.0000000000000011E-003     0.0000000000000000     
   9.2999999999999992E-003     0.0000000000000000     
   9.6000000000000009E-003     0.0000000000000000     
   9.8999999999999991E-003     0.0000000000000000     
   1.0200000000000001E-002     0.0000000000000000     
   1.0500000000000002E-002     0.0000000000000000     
   1.0800000000000004E-002     0.0000000000000000     
   1.1099999999999999E-002     0.0000000000000000     
   1.1400000000000000E-002     0.0000000000000000     
   1.1700000000000002E-002     0.0000000000000000     
   1.2000000000000004E-002     0.0000000000000000     
   1.2300000000000002E-002     0.0000000000000000     
   1.2600000000000000E-002     0.0000000000000000     
   1.2900000000000002E-002     0.0000000000000000     
   1.3200000000000000E-002     0.0000000000000000     
   1.3500000000000002E-002     0.0000000000000000     
   1.3800000000000003E-002     0.0000000000000000     
   1.4100000000000001E-002     0.0000000000000000     
   1.4400000000000000E-002     0.0000000000000000     
   1.4700000000000001E-002     0.0000000000000000     
   1.4999999999999999E-002     0.0000000000000000     
   1.5300000000000001E-002     0.0000000000000000     
   1.5600000000000003E-002     0.0000000000000000     
   1.5899999999999997E-002     0.0000000000000000     
   1.6199999999999999E-002     0.0000000000000000     
   1.6500000000000001E-002     0.0000000000000000     
   1.6800000000000002E-002     0.0000000000000000     
   1.7100000000000004E-002     0.0000000000000000     
   1.7400000000000006E-002     0.0000000000000000     
   1.7700000000000000E-002     0.0000000000000000     
   1.8000000000000002E-002     0.0000000000000000     
   1.8300000000000004E-002     0.0000000000000000     
   1.8600000000000005E-002     0.0000000000000000     
   1.8900000000000000E-002     0.0000000000000000     
   1.9200000000000002E-002     0.0000000000000000     
   1.9500000000000003E-002     0.0000000000000000     
   1.9799999999999998E-002     0.0000000000000000     
   2.0100000000000000E-002     0.0000000000000000     
   2.0400000000000001E-002     0.0000000000000000     
   2.0700000000000003E-002     0.0000000000000000     
   2.0999999999999998E-002     1.3812414682850286E-044
   2.1299999999999999E-002    -3.7303411290206767E-044
   2.1600000000000001E-002     1.0839766566219031E-043
   2.1900000000000003E-002    -1.5454237944955682E-043
   2.2200000000000004E-002     1.9769953865314263E-043
   2.2500000000000006E-002     4.3156281234716593E-037
   2.2800000000000001E-002    -3.3026754909334515E-037
   2.3100000000000002E-002     8.7309383691973209E-036
   2.3400000000000004E-002    -2.5050723905800055E-035
   2.3699999999999999E-002     5.2678521151721524E-035
   2.4000000000000000E-002    -1.4129284471878815E-034
   2.4300000000000002E-002     5.8433246098947266E-034
   2.4599999999999997E-002    -2.4756209082572378E-033
   2.4900000000000005E-002     8.7671030969981240E-033
   2.5200000000000000E-002    -2.4556026594175795E-032
   2.5499999999999995E-002     4.8915073627893207E-032
   2.5800000000000003E-002    -9.7132490584488367E-033
   2.6099999999999998E-002    -4.5711801715657645E-031
   2.6400000000000007E-002     2.3626064252915097E-030
   2.6700000000000002E-002    -6.3310648161528786E-030
   2.6999999999999996E-002     1.4183492178820203E-030
   2.7300000000000005E-002     8.7231757714586555E-029
   2.7600000000000000E-002    -5.6398336851314126E-028
   2.7900000000000008E-002     2.3012770495646140E-027
   2.8200000000000003E-002    -6.8721620001780089E-027
   2.8499999999999998E-002     1.4142982533396473E-026
   2.8800000000000006E-002    -9.6354245533716047E-027
   2.9100000000000001E-002    -7.4979683677747489E-026
   2.9400000000000003E-002     4.4564992529894551E-025
   2.9700000000000004E-002    -1.5343927268283788E-024
   3.0000000000000006E-002     3.8032841795483646E-024
   3.0300000000000001E-002    -6.2571252064906722E-024
   3.0600000000000002E-002     1.1574469792443764E-024
   3.0900000000000004E-002     3.9039140607124837E-023
   3.1199999999999999E-002    -1.8076571596368078E-022
   3.1500000000000007E-002     5.1276545195763990E-022
   3.1800000000000002E-002    -9.2185735301973311E-022
   3.2099999999999997E-002     2.6820452810339053E-022
   3.2400000000000005E-002     5.2720218193036292E-021
   3.2700000000000000E-002    -2.2582273740386206E-020
   3.3000000000000002E-002     5.1101461035532244E-020
   3.3300000000000003E-002    -4.2233323528543470E-020
   3.3599999999999998E-002    -1.7096478412437675E-019
   3.3900000000000000E-002     8.4331767334261889E-019
   3.4200000000000001E-002    -1.7690818671296922E-018
   3.4500000000000003E-002     7.5040291262383082E-019
   3.4799999999999998E-002     7.7143011313509784E-018
   3.5099999999999999E-002    -2.7146705352407459E-017
   3.5400000000000001E-002     3.6271081152491287E-017
   3.5699999999999996E-002     4.4007438546991457E-017
   3.6000000000000004E-002    -3.1044043313240286E-016
   3.6299999999999999E-002     5.8672018422987460E-016
   3.6600000000000008E-002     1.0047286063498450E-016
   3.6900000000000002E-002    -3.2392333176673259E-015
   3.7199999999999997E-002     7.2934847811999429E-015
   3.7500000000000006E-002    -8.1015817231565521E-016
   3.7800000000000000E-002    -3.4473853315323125E-014
   3.8100000000000009E-002     7.9554631557110893E-014
   3.8400000000000004E-002     1.3065210981521809E-015
   3.8699999999999998E-002    -3.9116733788043711E-013
   3.9000000000000007E-002     7.5374679455828083E-013
   3.9300000000000002E-002     4.8842465355779551E-013
   3.9600000000000003E-002    -4.4526726683714655E-012
   3.9900000000000005E-002     5.0308426891748937E-012
   4.0200000000000000E-002     1.3072446332414963E-011
   4.0500000000000001E-002    -4.1947804854574411E-011
   4.0800000000000003E-002    -4.4908441307933119E-012
   4.1100000000000005E-002     1.9437033122437369E-010
   4.1399999999999999E-002    -1.8997636285827206E-010
   4.1700000000000008E-002    -6.6927917218657865E-010
   4.2000000000000003E-002     1.3804554247260119E-009
   4.2299999999999997E-002     1.8671101741349451E-009
   4.2600000000000006E-002    -6.8821674864217414E-009
   4.2900000000000001E-002    -4.5750097166428857E-009
   4.3200000000000002E-002     2.9601850692551827E-008
   4.3500000000000004E-002     1.2695238004706541E-008
   4.3799999999999999E-002    -1.1986659955960986E-007
   4.4100000000000000E-002    -6.7268903169964728E-008
   4.4400000000000002E-002     4.3260959950358500E-007
   4.4700000000000004E-002     3.9007810402538024E-007
   4.4999999999999998E-002    -1.4847357780499433E-006
   4.5300000000000000E-002    -2.1824544346048827E-006
   4.5600000000000002E-002     7.1355901100413698E-006
   4.5899999999999996E-002     3.2160045574927896E-005
   4.6200000000000005E-002     6.5010842053461033E-005
   4.6500000000000000E-002     9.1851348081876879E-005
   4.6799999999999994E-002     1.1551344606022297E-004
   4.7100000000000003E-002     1.6182435602581712E-004
   4.7399999999999998E-002     2.5650774673756615E-004
   4.7700000000000006E-002     4.0602608714588451E-004
   4.8000000000000001E-002     6.1367149999501445E-004
   4.8300000000000010E-002     9.0694451512470691E-004
   4.8600000000000004E-002     1.3343213467767775E-003
   4.8899999999999999E-002     1.9414462312552095E-003
   4.9200000000000008E-002     2.7698350839972085E-003
   4.9500000000000002E-002     3.8791769511776065E-003
   4.9800000000000011E-002     5.3535998318676014E-003
   5.0100000000000006E-002     7.2809076552393538E-003
   5.0400000000000000E-002     9.7345142520180970E-003
   5.0700000000000009E-002     1.2771579545644922E-002
   5.1000000000000004E-002     1.6429288452895211E-002
   5.1299999999999998E-002     2.0703820688582356E-002
   5.1600000000000007E-002     2.5519315371985402E-002
   5.1900000000000002E-002     3.0695459138033673E-002
   5.2200000000000010E-002     3.5917856109173779E-002
   5.2500000000000005E-002     4.0721185857644220E-002
   5.2800000000000000E-002     4.4467747597289962E-002
   5.3099999999999994E-002     4.6322193400849004E-002
   5.3400000000000003E-002     4.5245822916779609E-002
   5.3699999999999998E-002     4.0049359557421456E-002
   5.4000000000000006E-002     2.9467618358249372E-002
   5.4300000000000001E-002     1.2240123121946321E-002
   5.4599999999999996E-002    -1.2773042642054377E-002
   5.4900000000000004E-002    -4.6394590677673105E-002
   5.5199999999999999E-002    -8.8888638483114207E-002
   5.5499999999999994E-002   -0.13978615524072402     
   5.5800000000000002E-002   -0.19769355826878207     
   5.6099999999999997E-002   -0.26013761986576467     
   5.6400000000000006E-002   -0.32343378947629248     
   5.6700000000000000E-002   -0.38271916250781768     
   5.6999999999999995E-002   -0.43208820011205967     
   5.7300000000000004E-002   -0.46487299022243422     
   5.7599999999999998E-002   -0.47405001945685921     
   5.7900000000000007E-002   -0.45284516026982835     
   5.8200000000000002E-002   -0.39542553187153917     
   5.8499999999999996E-002   -0.29760864649760188     
   5.8800000000000005E-002   -0.15760654359561221     
   5.9100000000000000E-002     2.3370701950931116E-002
   5.9400000000000008E-002    0.24062068969173983     
   5.9700000000000003E-002    0.48584157659058591     
   6.0000000000000012E-002    0.74714744759634222     
   6.0300000000000006E-002     1.0096192450833703     
   6.0600000000000001E-002     1.2561361903331563     
   6.0900000000000010E-002     1.4684822692794199     
   6.1200000000000004E-002     1.6288097053335169     
   6.1500000000000013E-002     1.7209929385488556     
   6.1800000000000008E-002     1.7323346297326785     
   6.2100000000000002E-002     1.6547098312742849     
   6.2399999999999997E-002     1.4857790608235129     
   6.2700000000000006E-002     1.2294302101875560     
   6.3000000000000000E-002    0.89601946726839732     
   6.3300000000000009E-002    0.50184339774396136     
   6.3600000000000004E-002     6.8114408263923162E-002
   6.3899999999999998E-002   -0.38046333519876818     
   6.4199999999999993E-002   -0.81760115166838720     
   6.4500000000000002E-002    -1.2174196354647000     
   6.4800000000000010E-002    -1.5564857865266901     
   6.5100000000000005E-002    -1.8157285621262818     
   6.5400000000000000E-002    -1.9818877168136526     
   6.5700000000000008E-002    -2.0485854343149659     
   6.5999999999999989E-002    -2.0166444971379094     
   6.6299999999999998E-002    -1.8939480964503455     
   6.6600000000000006E-002    -1.6944676803157590     
   6.6900000000000001E-002    -1.4370385550507248     
   6.7199999999999996E-002    -1.1435010547967230     
   6.7500000000000004E-002   -0.83695156236606905     
   6.7800000000000013E-002   -0.53953523007158888     
   6.8099999999999994E-002   -0.27100080543318955     
   6.8400000000000002E-002    -4.6962950942617696E-002
   6.8700000000000011E-002    0.12159428878268688     
   6.8999999999999992E-002    0.22929479447114925     
   6.9300000000000000E-002    0.27567822084030202     
   6.9600000000000009E-002    0.26533770923241967     
   6.9900000000000004E-002    0.20619096195260236     
   7.0199999999999999E-002    0.10931374391700954     
   7.0500000000000007E-002    -1.3183294175172397E-002
   7.0800000000000016E-002   -0.14834885272077639     
   7.1099999999999997E-002   -0.28429946411938078     
   7.1400000000000005E-002   -0.40997261055267031     
   7.1700000000000000E-002   -0.51635563744739621     
   7.1999999999999995E-002   -0.59593713761626477     
   7.2300000000000003E-002   -0.64333427509010888     
   7.2600000000000012E-002   -0.65467960245181245     
   7.2900000000000006E-002   -0.62757689371796710     
   7.3200000000000001E-002   -0.56093443017685030     
   7.3499999999999996E-002   -0.45466539766473185     
   7.3800000000000004E-002   -0.30993464973086760     
   7.4099999999999999E-002   -0.12894033121522075     
   7.4400000000000008E-002     8.4589071277106118E-002
   7.4700000000000003E-002    0.32580828862863359     
   7.5000000000000011E-002    0.58799279184411146     
   7.5299999999999992E-002    0.86329210516812116     
   7.5600000000000001E-002     1.1418924430031416     
   7.5900000000000009E-002     1.4134622936743872     
   7.6200000000000004E-002     1.6664481312112975     
   7.6499999999999999E-002     1.8896308115645148     
   7.6800000000000007E-002     2.0717737862694712     
   7.7099999999999988E-002     2.2032935819767414     
   7.7399999999999997E-002     2.2759378163880011     
   7.7700000000000005E-002     2.2841656416395613     
   7.8000000000000014E-002     2.2249291146264034     
   7.8299999999999995E-002     2.0983965588550770     
   7.8600000000000003E-002     1.9076765950155130     
   7.8900000000000012E-002     1.6588467511637601     
   7.9199999999999993E-002     1.3608057624110921     
   7.9500000000000001E-002     1.0245148038561134     
   7.9800000000000010E-002    0.66289091733545347     
   8.0100000000000018E-002    0.28935712863706586     
   8.0399999999999999E-002    -8.1814662134135491E-002
   8.0700000000000008E-002   -0.43753132597224181     
   8.1000000000000003E-002   -0.76512969217041571     
   8.1299999999999997E-002    -1.0545371865145585     
   8.1600000000000006E-002    -1.2971533654241478     
   8.1900000000000014E-002    -1.4878808395198058     
   8.2199999999999995E-002    -1.6236558109089274     
   8.2500000000000004E-002    -1.7048992075054341     
   8.2799999999999999E-002    -1.7340114276343332     
   8.3100000000000007E-002    -1.7161847511018502     
   8.3400000000000002E-002    -1.6579266939015878     
   8.3700000000000011E-002    -1.5671316528617394     
   8.4000000000000005E-002    -1.4522365463226172     
   8.4300000000000000E-002    -1.3215919851150104     
   8.4599999999999995E-002    -1.1831139429530568     
   8.4900000000000003E-002    -1.0434448807815733     
   8.5199999999999998E-002   -0.90833861377845748     
   8.5500000000000007E-002   -0.78150195493818309     
   8.5800000000000001E-002   -0.66561788808058397     
   8.6100000000000010E-002   -0.56121206668314305     
   8.6399999999999991E-002   -0.46819600757392998     
   8.6699999999999999E-002   -0.38434723243715518     
   8.7000000000000008E-002   -0.30749154252358463     
   8.7300000000000003E-002   -0.23395201678645752     
   8.7599999999999997E-002   -0.16046540508188156     
   8.7900000000000006E-002    -8.2975969009300307E-002
   8.8200000000000014E-002     1.6265294394200436E-003
   8.8499999999999995E-002     9.6517414535253684E-002
   8.8800000000000004E-002    0.20343671870257710     
   8.9100000000000013E-002    0.32358464804326764     
   8.9399999999999993E-002    0.45638838706364482     
   8.9700000000000002E-002    0.59992981355633179     
   9.0000000000000011E-002    0.75037783897736554     
   9.0299999999999991E-002    0.90226942937296950     
   9.0600000000000000E-002     1.0485774354622972     
   9.0900000000000009E-002     1.1807212917639152     
   9.1200000000000017E-002     1.2894622185923978     
   9.1499999999999998E-002     1.3647992717951472     
   9.1800000000000007E-002     1.3975919597091220     
   9.2100000000000001E-002     1.3793108576742195     
   9.2399999999999996E-002     1.3042035212664591     
   9.2700000000000005E-002     1.1684678894528473     
   9.3000000000000013E-002    0.97259260098892064     
   9.3300000000000008E-002    0.72023481819099988     
   9.3600000000000003E-002    0.41979492161226689     
   9.3899999999999997E-002     8.2751491958927476E-002
   9.4200000000000006E-002   -0.27540040138906258     
   9.4500000000000001E-002   -0.63722110228421136     
   9.4800000000000009E-002   -0.98347849396610909     
   9.5100000000000004E-002    -1.2951539857897600     
   9.5399999999999999E-002    -1.5541638264106903     
   9.5699999999999993E-002    -1.7451023011570570     
   9.6000000000000002E-002    -1.8560841245294990     
   9.6300000000000011E-002    -1.8796111513480236     
   9.6600000000000005E-002    -1.8133624958730228     
   9.6900000000000000E-002    -1.6599904456262955     
   9.7200000000000009E-002    -1.4273851058371383     
   9.7499999999999989E-002    -1.1275214073945989     
   9.7799999999999998E-002   -0.77630461140415719     
   9.8100000000000007E-002   -0.39181268760871696     
   9.8400000000000015E-002     5.9804059742709186E-003
   9.8699999999999996E-002    0.39739948693191268     
   9.9000000000000005E-002    0.76332563703693102     
   9.9300000000000013E-002     1.0870944348863871     
   9.9599999999999994E-002     1.3544942257059556     
   9.9900000000000003E-002     1.5551521918148439     
  0.10020000000000001          1.6823148884745114     
  0.10049999999999999          1.7335742879509488     
  0.10080000000000000          1.7103063038557871     
  0.10110000000000001          1.6178568767819450     
  0.10140000000000000          1.4645071185108465     
  0.10170000000000000          1.2613594670919721     
  0.10200000000000001          1.0211440442551374     
  0.10230000000000002         0.75781739691019590     
  0.10260000000000000         0.48556385113237110     
  0.10290000000000001         0.21814990444803631     
  0.10320000000000000         -3.1772429564880390E-002
  0.10350000000000001        -0.25317829941814279     
  0.10380000000000000        -0.43704700768862076     
  0.10410000000000001        -0.57647276387897017     
  0.10440000000000001        -0.66716862305058344     
  0.10470000000000000        -0.70694423371656023     
  0.10500000000000000        -0.69633359384283311     
  0.10530000000000000        -0.63771159098125862     
  0.10560000000000000        -0.53602737756822505     
  0.10590000000000001        -0.39756107793291090     
  0.10620000000000000        -0.23101935114217859     
  0.10650000000000001         -4.5836070381782473E-002
  0.10679999999999999         0.14660780131754719     
  0.10710000000000000         0.33492481873559893     
  0.10740000000000001         0.50667322004757653     
  0.10770000000000000         0.65035027720991667     
  0.10800000000000000         0.75487924183171418     
  0.10830000000000001         0.81117898849981140     
  0.10859999999999999         0.81223416971977525     
  0.10890000000000000         0.75424469129189509     
  0.10920000000000001         0.63648033671731807     
  0.10950000000000001         0.46203461686785191     
  0.10979999999999999         0.23762867075067615     
  0.11009999999999999         -2.6776958186642812E-002
  0.11040000000000001        -0.31839865679663881     
  0.11070000000000001        -0.62270463000710397     
  0.11100000000000000        -0.92391730099348790     
  0.11130000000000000         -1.2066208222903410     
  0.11160000000000002         -1.4561550737991460     
  0.11190000000000001         -1.6601851125466180     
  0.11220000000000001         -1.8085771952207084     
  0.11250000000000000         -1.8947345180236035     
  0.11280000000000000         -1.9148384498254813     
  0.11309999999999999         -1.8688366576799940     
  0.11340000000000001         -1.7589603819321034     
  0.11369999999999998         -1.5907205488261129     
  0.11400000000000000         -1.3712606559319187     
  0.11430000000000000         -1.1097955813565181     
  0.11460000000000002        -0.81656725092457594     
  0.11489999999999999        -0.50306022805008199     
  0.11520000000000001        -0.18137044100517208     
  0.11550000000000001         0.13607017562746682     
  0.11580000000000000         0.43645349261749800     
  0.11609999999999999         0.70740092150637524     
  0.11640000000000002         0.93696523277962906     
  0.11670000000000001          1.1147949770302945     
  0.11700000000000001          1.2318794816923671     
  0.11730000000000000          1.2824539046026131     
  0.11760000000000000          1.2633657561327649     
  0.11789999999999999          1.1759754525904424     
  0.11820000000000001          1.0251574619118480     
  0.11850000000000001         0.82048762785268259     
  0.11880000000000000         0.57501430136368459     
  0.11910000000000000         0.30528599683319346     
  0.11940000000000002          2.9555169105490029E-002
  0.11970000000000001        -0.23256620468520256     
  0.12000000000000001        -0.46250030283770582     
  0.12030000000000000        -0.64341354421932917     
  0.12060000000000000        -0.76186460446061355     
  0.12089999999999999        -0.80847949081571036     
  0.12119999999999999        -0.77887368552441627     
  0.12150000000000001        -0.67355353001308782     
  0.12180000000000001        -0.49775141802016232     
  0.12210000000000000        -0.26065126301465141     
  0.12239999999999999          2.5301675123422993E-002
  0.12270000000000002         0.34583643131791142     
  0.12300000000000001         0.68570328010352000     
  0.12330000000000001          1.0297807502329586     
  0.12360000000000000          1.3636530708865877     
  0.12390000000000000          1.6745536423072735     
  0.12419999999999999          1.9511156202407649     
  0.12450000000000001          2.1837177420308476     
  0.12480000000000001          2.3640065358422069     
  0.12509999999999999          2.4850161259184196     
  0.12540000000000001          2.5405919749808685     
  0.12570000000000003          2.5254864899663390     
  0.12600000000000000          2.4354648799848064     
  0.12630000000000002          2.2674503531867591     
  0.12659999999999999          2.0201635553822341     
  0.12690000000000001          1.6945692473435336     
  0.12719999999999998          1.2947390223175781     
  0.12750000000000000         0.82787741299942397     
  0.12780000000000002         0.30555174384949735     
  0.12809999999999999        -0.25722807509279982     
  0.12840000000000001        -0.84139013689628872     
  0.12869999999999998         -1.4253925179802511     
  0.12900000000000000         -1.9853071123650723     
  0.12930000000000003         -2.4970522127222474     
  0.12959999999999999         -2.9371509797974440     
  0.12990000000000002         -3.2850218102805151     
  0.13019999999999998         -3.5237818075895144     
  0.13050000000000000         -3.6419782967107985     
  0.13080000000000003         -3.6342978811151907     
  0.13109999999999999         -3.5016768305598553     
  0.13140000000000002         -3.2517235587591267     
  0.13169999999999998         -2.8973181527624829     
  0.13200000000000001         -2.4567909482727028     
  0.13229999999999997         -1.9511124093321104     
  0.13260000000000000         -1.4040892271915704     
  0.13290000000000002        -0.83882630829590066     
  0.13319999999999999        -0.27854839394739123     
  0.13350000000000001         0.25692176900819158     
  0.13380000000000003         0.74975360005296354     
  0.13410000000000000          1.1871799330062163     
  0.13440000000000002          1.5590260166290340     
  0.13469999999999999          1.8604874778953866     
  0.13500000000000001          2.0890224172543537     
  0.13529999999999998          2.2464728564823728     
  0.13560000000000000          2.3361702185498601     
  0.13590000000000002          2.3647604212614168     
  0.13619999999999999          2.3389673455682360     
  0.13650000000000001          2.2675650335550532     
  0.13680000000000003          2.1588287558878583     
  0.13710000000000000          2.0216548634134397     
  0.13740000000000002          1.8636256631613488     
  0.13769999999999999          1.6918109812856046     
  0.13800000000000001          1.5112543245175363     
  0.13829999999999998          1.3255084873562142     
  0.13860000000000000          1.1358407837838633     
  0.13890000000000002         0.94122649078652232     
  0.13919999999999999         0.73881817522573123     
  0.13950000000000001         0.52397263526703219     
  0.13979999999999998         0.29161811160158690     
  0.14010000000000000          3.6488556212871316E-002
  0.14040000000000002        -0.24496756634567374     
  0.14069999999999999        -0.55445158864942867     
  0.14100000000000001        -0.88949180304359687     
  0.14130000000000004         -1.2444689368416875     
  0.14160000000000000         -1.6086843139295051     
  0.14189999999999997         -1.9679608501839463     
  0.14219999999999999         -2.3045420834060901     
  0.14250000000000002         -2.5996508813643699     
  0.14279999999999998         -2.8345604181947750     
  0.14310000000000000         -2.9925537366331714     
  0.14339999999999997         -3.0611763267850360     
  0.14369999999999999         -3.0336921484934356     
  0.14400000000000002         -2.9104013706490734     
  0.14429999999999998         -2.6982815515124452     
  0.14460000000000001         -2.4114382494608049     
  0.14490000000000003         -2.0686042509436637     
  0.14520000000000000         -1.6925081183913249     
  0.14550000000000002         -1.3056396382633488     
  0.14579999999999999        -0.92985422454549382     
  0.14610000000000001        -0.58194071782549384     
  0.14640000000000003        -0.27338487354234781     
  0.14670000000000000         -7.6233466619674353E-003
  0.14699999999999996         0.21880662457658370     
  0.14729999999999999         0.41657808627910542     
  0.14760000000000001         0.60091114428594306     
  0.14789999999999998         0.79046220153515034     
  0.14820000000000000          1.0033303576337640     