  -1.4999999999999999E-002     0.0000000000000000     
  -1.4700000000000000E-002     5.7313083751573941E-014
  -1.4400000000000000E-002     1.1568913899556783E-011
  -1.4100000000000000E-002    -5.0862232407100469E-011
  -1.3800000000000000E-002    -8.1321412779253135E-010
  -1.3500000000000000E-002     2.0738443158484675E-009
  -1.3200000000000000E-002     6.3240197746147565E-009
  -1.2899999999999998E-002    -9.2521459299298208E-009
  -1.2600000000000000E-002    -2.7211958852434264E-008
  -1.2299999999999998E-002    -7.8366866486474996E-011
  -1.2000000000000000E-002     7.7207767629600901E-008
  -1.1699999999999999E-002     1.0703826147919104E-007
  -1.1399999999999999E-002    -1.2201728450812408E-007
  -1.1099999999999999E-002    -2.7727742121807495E-007
  -1.0799999999999999E-002    -1.7897824266173656E-007
  -1.0499999999999999E-002     2.5899728540139094E-007
  -1.0199999999999999E-002     9.1878839241342389E-007
  -9.8999999999999991E-003     5.6919755167861495E-007
  -9.5999999999999992E-003    -1.0606953635829993E-006
  -9.2999999999999992E-003    -2.0585347833445175E-006
  -8.9999999999999993E-003    -8.8685393926212305E-007
  -8.6999999999999994E-003     1.6928167837614921E-006
  -8.3999999999999995E-003     3.4919467659673155E-006
  -8.0999999999999996E-003     2.5410276755598714E-006
  -7.7999999999999988E-003    -1.4620839762714358E-006
  -7.4999999999999997E-003    -6.0756548669390238E-006
  -7.1999999999999998E-003    -5.3381440722531294E-006
  -6.8999999999999981E-003     2.1135935547834789E-006
  -6.5999999999999982E-003     6.3395527374515560E-006
  -6.3000000000000000E-003     3.5357119911130965E-006
  -6.0000000000000001E-003    -7.9804338760309230E-007
  -5.6999999999999985E-003    -1.2664874207896272E-006
  -5.3999999999999986E-003     7.3732795216620985E-006
  -5.1000000000000004E-003     2.3972499452098186E-005
  -4.7999999999999987E-003     4.4654918316704102E-005
  -4.5000000000000005E-003     5.9318045162821383E-005
  -4.1999999999999989E-003     7.7598690122662235E-005
  -3.8999999999999990E-003     1.1975801736256371E-004
  -3.5999999999999990E-003     1.8788997815520742E-004
  -3.2999999999999991E-003     2.9738725983975294E-004
  -2.9999999999999992E-003     4.3689643813933556E-004
  -2.6999999999999993E-003     6.0482781530923164E-004
  -2.3999999999999994E-003     8.4566709552881601E-004
  -2.0999999999999977E-003     1.1767751877590326E-003
  -1.7999999999999995E-003     1.6441692828718321E-003
  -1.4999999999999979E-003     2.2702278497659773E-003
  -1.1999999999999997E-003     3.0137993757299217E-003
  -8.9999999999999976E-004     3.8883442379511138E-003
  -5.9999999999999810E-004     4.8740797042565783E-003
  -2.9999999999999992E-004     5.9221011173398487E-003
   0.0000000000000000          6.8945549797343221E-003
   3.0000000000000165E-004     7.4559774290890828E-003
   5.9999999999999984E-004     7.2156724346284949E-003
   9.0000000000000149E-004     5.5745676663290274E-003
   1.2000000000000031E-003     1.8004072069946874E-003
   1.5000000000000013E-003    -5.0503368994318839E-003
   1.8000000000000030E-003    -1.6423478698841195E-002
   2.1000000000000012E-003    -3.3983604549763791E-002
   2.3999999999999994E-003    -5.9848634639036877E-002
   2.7000000000000010E-003    -9.6607475824742745E-002
   2.9999999999999992E-003   -0.14707060977104808     
   3.3000000000000008E-003   -0.21471809677698672     
   3.6000000000000025E-003   -0.30316373952844766     
   3.9000000000000007E-003   -0.41593628988483167     
   4.2000000000000023E-003   -0.55686462265778924     
   4.5000000000000005E-003   -0.72941783545912064     
   4.7999999999999987E-003   -0.93679714386192592     
   5.1000000000000004E-003    -1.1818465934096238     
   5.4000000000000020E-003    -1.4660326489099695     
   5.7000000000000037E-003    -1.7900821735551986     
   5.9999999999999984E-003    -2.1534895638913452     
   6.3000000000000000E-003    -2.5540188709633354     
   6.6000000000000017E-003    -2.9878374886797028     
   6.9000000000000034E-003    -3.4484797615229232     
   7.2000000000000015E-003    -3.9267072882382781     
   7.5000000000000032E-003    -4.4103365163991510     
   7.8000000000000014E-003    -4.8826110781952146     
   8.0999999999999996E-003    -5.3218513564080920     
   8.4000000000000012E-003    -5.7010354173304245     
   8.7000000000000029E-003    -5.9860617281181137     
   9.0000000000000011E-003    -6.1363932898583142     
   9.2999999999999992E-003    -6.1050178461110969     
   9.6000000000000009E-003    -5.8382825176127415     
   9.8999999999999991E-003    -5.2800530773517984     
   1.0200000000000001E-002    -4.3729768976751906     
   1.0500000000000002E-002    -3.0641013329447082     
   1.0800000000000004E-002    -1.3114350274906417     
   1.1099999999999999E-002    0.91067383212015551     
   1.1400000000000000E-002     3.6025568781771056     
   1.1700000000000002E-002     6.7329415184670545     
   1.2000000000000004E-002     10.232650769135384     
   1.2300000000000002E-002     13.990549630371669     
   1.2600000000000000E-002     17.853450322576176     
   1.2900000000000002E-002     21.629813052072198     
   1.3200000000000000E-002     25.095987780716307     
   1.3500000000000002E-002     28.010385392165606     
   1.3800000000000003E-002     30.129768121331150     
   1.4100000000000001E-002     31.226810539486991     
   1.4400000000000000E-002     31.113569860050383     
   1.4700000000000001E-002     29.659000392965918     
   1.4999999999999999E-002     26.807372202105238     
   1.5300000000000001E-002     22.590113438793431     
   1.5600000000000003E-002     17.130368539668943     
   1.5899999999999997E-002     10.641372368498873     
   1.6199999999999999E-002     3.4151468846997215     
   1.6500000000000001E-002    -4.1970147156406981     
   1.6800000000000002E-002    -11.808514020201818     
   1.7100000000000004E-002    -19.024146036571871     
   1.7400000000000006E-002    -25.475007547692908     
   1.7700000000000000E-002    -30.840348107313847     
   1.8000000000000002E-002    -34.875742744818673     
   1.8300000000000004E-002    -37.427529981102403     
   1.8600000000000005E-002    -38.439998363494070     
   1.8900000000000000E-002    -37.956414024622674     
   1.9200000000000002E-002    -36.108453691685234     
   1.9500000000000003E-002    -33.100410660205277     
   1.9799999999999998E-002    -29.185528767477564     
   2.0100000000000000E-002    -24.646232238034695     
   2.0400000000000001E-002    -19.764201619073155     
   2.0700000000000003E-002    -14.802987901673831     
   2.0999999999999998E-002    -9.9906950867604003     
   2.1299999999999999E-002    -5.5042301688480002     
   2.1600000000000001E-002    -1.4695865907997021     
   2.1900000000000003E-002     2.0416826511386361     
   2.2200000000000004E-002     5.0066001629249302     
   2.2500000000000006E-002     7.4407143533545526     
   2.2800000000000001E-002     9.3851603382236579     
   2.3100000000000002E-002     10.899119128017681     
   2.3400000000000004E-002     12.044411491067049     
   2.3699999999999999E-002     12.877948775772165     
   2.4000000000000000E-002     13.446488636609034     
   2.4300000000000002E-002     13.783030781121731     
   2.4599999999999997E-002     13.903888316638868     
   2.4900000000000005E-002     13.813601908383891     
   2.5200000000000000E-002     13.510224195227446     
   2.5499999999999995E-002     12.984137239194116     
   2.5800000000000003E-002     12.231637226922242     
   2.6099999999999998E-002     11.254327846582003     
   2.6400000000000007E-002     10.062773960426970     
   2.6700000000000002E-002     8.6838995555492140     
   2.6999999999999996E-002     7.1548175591621437     
   2.7300000000000005E-002     5.5273089518656775     
   2.7600000000000000E-002     3.8626820929060361     
   2.7900000000000008E-002     2.2284892005976769     
   2.8200000000000003E-002    0.69356634507971537     
   2.8499999999999998E-002   -0.67639720561809469     
   2.8800000000000006E-002    -1.8235790671108738     
   2.9100000000000001E-002    -2.7046303130644151     
   2.9400000000000003E-002    -3.2907672288107346     
   2.9700000000000004E-002    -3.5724703050696496     
   3.0000000000000006E-002    -3.5603232360674650     
   3.0300000000000001E-002    -3.2828991083521428     
   3.0600000000000002E-002    -2.7846079161991915     
   3.0900000000000004E-002    -2.1260699299039567     
   3.1199999999999999E-002    -1.3724139985281965     
   3.1500000000000007E-002   -0.59485821129781624     
   3.1800000000000002E-002    0.13657331962316913     
   3.2099999999999997E-002    0.76206143196371801     
   3.2400000000000005E-002     1.2291219926791328     
   3.2700000000000000E-002     1.5023223394332570     
   3.3000000000000002E-002     1.5631627741657501     
   3.3300000000000003E-002     1.4096138924154704     
   3.3599999999999998E-002     1.0572034371935697     
   3.3900000000000000E-002    0.53691058853742768     
   3.4200000000000001E-002   -0.10887679178395590     
   3.4500000000000003E-002   -0.82976676375315517     
   3.4799999999999998E-002    -1.5698557340632000     
   3.5099999999999999E-002    -2.2752061602258298     
   3.5400000000000001E-002    -2.8946204050664939     
   3.5699999999999996E-002    -3.3849732087588400     
   3.6000000000000004E-002    -3.7138451467762152     
   3.6299999999999999E-002    -3.8608803776512159     
   3.6600000000000008E-002    -3.8178947678517936     
   3.6900000000000002E-002    -3.5908553877978608     
   3.7199999999999997E-002    -3.1972689748641137     
   3.7500000000000006E-002    -2.6642311954488851     
   3.7800000000000000E-002    -2.0289877762187141     
   3.8100000000000009E-002    -1.3316857146999528     
   3.8400000000000004E-002   -0.61589423945430022     
   3.8699999999999998E-002     7.5243305425346324E-002
   3.9000000000000007E-002    0.70350088733685356     
   3.9300000000000002E-002     1.2352344349562803     
   3.9600000000000003E-002     1.6455285345404314     
   3.9900000000000005E-002     1.9194719233852233     
   4.0200000000000000E-002     2.0512765607396055     
   4.0500000000000001E-002     2.0444359953762676     
   4.0800000000000003E-002     1.9139414391664435     
   4.1100000000000005E-002     1.6791317493146436     
   4.1399999999999999E-002     1.3667590017033175     
   4.1700000000000008E-002     1.0077569125913910     
   4.2000000000000003E-002    0.63175627007041291     
   4.2299999999999997E-002    0.26970782791855757     
   4.2600000000000006E-002    -5.1540803962784598E-002
   4.2900000000000001E-002   -0.31001953376121499     
   4.3200000000000002E-002   -0.48951359702643382     
   4.3500000000000004E-002   -0.58023344067300375     
   4.3799999999999999E-002   -0.58010574647424695     
   4.4100000000000000E-002   -0.49301412149122870     
   4.4400000000000002E-002   -0.32957753937604606     
   4.4700000000000004E-002   -0.10564280621541167     
   4.4999999999999998E-002    0.15893475035456345     
   4.5300000000000000E-002    0.44158936388640413     
   4.5600000000000002E-002    0.71859911548092181     
   4.5899999999999996E-002    0.96666481088096434     
   4.6200000000000005E-002     1.1650215709392384     
   4.6500000000000000E-002     1.2954442103905601     
   4.6799999999999994E-002     1.3450014399834032     
   4.7100000000000003E-002     1.3074065142846167     
   4.7399999999999998E-002     1.1799558716437031     
   4.7700000000000006E-002    0.97001390683573119     
   4.8000000000000001E-002    0.68806519490701290     
   4.8300000000000010E-002    0.35085066347083366     
   4.8600000000000004E-002    -2.0927610370682248E-002
   4.8899999999999999E-002   -0.40371393064332595     
   4.9200000000000008E-002   -0.77552490551543518     
   4.9500000000000002E-002    -1.1123053953218600     
   4.9800000000000011E-002    -1.3957575063636001     
   5.0100000000000006E-002    -1.6113746896097545     
   5.0400000000000000E-002    -1.7489258092091557     
   5.0700000000000009E-002    -1.8040569925497800     
   5.1000000000000004E-002    -1.7793036903397752     
   5.1299999999999998E-002    -1.6790950335184796     
   5.1600000000000007E-002    -1.5144525744334110     
   5.1900000000000002E-002    -1.2971038886529274     
   5.2200000000000010E-002    -1.0401348835992534     
   5.2500000000000005E-002   -0.75627723389519663     
   5.2800000000000000E-002   -0.45829105212262289     
   5.3099999999999994E-002   -0.15512660570522990     
   5.3400000000000003E-002    0.14308192389794580     
   5.3699999999999998E-002    0.42991506547776914     
   5.4000000000000006E-002    0.69826337079543133     
   5.4300000000000001E-002    0.94168416087653228     
   5.4599999999999996E-002     1.1532261604555292     
   5.4900000000000004E-002     1.3253700901795460     
   5.5199999999999999E-002     1.4498151051095998     
   5.5499999999999994E-002     1.5179292455004645     
   5.5800000000000002E-002     1.5226649213611858     
   5.6099999999999997E-002     1.4582638995397050     
   5.6400000000000006E-002     1.3225468420341815     
   5.6700000000000000E-002     1.1180382083001779     
   5.6999999999999995E-002    0.85213040107710070     
   5.7300000000000004E-002    0.53745581119268659     
   5.7599999999999998E-002    0.19198790500151908     
   5.7900000000000007E-002   -0.16280826523661085     
   5.8200000000000002E-002   -0.50326669228762633     
   5.8499999999999996E-002   -0.80547807189033427     
   5.8800000000000005E-002    -1.0484035724795937     
   5.9100000000000000E-002    -1.2148421509751139     
   5.9400000000000008E-002    -1.2941009644854957     
   5.9700000000000003E-002    -1.2827792315769782     
   6.0000000000000012E-002    -1.1844814248488098     
   6.0300000000000006E-002    -1.0105970485009435     
   6.0600000000000001E-002   -0.77763508805156978     
   6.0900000000000010E-002   -0.50634542080983025     
   6.1200000000000004E-002   -0.21907301164961535     
   6.1500000000000013E-002     6.1953558921007124E-002
   6.1800000000000008E-002    0.31738013857622560     
   6.2100000000000002E-002    0.53178829735865274     
   6.2399999999999997E-002    0.69492486010422927     
   6.2700000000000006E-002    0.80184898208002120     
   6.3000000000000000E-002    0.85300731123312545     
   6.3300000000000009E-002    0.85364520508521957     
   6.3600000000000004E-002    0.81125640318748971     
   6.3899999999999998E-002    0.73670740153767156     
   6.4199999999999993E-002    0.64128919674324958     
   6.4500000000000002E-002    0.53558938616129814     
   6.4800000000000010E-002    0.42926408588590714     
   6.5100000000000005E-002    0.33037298835979012     
   6.5400000000000000E-002    0.24435308282507723     
   6.5700000000000008E-002    0.17533944077989871     
   6.5999999999999989E-002    0.12473448998597167     
   6.6299999999999998E-002     9.2265364219328433E-002
   6.6600000000000006E-002     7.6495738571001448E-002
   6.6900000000000001E-002     7.4086721365862349E-002
   6.7199999999999996E-002     8.1122570293798241E-002
   6.7500000000000004E-002     9.3730707825082360E-002
   6.7800000000000013E-002    0.10588391297473038     
   6.8099999999999994E-002    0.11344637642006733     
   6.8400000000000002E-002    0.11182573523951525     
   6.8700000000000011E-002     9.6876015168928353E-002
   6.8999999999999992E-002     6.6289898204610731E-002
   6.9300000000000000E-002     1.9234023930750938E-002
   6.9600000000000009E-002    -4.4498215211073083E-002
   6.9900000000000004E-002   -0.12222356210166643     
   7.0199999999999999E-002   -0.21072475119637177     
   7.0500000000000007E-002   -0.30482759963189976     
   7.0800000000000016E-002   -0.39912366553182765     
   7.1099999999999997E-002   -0.48777956790905419     
   7.1400000000000005E-002   -0.56436281320189630     
   7.1700000000000000E-002   -0.62433941278283767     
   7.1999999999999995E-002   -0.66356225039116778     
   7.2300000000000003E-002   -0.67866965387245015     
   7.2600000000000012E-002   -0.66915770669282082     
   7.2900000000000006E-002   -0.63401303224974603     
   7.3200000000000001E-002   -0.57516549120254346     
   7.3499999999999996E-002   -0.49555351006972714     
   7.3800000000000004E-002   -0.39816792355810848     
   7.4099999999999999E-002   -0.28779804838868850     
   7.4400000000000008E-002   -0.16984774936467989     
   7.4700000000000003E-002    -4.8803698361638101E-002
   7.5000000000000011E-002     6.8562119965383556E-002
   7.5299999999999992E-002    0.17737418737634122     
   7.5600000000000001E-002    0.27263209840216507     
   7.5900000000000009E-002    0.34919203402829208     
   7.6200000000000004E-002    0.40417639365650126     
   7.6499999999999999E-002    0.43527733752282860     
   7.6800000000000007E-002    0.44074443565466098     
   7.7099999999999988E-002    0.42227886885141402     
   7.7399999999999997E-002    0.38117154480032484     
   7.7700000000000005E-002    0.32074219324047409     
   7.8000000000000014E-002    0.24601426241001600     
   7.8299999999999995E-002    0.16178072255133258     
   7.8600000000000003E-002     7.3413398626059473E-002
   7.8900000000000012E-002    -1.2705564773728160E-002
   7.9199999999999993E-002    -9.2389516494443519E-002
   7.9500000000000001E-002   -0.16041413258660556     
   7.9800000000000010E-002   -0.21350914148402952     
   8.0100000000000018E-002   -0.24960812441421915     
   8.0399999999999999E-002   -0.26654969735172906     
   8.0700000000000008E-002   -0.26523272347928439     
   8.1000000000000003E-002   -0.24620819571445351     
   8.1299999999999997E-002   -0.21117557879599053     
   8.1600000000000006E-002   -0.16380916311373739     
   8.1900000000000014E-002   -0.10684578223152133     
   8.2199999999999995E-002    -4.4488164672710745E-002
   8.2500000000000004E-002     1.8659598824846212E-002
   8.2799999999999999E-002     7.8663817045345488E-002
   8.3100000000000007E-002    0.13117265895273747     
   8.3400000000000002E-002    0.17280581907878359     
   8.3700000000000011E-002    0.20105697569081596     
   8.4000000000000005E-002    0.21335491877429197     
   8.4300000000000000E-002    0.20977746290104424     
   8.4599999999999995E-002    0.19014862855225412     
   8.4900000000000003E-002    0.15622133319376416     
   8.5199999999999998E-002    0.11092017305893015     
   8.5500000000000007E-002     5.6810055886279923E-002
   8.5800000000000001E-002    -1.5543063313864635E-003
   8.6100000000000010E-002    -6.1036615753858464E-002
   8.6399999999999991E-002   -0.11766324608227384     
   8.6699999999999999E-002   -0.16812392597588749     
   8.7000000000000008E-002   -0.21055697002275336     
   8.7300000000000003E-002   -0.24259687029067073     
   8.7599999999999997E-002   -0.26379330255195255     
   8.7900000000000006E-002   -0.27434852190838621     
   8.8200000000000014E-002   -0.27440928540474657     
   8.8499999999999995E-002   -0.26480049425258201     
   8.8800000000000004E-002   -0.24769288251438237     
   8.9100000000000013E-002   -0.22314558071883617     
   8.9399999999999993E-002   -0.19340672971069989     
   8.9700000000000002E-002   -0.15936158313263729     
   9.0000000000000011E-002   -0.12185397993516234     
   9.0299999999999991E-002    -8.2559329039040577E-002
   9.0600000000000000E-002    -4.1792226593887746E-002
   9.0900000000000009E-002    -6.5663201234887939E-004
   9.1200000000000017E-002     3.9803887904949528E-002
   9.1499999999999998E-002     7.9001587568790055E-002
   9.1800000000000007E-002    0.11592785334095629     
   9.2100000000000001E-002    0.14940451854522152     
   9.2399999999999996E-002    0.17981460632146357     
   9.2700000000000005E-002    0.20585456422851683     
   9.3000000000000013E-002    0.22724038179675243     
   9.3300000000000008E-002    0.24469914223909339     
   9.3600000000000003E-002    0.25690163975920399     
   9.3899999999999997E-002    0.26568609559130352     
   9.4200000000000006E-002    0.27037299925390779     
   9.4500000000000001E-002    0.27114990003807765     
   9.4800000000000009E-002    0.26930491393915706     
   9.5100000000000004E-002    0.26369338995626274     
   9.5399999999999999E-002    0.25537048394965922     
   9.5699999999999993E-002    0.24464084095365879     
   9.6000000000000002E-002    0.23123414977790305     
   9.6300000000000011E-002    0.21535689756825557     
   9.6600000000000005E-002    0.19837417981414407     
   9.6900000000000000E-002    0.17909928569023137     
   9.7200000000000009E-002    0.15913070978158830     
   9.7499999999999989E-002    0.13882361927684769     
   9.7799999999999998E-002    0.11840197721233447     
   9.8100000000000007E-002     9.8489257639465727E-002
   9.8400000000000015E-002     7.9438827911250981E-002
   9.8699999999999996E-002     6.1898611557262659E-002
   9.9000000000000005E-002     4.5163182336012075E-002
   9.9300000000000013E-002     3.0828895656517100E-002
   9.9599999999999994E-002     1.7857621502985269E-002
   9.9900000000000003E-002     7.1582401911162580E-003
  0.10020000000000001         -9.7322101090204557E-004
  0.10049999999999999         -7.4107707484880412E-003
  0.10080000000000000         -1.1018586830311872E-002
  0.10110000000000001         -1.2584914178147787E-002
  0.10140000000000000         -1.2418605196558434E-002
  0.10170000000000000         -1.0858861848254395E-002
  0.10200000000000001         -9.0181975310955204E-003
  0.10230000000000002         -8.8174382765174222E-003
  0.10260000000000000         -1.0481866302273629E-002
  0.10290000000000001         -1.6050112431016138E-002
  0.10320000000000000         -2.7353156680333196E-002
  0.10350000000000001         -4.3898498788828760E-002
  0.10380000000000000         -6.8054418199168645E-002
  0.10410000000000001         -9.8711030325305413E-002
  0.10440000000000001        -0.13581537595254134     
  0.10470000000000000        -0.17813101104298074     
  0.10500000000000000        -0.22414238292279004     
  0.10530000000000000        -0.27144721291829732     
  0.10560000000000000        -0.31821307863446624     
  0.10590000000000001        -0.36197907008006841     
  0.10620000000000000        -0.39948171558087203     
  0.10650000000000001        -0.42992984392625955     
  0.10679999999999999        -0.44945794925161753     
  0.10710000000000000        -0.45718004452670652     
  0.10740000000000001        -0.45089907198283113     
  0.10770000000000000        -0.42974557885236159     
  0.10800000000000000        -0.39207678500861198     
  0.10830000000000001        -0.33796192369326233     
  0.10859999999999999        -0.26807859703329101     
  0.10890000000000000        -0.18244214331545805     
  0.10920000000000001         -8.4702025621100491E-002
  0.10950000000000001          2.2862069514969819E-002
  0.10979999999999999         0.13620654763667134     
  0.11009999999999999         0.24957467092986918     
  0.11040000000000001         0.35817283680973078     
  0.11070000000000001         0.45549187023226784     
  0.11100000000000000         0.53589226093804176     
  0.11130000000000000         0.59395152108160987     
  0.11160000000000002         0.62671658043221812     
  0.11190000000000001         0.62935611199643438     
  0.11220000000000001         0.60345497428206074     
  0.11250000000000000         0.54749405493828873     
  0.11280000000000000         0.46546016298666426     
  0.11309999999999999         0.36120104545015885     
  0.11340000000000001         0.24015307799119007     
  0.11369999999999998         0.10900487547140532     
  0.11400000000000000         -2.5323774659296076E-002
  0.11430000000000000        -0.15543828014609920     
  0.11460000000000002        -0.27544305158910731     
  0.11489999999999999        -0.37876999776807779     
  0.11520000000000001        -0.46111056385070343     
  0.11550000000000001        -0.51949024576294289     
  0.11580000000000000        -0.55134746782188082     
  0.11609999999999999        -0.55733383971375172     
  0.11640000000000002        -0.53815842869957231     
  0.11670000000000001        -0.49681982493975374     
  0.11700000000000001        -0.43653907819480653     
  0.11730000000000000        -0.36301513285873349     
  0.11760000000000000        -0.27941822059408661     
  0.11789999999999999        -0.19262547423646464     
  0.11820000000000001        -0.10691077017143102     
  0.11850000000000001         -2.6039524505114792E-002
  0.11880000000000000          4.5142011541014680E-002
  0.11910000000000000         0.10528408598714992     
  0.11940000000000002         0.15207969605715230     
  0.11970000000000001         0.18578877373021274     
  0.12000000000000001         0.20559417760744417     
  0.12030000000000000         0.21400350527174383     
  0.12060000000000000         0.21207878681196077     
  0.12089999999999999         0.20151447482019774     
  0.12119999999999999         0.18551035629210252     
  0.12150000000000001         0.16495080057368208     
  0.12180000000000001         0.14233268507317490     
  0.12210000000000000         0.11844685777220904     
  0.12239999999999999          9.5232743631216310E-002
  0.12270000000000002          7.2336656143344183E-002
  0.12300000000000001          5.1380653487178844E-002
  0.12330000000000001          3.1299208245919474E-002
  0.12360000000000000          1.3084444585607348E-002
  0.12390000000000000         -3.2306760723003324E-003
  0.12419999999999999         -1.8415135893765370E-002
  0.12450000000000001         -3.1058786438736816E-002
  0.12480000000000001         -4.2035616028085018E-002
  0.12509999999999999         -5.0179650833064991E-002
  0.12540000000000001         -5.5473923641244344E-002
  0.12570000000000003         -5.6618026134925718E-002
  0.12600000000000000         -5.3344375401186549E-002
  0.12630000000000002         -4.5384463889174415E-002
  0.12659999999999999         -3.0804550046650760E-002
  0.12690000000000001         -1.0982434850569493E-002
  0.12719999999999998          1.5374404097557123E-002
  0.12750000000000000          4.6996785541156313E-002
  0.12780000000000002          8.3988350415347315E-002
  0.12809999999999999         0.12387670222193370     
  0.12840000000000001         0.16615829908954527     
  0.12869999999999998         0.20818437501867729     
  0.12900000000000000         0.24777613410984334     
  0.12930000000000003         0.28342369863597117     
  0.12959999999999999         0.31253437618244234     
  0.12990000000000002         0.33418002036759931     
  0.13019999999999998         0.34676486158907743     
  0.13050000000000000         0.35015497117297317     
  0.13080000000000003         0.34381042542414436     
  0.13109999999999999         0.32887479811207543     
  0.13140000000000002         0.30560876543014126     
  0.13169999999999998         0.27499766209544474     
  0.13200000000000001         0.23913993199102851     
  0.13229999999999997         0.19724901075803633     
  0.13260000000000000         0.15224595747126379     
  0.13290000000000002         0.10352562682387428     
  0.13319999999999999          5.2391065286411569E-002
  0.13350000000000001         -7.4240869266781282E-004
  0.13380000000000003         -5.4875719023952829E-002
  0.13410000000000000        -0.10940594380644963     
  0.13440000000000002        -0.16313476978156738     
  0.13469999999999999        -0.21384996724647462     
  0.13500000000000001        -0.26122773137275179     
  0.13529999999999998        -0.30182585249483773     
  0.13560000000000000        -0.33429367894269013     
  0.13590000000000002        -0.35662033811065663     
  0.13619999999999999        -0.36709927882281929     
  0.13650000000000001        -0.36441162536430155     
  0.13680000000000003        -0.34839170130522762     
  0.13710000000000000        -0.31892501325887423     
  0.13740000000000002        -0.27662548878090337     
  0.13769999999999999        -0.22454590520534012     
  0.13800000000000001        -0.16316083218555325     
  0.13829999999999998         -9.7078989848803476E-002
  0.13860000000000000         -2.8470289614694680E-002
  0.13890000000000002          3.8627257821562094E-002
  0.13919999999999999         0.10091517642647348     
  0.13950000000000001         0.15513390365035093     
  0.13979999999999998         0.19828329239723089     
  0.14010000000000000         0.22849934192288202     
  0.14040000000000002         0.24335043008012447     
  0.14069999999999999         0.24273056516623553     
  0.14100000000000001         0.22621279825293170     
  0.14130000000000004         0.19496221200119326     
  0.14160000000000000         0.15075668271671985     
  0.14189999999999997          9.5919776582445507E-002
  0.14219999999999999          3.4061164627080504E-002
  0.14250000000000002         -3.1616418999600861E-002
  0.14279999999999998         -9.6450454011824713E-002
  0.14310000000000000        -0.15798270561842437     
  0.14339999999999997        -0.21114951846028368     
  0.14369999999999999        -0.25445679099477714     
  0.14400000000000002        -0.28501591655120084     
  0.14429999999999998        -0.30158498339211148     
  0.14460000000000001        -0.30417549195677962     
  0.14490000000000003        -0.29325551280127959     
  0.14520000000000000        -0.26998485062602573     
  0.14550000000000002        -0.23647695965503079     
  0.14579999999999999        -0.19576162569439012     
  0.14610000000000001        -0.14952532462037793     
  0.14640000000000003        -0.10198506415538369     
  0.14670000000000000         -5.4553366247919746E-002
  0.14699999999999996         -1.0143374524602856E-002
  0.14729999999999999          2.8960051142069551E-002
  0.14760000000000001          6.2303654188347463E-002
  0.14789999999999998          8.8104233860706649E-002
  0.14820000000000000         0.10663573530728529     