  -1.4999999999999999E-002     0.0000000000000000     
  -1.4700000000000000E-002     0.0000000000000000     
  -1.4400000000000000E-002     0.0000000000000000     
  -1.4100000000000000E-002     0.0000000000000000     
  -1.3800000000000000E-002     0.0000000000000000     
  -1.3500000000000000E-002     0.0000000000000000     
  -1.3200000000000000E-002     0.0000000000000000     
  -1.2899999999999998E-002     0.0000000000000000     
  -1.2600000000000000E-002     0.0000000000000000     
  -1.2299999999999998E-002     0.0000000000000000     
  -1.2000000000000000E-002     0.0000000000000000     
  -1.1699999999999999E-002     0.0000000000000000     
  -1.1399999999999999E-002     0.0000000000000000     
  -1.1099999999999999E-002     0.0000000000000000     
  -1.0799999999999999E-002     0.0000000000000000     
  -1.0499999999999999E-002     0.0000000000000000     
  -1.0199999999999999E-002     0.0000000000000000     
  -9.8999999999999991E-003     0.0000000000000000     
  -9.5999999999999992E-003     0.0000000000000000     
  -9.2999999999999992E-003     0.0000000000000000     
  -8.9999999999999993E-003     0.0000000000000000     
  -8.6999999999999994E-003     0.0000000000000000     
  -8.3999999999999995E-003     0.0000000000000000     
  -8.0999999999999996E-003     0.0000000000000000     
  -7.7999999999999988E-003     0.0000000000000000     
  -7.4999999999999997E-003     0.0000000000000000     
  -7.1999999999999998E-003     0.0000000000000000     
  -6.8999999999999981E-003     0.0000000000000000     
  -6.5999999999999982E-003     0.0000000000000000     
  -6.3000000000000000E-003     0.0000000000000000     
  -6.0000000000000001E-003     0.0000000000000000     
  -5.6999999999999985E-003     0.0000000000000000     
  -5.3999999999999986E-003     0.0000000000000000     
  -5.1000000000000004E-003     0.0000000000000000     
  -4.7999999999999987E-003     0.0000000000000000     
  -4.5000000000000005E-003     0.0000000000000000     
  -4.1999999999999989E-003     0.0000000000000000     
  -3.8999999999999990E-003     0.0000000000000000     
  -3.5999999999999990E-003     0.0000000000000000     
  -3.2999999999999991E-003     0.0000000000000000     
  -2.9999999999999992E-003     0.0000000000000000     
  -2.6999999999999993E-003     0.0000000000000000     
  -2.3999999999999994E-003     0.0000000000000000     
  -2.0999999999999977E-003     0.0000000000000000     
  -1.7999999999999995E-003     0.0000000000000000     
  -1.4999999999999979E-003    -3.7177389766525621E-045
  -1.1999999999999997E-003     5.8493973193977951E-037
  -8.9999999999999976E-004    -9.1353604802707125E-036
  -5.9999999999999810E-004     6.9248344010351715E-035
  -2.9999999999999992E-004    -1.8552723162614817E-034
   0.0000000000000000          1.0116671842303218E-033
   3.0000000000000165E-004    -2.5191601056178048E-033
   5.9999999999999984E-004     3.3379886076863456E-033
   9.0000000000000149E-004     3.0452552407908597E-033
   1.2000000000000031E-003    -3.0396714202848121E-032
   1.5000000000000013E-003     9.5844419358960197E-032
   1.8000000000000030E-003    -1.9773615880787151E-031
   2.1000000000000012E-003     2.6604220995104896E-031
   2.3999999999999994E-003    -9.8001963858670273E-032
   2.7000000000000010E-003    -6.4763799094655967E-031
   2.9999999999999992E-003     2.2483400118257120E-030
   3.3000000000000008E-003    -4.4036459700051661E-030
   3.6000000000000025E-003     5.5112456824017633E-030
   3.9000000000000007E-003    -2.3189024979082659E-030
   4.2000000000000023E-003    -8.9833526411784153E-030
   4.5000000000000005E-003     2.9426063832585401E-029
   4.7999999999999987E-003    -5.2474615531165086E-029
   5.1000000000000004E-003     6.0752184470547002E-029
   5.4000000000000020E-003    -2.8603767760694897E-029
   5.7000000000000037E-003    -6.5565100196323982E-029
   5.9999999999999984E-003     2.1845772713622049E-028
   6.3000000000000000E-003    -3.8178453155759267E-028
   6.6000000000000017E-003     4.5289022759476075E-028
   6.9000000000000034E-003    -2.9148788700886872E-028
   7.2000000000000015E-003    -2.0756064341940129E-028
   7.5000000000000032E-003     1.0064483239158428E-027
   7.8000000000000014E-003    -1.8891254176199786E-027
   8.0999999999999996E-003     2.5079118837104114E-027
   8.4000000000000012E-003    -2.3804390220193913E-027
   8.7000000000000029E-003     8.5517108350789267E-028
   9.0000000000000011E-003     2.7467772441251373E-027
   9.2999999999999992E-003    -8.2575848652114388E-027
   9.6000000000000009E-003     1.2849573483159460E-026
   9.8999999999999991E-003    -1.1742894048103148E-026
   1.0200000000000001E-002     4.4650536114986657E-027
   1.0500000000000002E-002     3.5484795727926504E-027
   1.0800000000000004E-002    -1.2946461289822452E-026
   1.1099999999999999E-002     3.4409813627448420E-026
   1.1400000000000000E-002    -6.6624376023269220E-026
   1.1700000000000002E-002     7.5722383014676262E-026
   1.2000000000000004E-002    -1.1065274487517201E-026
   1.2300000000000002E-002    -1.2345580907862843E-025
   1.2600000000000000E-002     2.0444489074438651E-025
   1.2900000000000002E-002    -8.2918040857780103E-026
   1.3200000000000000E-002    -2.5372501480002690E-025
   1.3500000000000002E-002     4.7626851565645404E-025
   1.3800000000000003E-002     5.5759091857349282E-025
   1.4100000000000001E-002    -3.3562943775858625E-024
   1.4400000000000000E-002     2.7577559899576053E-024
   1.4700000000000001E-002     9.3817580830647763E-024
   1.4999999999999999E-002    -2.2219017180381347E-023
   1.5300000000000001E-002    -2.6234013804358834E-024
   1.5600000000000003E-002     6.9609971262837840E-023
   1.5899999999999997E-002    -6.8392354337400094E-023
   1.6199999999999999E-002    -1.2243923069847042E-022
   1.6500000000000001E-002     3.0876278936683681E-022
   1.6800000000000002E-002     1.4381385711418765E-023
   1.7100000000000004E-002    -7.8540331415483333E-022
   1.7400000000000006E-002     7.1434427962430541E-022
   1.7700000000000000E-002     1.1180326774889733E-021
   1.8000000000000002E-002    -2.6142074400529403E-021
   1.8300000000000004E-002     1.2130034855382176E-022
   1.8600000000000005E-002     5.0667758195142047E-021
   1.8900000000000000E-002    -4.7689757764592102E-021
   1.9200000000000002E-002    -4.6924047859971584E-021
   1.9500000000000003E-002     1.0944170086601438E-020
   1.9799999999999998E-002    -1.9884607788019339E-022
   2.0100000000000000E-002    -1.5119576459859247E-020
   2.0400000000000001E-002     1.3812267734404327E-020
   2.0700000000000003E-002     6.7439906550250025E-021
   2.0999999999999998E-002    -1.5750673924600440E-019
   2.1299999999999999E-002     5.9225218789006202E-019
   2.1600000000000001E-002     2.8113235346024589E-020
   2.1900000000000003E-002    -5.5788308992099571E-018
   2.2200000000000004E-002     1.1447052492513328E-017
   2.2500000000000006E-002     1.6970936013236048E-017
   2.2800000000000001E-002    -9.9132490236308317E-017
   2.3100000000000002E-002     5.8916820120083227E-017
   2.3400000000000004E-002     4.1627054034675191E-016
   2.3699999999999999E-002    -7.8351248046168236E-016
   2.4000000000000000E-002    -8.8794333253993143E-016
   2.4300000000000002E-002     3.6714931672771861E-015
   2.4599999999999997E-002     8.6808644669051533E-016
   2.4900000000000005E-002    -1.1558566749543983E-014
   2.5200000000000000E-002    -7.1601919037534851E-015
   2.5499999999999995E-002     4.7012483513770089E-014
   2.5800000000000003E-002     7.5764635471368766E-014
   2.6099999999999998E-002    -3.2933508959337318E-013
   2.6400000000000007E-002    -3.3346434734887166E-013
   2.6700000000000002E-002     2.1804019719106014E-012
   2.6999999999999996E-002     1.7870733032650672E-013
   2.7300000000000005E-002    -1.1134396734342608E-011
   2.7600000000000000E-002     7.4247864505400285E-012
   2.7900000000000008E-002     4.4502514472537031E-011
   2.8200000000000003E-002    -6.1445169468469282E-011
   2.8499999999999998E-002    -1.4346134613746354E-010
   2.8800000000000006E-002     3.2475278786680952E-010
   2.9100000000000001E-002     3.7943944343989238E-010
   2.9400000000000003E-002    -1.3852260808967896E-009
   2.9700000000000004E-002    -8.3391921096131410E-010
   3.0000000000000006E-002     5.2320242856504930E-009
   3.0300000000000001E-002     1.6945528801038646E-009
   3.0600000000000002E-002    -1.8541954219772982E-008
   3.0900000000000004E-002    -5.8877477340756633E-009
   3.1199999999999999E-002     6.0104995946765389E-008
   3.1500000000000007E-002     2.8805229820428095E-008
   3.1800000000000002E-002    -1.9365822743512411E-007
   3.2099999999999997E-002    -1.8042870467848971E-007
   3.2400000000000005E-002     7.7202612803557157E-007
   3.2700000000000000E-002     2.8527809436183629E-006
   3.3000000000000002E-002     6.2183422829509055E-006
   3.3300000000000003E-002     1.2561418119715211E-005
   3.3599999999999998E-002     2.4316838383734444E-005
   3.3900000000000000E-002     4.1282187302020399E-005
   3.4200000000000001E-002     6.0797313763759773E-005
   3.4500000000000003E-002     8.3860280888435734E-005
   3.4799999999999998E-002     1.1858602623351798E-004
   3.5099999999999999E-002     1.7455095443380078E-004
   3.5400000000000001E-002     2.5716226625257588E-004
   3.5699999999999996E-002     3.7286041391809964E-004
   3.6000000000000004E-002     5.3685875573943455E-004
   3.6299999999999999E-002     7.6780458198955493E-004
   3.6600000000000008E-002     1.0749865549932768E-003
   3.6900000000000002E-002     1.4593743561492126E-003
   3.7199999999999997E-002     1.9300941319269160E-003
   3.7500000000000006E-002     2.5112010136291228E-003
   3.7800000000000000E-002     3.2215936322354251E-003
   3.8100000000000009E-002     4.0434087547717053E-003
   3.8400000000000004E-002     4.9073720455093360E-003
   3.8699999999999998E-002     5.7035732355711043E-003
   3.9000000000000007E-002     6.2946371200008422E-003
   3.9300000000000002E-002     6.5030186878189643E-003
   3.9600000000000003E-002     6.0721339077969170E-003
   3.9900000000000005E-002     4.6388824521421228E-003
   4.0200000000000000E-002     1.7431892129384737E-003
   4.0500000000000001E-002    -3.1426780116564691E-003
   4.0800000000000003E-002    -1.0594642012507999E-002
   4.1100000000000005E-002    -2.1214226707321246E-002
   4.1399999999999999E-002    -3.5571072999821478E-002
   4.1700000000000008E-002    -5.4110885806681303E-002
   4.2000000000000003E-002    -7.7051104739313925E-002
   4.2299999999999997E-002   -0.10426936518469947     
   4.2600000000000006E-002   -0.13516994105750235     
   4.2900000000000001E-002   -0.16854994354557440     
   4.3200000000000002E-002   -0.20249353776439979     
   4.3500000000000004E-002   -0.23431376117195757     
   4.3799999999999999E-002   -0.26053098393981822     
   4.4100000000000000E-002   -0.27694780219064491     
   4.4400000000000002E-002   -0.27882877580846815     
   4.4700000000000004E-002   -0.26121062591802857     
   4.4999999999999998E-002   -0.21931076512818634     
   4.5300000000000000E-002   -0.14896726922741768     
   4.5600000000000002E-002    -4.7233385098019838E-002
   4.5899999999999996E-002     8.7070288116312428E-002
   4.6200000000000005E-002    0.25275600490919398     
   4.6500000000000000E-002    0.44589866150330348     
   4.6799999999999994E-002    0.65955574714735243     
   4.7100000000000003E-002    0.88378544530095460     
   4.7399999999999998E-002     1.1058947081723189     
   4.7700000000000006E-002     1.3111056366601441     
   4.8000000000000001E-002     1.4834271983028615     
   4.8300000000000010E-002     1.6068503004303001     
   4.8600000000000004E-002     1.6666316146359623     
   4.8899999999999999E-002     1.6508103958085485     
   4.9200000000000008E-002     1.5514841407672511     
   4.9500000000000002E-002     1.3658489277533614     
   4.9800000000000011E-002     1.0969372027384254     
   5.0100000000000006E-002    0.75393487614139776     
   5.0400000000000000E-002    0.35180414463052639     
   5.0700000000000009E-002    -8.9536624106666879E-002
   5.1000000000000004E-002   -0.54677535264857724     
   5.1299999999999998E-002   -0.99472506963372365     
   5.1600000000000007E-002    -1.4086859524676028     
   5.1900000000000002E-002    -1.7661515848327065     
   5.2200000000000010E-002    -2.0490570502095586     
   5.2500000000000005E-002    -2.2448995588389113     
   5.2800000000000000E-002    -2.3480017681837699     
   5.3099999999999994E-002    -2.3595159552646185     
   5.3400000000000003E-002    -2.2872477061072476     
   5.3699999999999998E-002    -2.1443825220924229     
   5.4000000000000006E-002    -1.9480857068142425     
   5.4300000000000001E-002    -1.7174681787255470     
   5.4599999999999996E-002    -1.4716681552040864     
   5.4900000000000004E-002    -1.2278582116131660     
   5.5199999999999999E-002   -0.99980874972090406     
   5.5499999999999994E-002   -0.79659344440078428     
   5.5800000000000002E-002   -0.62234569903875936     
   5.6099999999999997E-002   -0.47617353010752395     
   5.6400000000000006E-002   -0.35303968936268315     
   5.6700000000000000E-002   -0.24476558490085823     
   5.6999999999999995E-002   -0.14147837765650631     
   5.7300000000000004E-002    -3.3206113485675440E-002
   5.7599999999999998E-002     8.8910395164110367E-002
   5.7900000000000007E-002    0.23107809301441745     
   5.8200000000000002E-002    0.39643449412470516     
   5.8499999999999996E-002    0.58426345612831188     
   5.8800000000000005E-002    0.79055299029605608     
   5.9100000000000000E-002     1.0078934642701340     
   5.9400000000000008E-002     1.2268386145302055     
   5.9700000000000003E-002     1.4361660783244377     
   6.0000000000000012E-002     1.6246615991212876     
   6.0300000000000006E-002     1.7814455408830405     
   6.0600000000000001E-002     1.8974185391292129     
   6.0900000000000010E-002     1.9652876077928241     
   6.1200000000000004E-002     1.9806060018545901     
   6.1500000000000013E-002     1.9414341861360691     
   6.1800000000000008E-002     1.8487900887774529     
   6.2100000000000002E-002     1.7059294347581822     
   6.2399999999999997E-002     1.5184144104332000     
   6.2700000000000006E-002     1.2932424820418340     
   6.3000000000000000E-002     1.0388487798783188     
   6.3300000000000009E-002    0.76415540420177142     
   6.3600000000000004E-002    0.47843338086383508     
   6.3899999999999998E-002    0.19061609030166399     
   6.4199999999999993E-002    -9.0774791242421618E-002
   6.4500000000000002E-002   -0.35810974986482219     
   6.4800000000000010E-002   -0.60468329268904186     
   6.5100000000000005E-002   -0.82494588444135575     
   6.5400000000000000E-002    -1.0143689131271825     
   6.5700000000000008E-002    -1.1694612750221847     
   6.5999999999999989E-002    -1.2876289163249082     
   6.6299999999999998E-002    -1.3669882110112757     
   6.6600000000000006E-002    -1.4063346683912943     
   6.6900000000000001E-002    -1.4049568474109173     
   6.7199999999999996E-002    -1.3627490094257297     
   6.7500000000000004E-002    -1.2801884684421443     
   6.7800000000000013E-002    -1.1586530454563464     
   6.8099999999999994E-002    -1.0006110880715131     
   6.8400000000000002E-002   -0.81004657082784937     
   6.8700000000000011E-002   -0.59268654653699604     
   6.8999999999999992E-002   -0.35629738136752004     
   6.9300000000000000E-002   -0.11065687477674571     
   6.9600000000000009E-002    0.13260653892674923     
   6.9900000000000004E-002    0.36051625774771501     
   7.0199999999999999E-002    0.55942804805215207     
   7.0500000000000007E-002    0.71598131981225976     
   7.0800000000000016E-002    0.81822265928988203     
   7.1099999999999997E-002    0.85693826108952909     
   7.1400000000000005E-002    0.82649626102239715     
   7.1700000000000000E-002    0.72587038629101563     
   7.1999999999999995E-002    0.55912472008099001     
   7.2300000000000003E-002    0.33555362346353074     
   7.2600000000000012E-002     6.9220775418057851E-002
   7.2900000000000006E-002   -0.22186586723091217     
   7.3200000000000001E-002   -0.51697398320061749     
   7.3499999999999996E-002   -0.79413737542993246     
   7.3800000000000004E-002    -1.0318875531035951     
   7.4099999999999999E-002    -1.2108875769547827     
   7.4400000000000008E-002    -1.3152331392807961     
   7.4700000000000003E-002    -1.3337537333661267     
   7.5000000000000011E-002    -1.2607035905416779     
   7.5299999999999992E-002    -1.0961636539118935     
   7.5600000000000001E-002   -0.84565575748894728     
   7.5900000000000009E-002   -0.52008844556041256     
   7.6200000000000004E-002   -0.13464737260813892     
   7.6499999999999999E-002    0.29185420852613309     
   7.6800000000000007E-002    0.73824019761980730     
   7.7099999999999988E-002     1.1819026716455454     
   7.7399999999999997E-002     1.6000458337255214     
   7.7700000000000005E-002     1.9704190906828116     
   7.8000000000000014E-002     2.2726037981291616     
   7.8299999999999995E-002     2.4886487056063338     
   7.8600000000000003E-002     2.6041281774640952     
   7.8900000000000012E-002     2.6087382393263878     
   7.9199999999999993E-002     2.4971633488503580     
   7.9500000000000001E-002     2.2695873267574678     
   7.9800000000000010E-002     1.9322603162221523     
   8.0100000000000018E-002     1.4974080646064958     
   8.0399999999999999E-002    0.98305614935476526     
   8.0700000000000008E-002    0.41231603354808444     
   8.1000000000000003E-002   -0.18735093226976873     
   8.1299999999999997E-002   -0.78585918379523034     
   8.1600000000000006E-002    -1.3519503161106019     
   8.1900000000000014E-002    -1.8556636962448361     
   8.2199999999999995E-002    -2.2696152212708598     
   8.2500000000000004E-002    -2.5714903422082864     
   8.2799999999999999E-002    -2.7450137720339525     
   8.3100000000000007E-002    -2.7817922228989782     
   8.3400000000000002E-002    -2.6810637090077054     
   8.3700000000000011E-002    -2.4503062292427411     
   8.4000000000000005E-002    -2.1040242165931682     
   8.4300000000000000E-002    -1.6630987282850063     
   8.4599999999999995E-002    -1.1526090151928925     
   8.4900000000000003E-002   -0.60066808546032679     
   8.5199999999999998E-002    -3.6011625802088880E-002
   8.5500000000000007E-002    0.51339633372252458     
   8.5800000000000001E-002     1.0221764067660670     
   8.6100000000000010E-002     1.4682512596711768     
   8.6399999999999991E-002     1.8336983118086805     
   8.6699999999999999E-002     2.1053252668652527     
   8.7000000000000008E-002     2.2742825038353445     
   8.7300000000000003E-002     2.3359993000386949     
   8.7599999999999997E-002     2.2893677243221178     
   8.7900000000000006E-002     2.1370151494846232     
   8.8200000000000014E-002     1.8840079704538777     
   8.8499999999999995E-002     1.5382795656208161     
   8.8800000000000004E-002     1.1097482673123675     
   8.9100000000000013E-002    0.61117888731921821     
   8.9399999999999993E-002     5.7115812384295674E-002
   8.9700000000000002E-002   -0.53499372019870661     
   9.0000000000000011E-002    -1.1458207618941236     
   9.0299999999999991E-002    -1.7532201191679735     
   9.0600000000000000E-002    -2.3341916108028693     
   9.0900000000000009E-002    -2.8641980305959760     
   9.1200000000000017E-002    -3.3193445912021171     
   9.1499999999999998E-002    -3.6766298597341072     
   9.1800000000000007E-002    -3.9165593022426761     
   9.2100000000000001E-002    -4.0233665361966713     
   9.2399999999999996E-002    -3.9873150234626240     
   9.2700000000000005E-002    -3.8050807321584132     
   9.3000000000000013E-002    -3.4810612930743399     
   9.3300000000000008E-002    -3.0267384684005458     
   9.3600000000000003E-002    -2.4610209976256088     
   9.3899999999999997E-002    -1.8084773198104005     
   9.4200000000000006E-002    -1.0985676272960194     
   9.4500000000000001E-002   -0.36256933888765802     
   9.4800000000000009E-002    0.36696017646722218     
   9.5100000000000004E-002     1.0600345365963910     
   9.5399999999999999E-002     1.6896895533296150     
   9.5699999999999993E-002     2.2352304935618763     
   9.6000000000000002E-002     2.6817007634825303     
   9.6300000000000011E-002     3.0218973800332756     
   9.6600000000000005E-002     3.2548990938213911     
   9.6900000000000000E-002     3.3868761777990066     
   9.7200000000000009E-002     3.4287331827590601     
   9.7499999999999989E-002     3.3958905458790434     
   9.7799999999999998E-002     3.3057382802741113     
   9.8100000000000007E-002     3.1772883606711755     
   9.8400000000000015E-002     3.0288351218728322     
   9.8699999999999996E-002     2.8777585633995915     
   9.9000000000000005E-002     2.7390864470305099     
   9.9300000000000013E-002     2.6254590108374432     
   9.9599999999999994E-002     2.5463741359577945     
   9.9900000000000003E-002     2.5081258345949169     
  0.10020000000000001          2.5137467911382667     
  0.10049999999999999          2.5625322402593982     
  0.10080000000000000          2.6505973895409993     
  0.10110000000000001          2.7692244634668342     
  0.10140000000000000          2.9065714493666919     
  0.10170000000000000          3.0460441753816703     
  0.10200000000000001          3.1686993313074217     
  0.10230000000000002          3.2512984961855760     
  0.10260000000000000          3.2708869671230900     
  0.10290000000000001          3.2030444822449424     
  0.10320000000000000          3.0272129222692494     
  0.10350000000000001          2.7255547624170644     
  0.10380000000000000          2.2876451500811230     
  0.10410000000000001          1.7107597953160425     
  0.10440000000000001          1.0019792532251945     
  0.10470000000000000         0.17809257307582901     
  0.10500000000000000        -0.73411007270309159     
  0.10530000000000000         -1.6992162824008681     
  0.10560000000000000         -2.6759167282503515     
  0.10590000000000001         -3.6186767389393002     
  0.10620000000000000         -4.4823080057336382     
  0.10650000000000001         -5.2239996108313846     
  0.10679999999999999         -5.8086272515665689     
  0.10710000000000000         -6.2095710161857189     
  0.10740000000000001         -6.4125811027354933     
  0.10770000000000000         -6.4152552055737821     
  0.10800000000000000         -6.2294823058011035     
  0.10830000000000001         -5.8775354675668972     
  0.10859999999999999         -5.3930832096320085     
  0.10890000000000000         -4.8156515185749740     
  0.10920000000000001         -4.1900354316463071     
  0.10950000000000001         -3.5599153792524163     
  0.10979999999999999         -2.9673765330178705     
  0.11009999999999999         -2.4473717726591850     
  0.11040000000000001         -2.0275896020157056     
  0.11070000000000001         -1.7246219280067747     
  0.11100000000000000         -1.5459581936005720     
  0.11130000000000000         -1.4874855590355425     
  0.11160000000000002         -1.5375907742575801     
  0.11190000000000001         -1.6749509924347743     
  0.11220000000000001         -1.8750420011222930     
  0.11250000000000000         -2.1071913687142865     
  0.11280000000000000         -2.3422129649774459     
  0.11309999999999999         -2.5488322321689973     
  0.11340000000000001         -2.7004881478800344     
  0.11369999999999998         -2.7713688009629034     
  0.11400000000000000         -2.7422288048507348     
  0.11430000000000000         -2.5965552884274921     
  0.11460000000000002         -2.3244290848918459     
  0.11489999999999999         -1.9197172338099180     
  0.11520000000000001         -1.3826858103061102     
  0.11550000000000001        -0.71823056119988626     
  0.11580000000000000          6.2042077051655917E-002
  0.11609999999999999         0.94099535519209421     
  0.11640000000000002          1.8937971991064275     
  0.11670000000000001          2.8886700287754468     
  0.11700000000000001          3.8859856952738840     
  0.11730000000000000          4.8378287389110337     
  0.11760000000000000          5.6904517429758013     
  0.11789999999999999          6.3833142685006061     
  0.11820000000000001          6.8555199175102635     
  0.11850000000000001          7.0457722257120290     
  0.11880000000000000          6.9028202573634054     
  0.11910000000000000          6.3864232470156939     
  0.11940000000000002          5.4798847411661127     
  0.11970000000000001          4.1913653311469288     
  0.12000000000000001          2.5652700013775571     
  0.12030000000000000         0.67985053264890050     
  0.12060000000000000         -1.3461923894281331     
  0.12089999999999999         -3.3631907237136116     
  0.12119999999999999         -5.1927682090058660     
  0.12150000000000001         -6.6460005286163621     
  0.12180000000000001         -7.5337158874464869     
  0.12210000000000000         -7.6912819615069727     
  0.12239999999999999         -6.9926768860925383     
  0.12270000000000002         -5.3744636747740300     
  0.12300000000000001         -2.8457446722795701     
  0.12330000000000001         0.49814937440906165     
  0.12360000000000000          4.4780164710629773     
  0.12390000000000000          8.8341571781016732     
  0.12419999999999999          13.245518967149939     
  0.12450000000000001          17.350218190172928     
  0.12480000000000001          20.777821031828008     
  0.12509999999999999          23.180370827245621     
  0.12540000000000001          24.267088456396937     
  0.12570000000000003          23.833118949674610     
  0.12600000000000000          21.783770074806586     
  0.12630000000000002          18.147745521975100     
  0.12659999999999999          13.080533308737142     
  0.12690000000000001          6.8566199827131928     
  0.12719999999999998        -0.15174094072334229     
  0.12750000000000000         -7.5005094218253996     
  0.12780000000000002         -14.711244897359402     
  0.12809999999999999         -21.306379773784435     
  0.12840000000000001         -26.849360086632327     
  0.12869999999999998         -30.973553366533569     
  0.12900000000000000         -33.413784742040008     
  0.12930000000000003         -34.017220271331446     
  0.12959999999999999         -32.757607207223849     
  0.12990000000000002         -29.725136439161044     
  0.13019999999999998         -25.121950686889427     
  0.13050000000000000         -19.236126357396508     
  0.13080000000000003         -12.425254133658362     
  0.13109999999999999         -5.0827294480381138     
  0.13140000000000002          2.3828356778909874     
  0.13169999999999998          9.5776960517256029     
  0.13200000000000001          16.140301096223929     
  0.13229999999999997          21.762650001797446     
  0.13260000000000000          26.200831020077167     
  0.13290000000000002          29.283459336024489     
  0.13319999999999999          30.916487401237120     
  0.13350000000000001          31.080431649049192     
  0.13380000000000003          29.828602474879929     
  0.13410000000000000          27.276831256361323     
  0.13440000000000002          23.597208527544726     
  0.13469999999999999          19.002430368453538     
  0.13500000000000001          13.736633594579271     
  0.13529999999999998          8.0582010086970346     
  0.13560000000000000          2.2276392463057788     
  0.13590000000000002         -3.5059154777847326     
  0.13619999999999999         -8.9170591346472516     
  0.13650000000000001         -13.813090618870126     
  0.13680000000000003         -18.041777041846515     
  0.13710000000000000         -21.494335633009438     
  0.13740000000000002         -24.107584513881992     
  0.13769999999999999         -25.860144213188001     
  0.13800000000000001         -26.769594763644335     
  0.13829999999999998         -26.883873559479895     
  0.13860000000000000         -26.276295268985219     
  0.13890000000000002         -25.033869323969022     
  0.13919999999999999         -23.254028816691061     
  0.13950000000000001         -21.033359976658012     
  0.13979999999999998         -18.467590726398871     
  0.14010000000000000         -15.642078733788807     
  0.14040000000000002         -12.635967524643581     
  0.14069999999999999         -9.5160753377288536     
  0.14100000000000001         -6.3427311347120883     
  0.14130000000000004         -3.1651032649985651     
  0.14160000000000000         -2.9330805883348646E-002
  0.14189999999999997          3.0258308099794018     
  0.14219999999999999          5.9614154178044538     
  0.14250000000000002          8.7425310091010964     
  0.14279999999999998          11.333515408890857     
  0.14310000000000000          13.700093561498756     
  0.14339999999999997          15.808355668541520     
  0.14369999999999999          17.626484293102756     
  0.14400000000000002          19.125814845651963     
  0.14429999999999998          20.281326726299710     
  0.14460000000000001          21.074942084306016     
  0.14490000000000003          21.494122009523046     
  0.14520000000000000          21.536489945484920     
  0.14550000000000002          21.206779931629690     
  0.14579999999999999          20.520815332545148     
  0.14610000000000001          19.501343188533188     
  0.14640000000000003          18.179672628064257     
  0.14670000000000000          16.592909212245225     
  0.14699999999999996          14.782137231501322     
  0.14729999999999999          12.790128026168535     
  0.14760000000000001          10.659601438152162     
  0.14789999999999998          8.4308387640876354     
  0.14820000000000000          6.1401687973259014     