  -1.4999999999999999E-002     0.0000000000000000     
  -1.4700000000000000E-002     0.0000000000000000     
  -1.4400000000000000E-002     0.0000000000000000     
  -1.4100000000000000E-002     0.0000000000000000     
  -1.3800000000000000E-002     0.0000000000000000     
  -1.3500000000000000E-002     0.0000000000000000     
  -1.3200000000000000E-002     0.0000000000000000     
  -1.2899999999999998E-002     0.0000000000000000     
  -1.2600000000000000E-002     0.0000000000000000     
  -1.2299999999999998E-002     0.0000000000000000     
  -1.2000000000000000E-002     0.0000000000000000     
  -1.1699999999999999E-002     0.0000000000000000     
  -1.1399999999999999E-002     0.0000000000000000     
  -1.1099999999999999E-002     0.0000000000000000     
  -1.0799999999999999E-002    -4.5131689255525373E-037
  -1.0499999999999999E-002     6.4322085140091445E-036
  -1.0199999999999999E-002     3.8505210881976695E-035
  -9.8999999999999991E-003    -1.0920074142047841E-033
  -9.5999999999999992E-003     3.7189956230623295E-033
  -9.2999999999999992E-003     1.3943187183463666E-032
  -8.9999999999999993E-003    -1.0536065348275749E-031
  -8.6999999999999994E-003    -9.4806116898030402E-032
  -8.3999999999999995E-003     1.6949266824179189E-030
  -8.0999999999999996E-003    -4.6735736663400588E-031
  -7.7999999999999988E-003    -1.7655932478227038E-029
  -7.4999999999999997E-003     1.4628316172154956E-029
  -7.1999999999999998E-003     1.2789583704731000E-028
  -6.8999999999999981E-003    -9.0273793782639211E-029
  -6.5999999999999982E-003    -8.7559872308496007E-028
  -6.3000000000000000E-003     2.6702272189155666E-028
  -6.0000000000000001E-003     5.9911679362671559E-027
  -5.6999999999999985E-003    -3.3741874968117726E-027
  -5.3999999999999986E-003    -1.7950799292931684E-026
  -5.1000000000000004E-003    -2.8090264952142448E-026
  -4.7999999999999987E-003     1.4169213104436998E-025
  -4.5000000000000005E-003     9.8131776095582513E-026
  -4.1999999999999989E-003    -6.8147498266134323E-025
  -3.8999999999999990E-003     7.7951220585055670E-025
  -3.5999999999999990E-003    -2.1055501292055684E-024
  -3.2999999999999991E-003     5.5528209559341310E-024
  -2.9999999999999992E-003     3.8001008618343918E-025
  -2.6999999999999993E-003    -2.0461329195222532E-023
  -2.3999999999999994E-003     4.2601979092844549E-023
  -2.0999999999999977E-003    -1.0749514121444299E-022
  -1.7999999999999995E-003     1.7838867693504578E-022
  -1.4999999999999979E-003     1.1272411767893806E-022
  -1.1999999999999997E-003    -7.9664416147725271E-022
  -8.9999999999999976E-004     1.0535323545509533E-021
  -5.9999999999999810E-004    -8.1725617805722131E-022
  -2.9999999999999992E-004    -5.2499551573318330E-023
   0.0000000000000000          3.6674125439857010E-021
   3.0000000000000165E-004    -5.8216607260726209E-021
   5.9999999999999984E-004    -5.8813590243572514E-022
   9.0000000000000149E-004     2.2866199770898195E-021
   1.2000000000000031E-003     5.0477641226175663E-021
   1.5000000000000013E-003     2.2986933208612700E-021
   1.8000000000000030E-003     1.2697718381127352E-020
   2.1000000000000012E-003    -2.8124966894618023E-020
   2.3999999999999994E-003    -1.6510097042756192E-019
   2.7000000000000010E-003     3.2825935320805608E-019
   2.9999999999999992E-003     2.0666439384672190E-019
   3.3000000000000008E-003    -9.9185346848048097E-019
   3.6000000000000025E-003     7.8401203786340122E-019
   3.9000000000000007E-003     1.1420512618730929E-018
   4.2000000000000023E-003    -4.2084061595814721E-018
   4.5000000000000005E-003     1.4680273292939058E-018
   4.7999999999999987E-003     1.1555890475818314E-017
   5.1000000000000004E-003    -1.1633070166822447E-017
   5.4000000000000020E-003    -1.9642802521961805E-017
   5.7000000000000037E-003     3.5320176170703196E-017
   5.9999999999999984E-003     1.0819921646516381E-017
   6.3000000000000000E-003    -7.1770926704451439E-017
   6.6000000000000017E-003     5.0048154987780650E-017
   6.9000000000000034E-003     1.0567690924655741E-016
   7.2000000000000015E-003    -1.9526166349754399E-016
   7.5000000000000032E-003    -1.0199540610343055E-016
   7.8000000000000014E-003     3.8347752089588441E-016
   8.0999999999999996E-003     2.5271649912485744E-017
   8.4000000000000012E-003    -4.2185359880163803E-016
   8.7000000000000029E-003     8.8019462019574683E-017
   9.0000000000000011E-003     1.0372627336249051E-016
   9.2999999999999992E-003    -1.2504909957120385E-016
   9.6000000000000009E-003     3.7773746411495793E-016
   9.8999999999999991E-003     4.2919759529592427E-017
   1.0200000000000001E-002    -3.9919281077098001E-016
   1.0500000000000002E-002     5.2158829530832320E-016
   1.0800000000000004E-002     4.5707483249657049E-017
   1.1099999999999999E-002    -4.6896093353166348E-015
   1.1400000000000000E-002    -4.8749414093627199E-016
   1.1700000000000002E-002     2.2307800003005554E-014
   1.2000000000000004E-002    -3.6721209974909459E-015
   1.2300000000000002E-002    -6.6593544502322961E-014
   1.2600000000000000E-002     4.5183907781606401E-014
   1.2900000000000002E-002     1.2570843919118496E-013
   1.3200000000000000E-002    -1.9753580436356235E-013
   1.3500000000000002E-002    -1.0502572855217064E-013
   1.3800000000000003E-002     5.1901230540751488E-013
   1.4100000000000001E-002    -2.0551509104983258E-013
   1.4400000000000000E-002    -8.6741376318336820E-013
   1.4700000000000001E-002     9.8645177186450839E-013
   1.4999999999999999E-002     6.7847620953379716E-013
   1.5300000000000001E-002    -1.8288886401572001E-012
   1.5600000000000003E-002     7.4141822879466639E-013
   1.5899999999999997E-002     6.8023795567004761E-013
   1.6199999999999999E-002    -1.9319919601250696E-012
   1.6500000000000001E-002     6.5243452974421555E-012
   1.6800000000000002E-002    -7.6895350754193276E-012
   1.7100000000000004E-002    -1.9812793625038406E-011
   1.7400000000000006E-002     6.2352870666330340E-011
   1.7700000000000000E-002     4.4531647635750302E-012
   1.8000000000000002E-002    -2.4139620406923183E-010
   1.8300000000000004E-002     2.1676618253615035E-010
   1.8600000000000005E-002     6.9144448279456171E-010
   1.8900000000000000E-002    -1.3098907133864437E-009
   1.9200000000000002E-002    -1.6776937135709726E-009
   1.9500000000000003E-002     5.5806464021203512E-009
   1.9799999999999998E-002     4.1326041565320766E-009
   2.0100000000000000E-002    -2.0996013297710077E-008
   2.0400000000000001E-002    -1.5438006820512373E-008
   2.0700000000000003E-002     6.8520675242463639E-008
   2.0999999999999998E-002     6.9730504117479041E-008
   2.1299999999999999E-002    -2.1255906324176457E-007
   2.1600000000000001E-002    -3.4419535683321732E-007
   2.1900000000000003E-002     9.3790851880158172E-007
   2.2200000000000004E-002     4.6378721567220798E-006
   2.2500000000000006E-002     1.0242725183695601E-005
   2.2800000000000001E-002     1.6202038571349685E-005
   2.3100000000000002E-002     2.2059676953971879E-005
   2.3400000000000004E-002     2.9817641492559108E-005
   2.3699999999999999E-002     4.2691340574840792E-005
   2.4000000000000000E-002     6.2869627404880244E-005
   2.4300000000000002E-002     9.1894315185358320E-005
   2.4599999999999997E-002     1.3359500386689684E-004
   2.4900000000000005E-002     1.9465121611179795E-004
   2.5200000000000000E-002     2.8116561687521264E-004
   2.5499999999999995E-002     3.9659166506481996E-004
   2.5800000000000003E-002     5.4327968529840746E-004
   2.6099999999999998E-002     7.2276093107656711E-004
   2.6400000000000007E-002     9.3437506272058771E-004
   2.6700000000000002E-002     1.1763485822567765E-003
   2.6999999999999996E-002     1.4431627525338341E-003
   2.7300000000000005E-002     1.7112218103565665E-003
   2.7600000000000000E-002     1.9248255290969553E-003
   2.7900000000000008E-002     1.9981943647799207E-003
   2.8200000000000003E-002     1.8196947699728049E-003
   2.8499999999999998E-002     1.2369785456863148E-003
   2.8800000000000006E-002     3.3737693930684500E-005
   2.9100000000000001E-002    -2.0762259381308752E-003
   2.9400000000000003E-002    -5.4388297917910538E-003
   2.9700000000000004E-002    -1.0453523361689511E-002
   3.0000000000000006E-002    -1.7580797202441246E-002
   3.0300000000000001E-002    -2.7352230621755284E-002
   3.0600000000000002E-002    -4.0353406995544544E-002
   3.0900000000000004E-002    -5.7166955576829798E-002
   3.1199999999999999E-002    -7.8310099123958546E-002
   3.1500000000000007E-002   -0.10420017890932294     
   3.1800000000000002E-002   -0.13512532428460844     
   3.2099999999999997E-002   -0.17118438326317634     
   3.2400000000000005E-002   -0.21222205683998813     
   3.2700000000000000E-002   -0.25778489814452077     
   3.3000000000000002E-002   -0.30711428049275102     
   3.3300000000000003E-002   -0.35914054662002659     
   3.3599999999999998E-002   -0.41252243376971864     
   3.3900000000000000E-002   -0.46569316173809205     
   3.4200000000000001E-002   -0.51691506187521452     
   3.4500000000000003E-002   -0.56434830058176977     
   3.4799999999999998E-002   -0.60616985377423482     
   3.5099999999999999E-002   -0.64067837511908265     
   3.5400000000000001E-002   -0.66630856723560272     
   3.5699999999999996E-002   -0.68166245540150638     
   3.6000000000000004E-002   -0.68548709293614940     
   3.6299999999999999E-002   -0.67670787278659794     
   3.6600000000000008E-002   -0.65426913969201217     
   3.6900000000000002E-002   -0.61702867885904222     
   3.7199999999999997E-002   -0.56373732190974901     
   3.7500000000000006E-002   -0.49293755260424388     
   3.7800000000000000E-002   -0.40299496717977651     
   3.8100000000000009E-002   -0.29224425038429780     
   3.8400000000000004E-002   -0.15914859724312819     
   3.8699999999999998E-002    -2.7342263589496298E-003
   3.9000000000000007E-002    0.17728477654836317     
   3.9300000000000002E-002    0.37980497721138018     
   3.9600000000000003E-002    0.60201019823238511     
   3.9900000000000005E-002    0.83916706311550837     
   4.0200000000000000E-002     1.0842208806781470     
   4.0500000000000001E-002     1.3280307311458537     
   4.0800000000000003E-002     1.5596708765878557     
   4.1100000000000005E-002     1.7668952303942407     
   4.1399999999999999E-002     1.9372076080854854     
   4.1700000000000008E-002     2.0588019370348962     
   4.2000000000000003E-002     2.1217448135360124     
   4.2299999999999997E-002     2.1192864378500018     
   4.2600000000000006E-002     2.0487217968027389     
   4.2900000000000001E-002     1.9119922513315570     
   4.3200000000000002E-002     1.7164024558168718     
   4.3500000000000004E-002     1.4738260253599431     
   4.3799999999999999E-002     1.2003953184160057     
   4.4100000000000000E-002    0.91510603569405014     
   4.4400000000000002E-002    0.63820977424017677     
   4.4700000000000004E-002    0.38934422011812242     
   4.4999999999999998E-002    0.18567012101763958     
   4.5300000000000000E-002     4.0072472128896100E-002
   4.5600000000000002E-002    -4.0319691186710874E-002
   4.5899999999999996E-002    -5.4912743806339821E-002
   4.6200000000000005E-002    -1.0061766399980819E-002
   4.6500000000000000E-002     8.1293996599745122E-002
   4.6799999999999994E-002    0.20083957429687319     
   4.7100000000000003E-002    0.32612663022974409     
   4.7399999999999998E-002    0.43281424222896198     
   4.7700000000000006E-002    0.49680013583273186     
   4.8000000000000001E-002    0.49656125945855067     
   4.8300000000000010E-002    0.41502107122166354     
   4.8600000000000004E-002    0.24198166079593486     
   4.8899999999999999E-002    -2.5373145325482585E-002
   4.9200000000000008E-002   -0.38145660307671714     
   4.9500000000000002E-002   -0.81196517976735516     
   4.9800000000000011E-002    -1.2951882485257897     
   5.0100000000000006E-002    -1.8028712892284293     
   5.0400000000000000E-002    -2.3022105980799337     
   5.0700000000000009E-002    -2.7584020616650204     
   5.1000000000000004E-002    -3.1370763298055024     
   5.1299999999999998E-002    -3.4070517805330085     
   5.1600000000000007E-002    -3.5431390315743112     
   5.1900000000000002E-002    -3.5281965517639535     
   5.2200000000000010E-002    -3.3550467770818790     
   5.2500000000000005E-002    -3.0274139181934725     
   5.2800000000000000E-002    -2.5601422975422619     
   5.3099999999999994E-002    -1.9789387631995266     
   5.3400000000000003E-002    -1.3182054790652236     
   5.3699999999999998E-002   -0.61926572515590061     
   5.4000000000000006E-002     7.2603652110632078E-002
   5.4300000000000001E-002    0.71209998659931706     
   5.4599999999999996E-002     1.2565748422741683     
   5.4900000000000004E-002     1.6699280551501134     
   5.5199999999999999E-002     1.9255429236969988     
   5.5499999999999994E-002     2.0084028713626516     
   5.5800000000000002E-002     1.9161266692161227     
   5.6099999999999997E-002     1.6601073188751412     
   5.6400000000000006E-002     1.2637051868878153     
   5.6700000000000000E-002    0.76119319813896613     
   5.6999999999999995E-002    0.19485386767063900     
   5.7300000000000004E-002   -0.38882431519774929     
   5.7599999999999998E-002   -0.94197813550112519     
   5.7900000000000007E-002    -1.4201891791025452     
   5.8200000000000002E-002    -1.7853199888502036     
   5.8499999999999996E-002    -2.0084504813532313     
   5.8800000000000005E-002    -2.0723469557863847     
   5.9100000000000000E-002    -1.9721462554059119     
   5.9400000000000008E-002    -1.7153194801013287     
   5.9700000000000003E-002    -1.3205475718253852     
   6.0000000000000012E-002   -0.81596408179375501     
   6.0300000000000006E-002   -0.23568627091102851     
   6.0600000000000001E-002    0.38271039303493981     
   6.0900000000000010E-002     1.0022121191875473     
   6.1200000000000004E-002     1.5884882339828859     
   6.1500000000000013E-002     2.1138404069193304     
   6.1800000000000008E-002     2.5576859826431777     
   6.2100000000000002E-002     2.9079025202156608     
   6.2399999999999997E-002     3.1614311080710871     
   6.2700000000000006E-002     3.3221711507688196     
   6.3000000000000000E-002     3.4006090114921252     
   6.3300000000000009E-002     3.4108462491656355     
   6.3600000000000004E-002     3.3686902342560936     
   6.3899999999999998E-002     3.2893366441164424     
   6.4199999999999993E-002     3.1855864581446878     
   6.4500000000000002E-002     3.0662806279637174     
   6.4800000000000010E-002     2.9355191273890937     
   6.5100000000000005E-002     2.7933138424164867     
   6.5400000000000000E-002     2.6348001834848924     
   6.5700000000000008E-002     2.4527880771087247     
   6.5999999999999989E-002     2.2383873512568053     
   6.6299999999999998E-002     1.9831233813846261     
   6.6600000000000006E-002     1.6799635161770972     
   6.6900000000000001E-002     1.3251642651373308     
   6.7199999999999996E-002    0.91929359793297349     
   6.7500000000000004E-002    0.46705341525160748     
   6.7800000000000013E-002    -2.1838242265866725E-002
   6.8099999999999994E-002   -0.53382686451527606     
   6.8400000000000002E-002    -1.0514892447940847     
   6.8700000000000011E-002    -1.5563541227297324     
   6.8999999999999992E-002    -2.0282102091080221     
   6.9300000000000000E-002    -2.4483367878683682     
   6.9600000000000009E-002    -2.8002817951828463     
   6.9900000000000004E-002    -3.0705038611860855     
   7.0199999999999999E-002    -3.2505288221821305     
   7.0500000000000007E-002    -3.3360634010592123     
   7.0800000000000016E-002    -3.3287551989564172     
   7.1099999999999997E-002    -3.2352863028940044     
   7.1400000000000005E-002    -3.0671348136723777     
   7.1700000000000000E-002    -2.8400165412771665     
   7.1999999999999995E-002    -2.5732202859986555     
   7.2300000000000003E-002    -2.2880854233945125     
   7.2600000000000012E-002    -2.0071294262455894     
   7.2900000000000006E-002    -1.7537779086853293     
   7.3200000000000001E-002    -1.5499508915351898     
   7.3499999999999996E-002    -1.4162238150751751     
   7.3800000000000004E-002    -1.3706040634203456     
   7.4099999999999999E-002    -1.4274322773756984     
   7.4400000000000008E-002    -1.5966120099551120     
   7.4700000000000003E-002    -1.8827078670139010     
   7.5000000000000011E-002    -2.2837408734569524     
   7.5299999999999992E-002    -2.7894969737789346     
   7.5600000000000001E-002    -3.3819435702526732     
   7.5900000000000009E-002    -4.0317227874326331     
   7.6200000000000004E-002    -4.6998982808696939     
   7.6499999999999999E-002    -5.3363775569140728     
   7.6800000000000007E-002    -5.8811923707131211     
   7.7099999999999988E-002    -6.2670980033226380     
   7.7399999999999997E-002    -6.4225025483627007     
   7.7700000000000005E-002    -6.2768480432622322     
   7.8000000000000014E-002    -5.7667197364678131     
   7.8299999999999995E-002    -4.8437334835347698     
   7.8600000000000003E-002    -3.4817547933848365     
   7.8900000000000012E-002    -1.6846175973765209     
   7.9199999999999993E-002    0.50707953086930546     
   7.9500000000000001E-002     3.0142858081674953     
   7.9800000000000010E-002     5.7161549596462198     
   8.0100000000000018E-002     8.4558434025066109     
   8.0399999999999999E-002     11.047798657747634     
   8.0700000000000008E-002     13.289132926120889     
   8.1000000000000003E-002     14.976033883316841     
   8.1299999999999997E-002     15.921681030806569     
   8.1600000000000006E-002     15.974868074081964     
   8.1900000000000014E-002     15.037088682528198     
   8.2199999999999995E-002     13.078757370994987     
   8.2500000000000004E-002     10.146270623272729     
   8.2799999999999999E-002     6.3673353746830408     
   8.3100000000000007E-002     1.9460785660772073     
   8.3400000000000002E-002    -2.8490779245849422     
   8.3700000000000011E-002    -7.7028291826702375     
   8.4000000000000005E-002    -12.276636207465344     
   8.4300000000000000E-002    -16.234910222984624     
   8.4599999999999995E-002    -19.273469137897237     
   8.4900000000000003E-002    -21.142831594970847     
   8.5199999999999998E-002    -21.671613042988923     
   8.5500000000000007E-002    -20.780286022904896     
   8.5800000000000001E-002    -18.486560691449071     
   8.6100000000000010E-002    -14.907836085994010     
   8.6399999999999991E-002    -10.247867814071538     
   8.6699999999999999E-002    -4.7822056262744566     
   8.7000000000000008E-002     1.1637587389725650     
   8.7300000000000003E-002     7.2393552334808380     
   8.7599999999999997E-002     13.097361052486862     
   8.7900000000000006E-002     18.413252939249265     
   8.8200000000000014E-002     22.911236580369188     
   8.8499999999999995E-002     26.378500879302393     
   8.8800000000000004E-002     28.671947578675564     
   8.9100000000000013E-002     29.726971948200777     
   8.9399999999999993E-002     29.552118265862571     
   8.9700000000000002E-002     28.220442496904631     
   9.0000000000000011E-002     25.860516995229666     
   9.0299999999999991E-002     22.641415856202375     
   9.0600000000000000E-002     18.756413860878364     
   9.0900000000000009E-002     14.408619967221828     
   9.1200000000000017E-002     9.8009881351279375     
   9.1499999999999998E-002     5.1174557278795234     
   9.1800000000000007E-002    0.52414348241795228     
   9.2100000000000001E-002    -3.8431337357520210     
   9.2399999999999996E-002    -7.8781381524669580     
   9.2700000000000005E-002    -11.502604156601597     
   9.3000000000000013E-002    -14.667353837501464     
   9.3300000000000008E-002    -17.346029217516126     
   9.3600000000000003E-002    -19.530026298452501     
   9.3899999999999997E-002    -21.224335452434655     
   9.4200000000000006E-002    -22.443786435142918     
   9.4500000000000001E-002    -23.205216790768535     
   9.4800000000000009E-002    -23.528178299521880     
   9.5100000000000004E-002    -23.431307622167164     
   9.5399999999999999E-002    -22.930726496023865     
   9.5699999999999993E-002    -22.043231435728988     
   9.6000000000000002E-002    -20.783359228631106     
   9.6300000000000011E-002    -19.173799906369794     
   9.6600000000000005E-002    -17.235638285487688     
   9.6900000000000000E-002    -15.003421484786539     
   9.7200000000000009E-002    -12.519268945952371     
   9.7499999999999989E-002    -9.8340782467820276     
   9.7799999999999998E-002    -7.0112832800995335     
   9.8100000000000007E-002    -4.1216405691545868     
   9.8400000000000015E-002    -1.2421680875517449     
   9.8699999999999996E-002     1.5489964958352012     
   9.9000000000000005E-002     4.1730785791060034     
   9.9300000000000013E-002     6.5618278494050664     
   9.9599999999999994E-002     8.6527500116543550     
   9.9900000000000003E-002     10.400553626365141     
  0.10020000000000001          11.775787726885003     
  0.10049999999999999          12.763470241132614     
  0.10080000000000000          13.371770367609590     
  0.10110000000000001          13.620798596021228     
  0.10140000000000000          13.546652376955462     
  0.10170000000000000          13.196911294304261     
  0.10200000000000001          12.626885991517575     
  0.10230000000000002          11.894453159189540     
  0.10260000000000000          11.057970181019716     
  0.10290000000000001          10.173290142888080     
  0.10320000000000000          9.2845410253844580     
  0.10350000000000001          8.4312270168155159     
  0.10380000000000000          7.6365547245594581     
  0.10410000000000001          6.9139656230520039     
  0.10440000000000001          6.2617676983883772     
  0.10470000000000000          5.6690099375552343     
  0.10500000000000000          5.1140843176912183     
  0.10530000000000000          4.5681960970084408     
  0.10560000000000000          4.0026944209541728     
  0.10590000000000001          3.3854157073858619     
  0.10620000000000000          2.6927436384065375     
  0.10650000000000001          1.9074902621516703     
  0.10679999999999999          1.0222513731187886     
  0.10710000000000000          4.3296871447522145E-002
  0.10740000000000001         -1.0114195486643247     
  0.10770000000000000         -2.1135299901469096     
  0.10800000000000000         -3.2240482163037449     
  0.10830000000000001         -4.2976606556429218     
  0.10859999999999999         -5.2890462207768856     
  0.10890000000000000         -6.1504989308968039     
  0.10920000000000001         -6.8427765952651045     
  0.10950000000000001         -7.3349564094816548     
  0.10979999999999999         -7.6041862387229635     
  0.11009999999999999         -7.6454723776391855     
  0.11040000000000001         -7.4617760940811824     
  0.11070000000000001         -7.0730141426972475     
  0.11100000000000000         -6.5084225822081212     
  0.11130000000000000         -5.8071028582489967     
  0.11160000000000002         -5.0139515440808591     
  0.11190000000000001         -4.1780518965581024     
  0.11220000000000001         -3.3466358603660966     
  0.11250000000000000         -2.5660032351726172     
  0.11280000000000000         -1.8739059778616642     
  0.11309999999999999         -1.2999783277534078     
  0.11340000000000001        -0.86495952215484939     
  0.11369999999999998        -0.57398185289487591     
  0.11400000000000000        -0.42291088264495658     
  0.11430000000000000        -0.39574984872536689     
  0.11460000000000002        -0.46297762093274952     
  0.11489999999999999        -0.59161786194066202     
  0.11520000000000001        -0.73937173041540261     
  0.11550000000000001        -0.86450653759673568     
  0.11580000000000000        -0.92643148566171218     
  0.11609999999999999        -0.89075469205242142     
  0.11640000000000002        -0.73163160218376766     
  0.11670000000000001        -0.43625466440554295     
  0.11700000000000001         -3.5696280700133753E-003
  0.11730000000000000         0.55217226795581276     
  0.11760000000000000          1.2036133077562730     
  0.11789999999999999          1.9135939075274560     
  0.11820000000000001          2.6351629466571982     
  0.11850000000000001          3.3193383556471390     
  0.11880000000000000          3.9167313553435830     
  0.11910000000000000          4.3832391664277406     
  0.11940000000000002          4.6845486922019024     
  0.11970000000000001          4.7973849354972966     
  0.12000000000000001          4.7138478615281265     
  0.12030000000000000          4.4404624457353012     
  0.12060000000000000          3.9970100303909302     
  0.12089999999999999          3.4162608949753279     
  0.12119999999999999          2.7387459924446569     
  0.12150000000000001          2.0100520549787988     
  0.12180000000000001          1.2768982765853454     
  0.12210000000000000         0.58248224139097893     
  0.12239999999999999         -3.6758458895196078E-002
  0.12270000000000002        -0.55148962457784390     
  0.12300000000000001        -0.94528545143535503     
  0.12330000000000001         -1.2100695971916400     
  0.12360000000000000         -1.3487545411895612     
  0.12390000000000000         -1.3737690847525417     
  0.12419999999999999         -1.3020358911205026     
  0.12450000000000001         -1.1572609712206090     
  0.12480000000000001        -0.96425371644237390     
  0.12509999999999999        -0.74830842979338730     
  0.12540000000000001        -0.53350671609285916     
  0.12570000000000003        -0.34088643002635760     
  0.12600000000000000        -0.18815314302889005     
  0.12630000000000002         -8.8489948267644697E-002
  0.12659999999999999         -5.0557394156480362E-002
  0.12690000000000001         -7.8581717843119611E-002
  0.12719999999999998        -0.17123731634962935     
  0.12750000000000000        -0.32350944348009525     
  0.12780000000000002        -0.52575534212686503     
  0.12809999999999999        -0.76305929350928459     
  0.12840000000000001         -1.0187724520371622     
  0.12869999999999998         -1.2736090444715575     
  0.12900000000000000         -1.5044459305549096     
  0.12930000000000003         -1.6926902735368787     
  0.12959999999999999         -1.8173693567617222     
  0.12990000000000002         -1.8627832649753593     
  0.13019999999999998         -1.8190186458370508     
  0.13050000000000000         -1.6808820789603041     
  0.13080000000000003         -1.4505567079367991     
  0.13109999999999999         -1.1389711970376235     
  0.13140000000000002        -0.76143633550180834     
  0.13169999999999998        -0.34129451014078049     
  0.13200000000000001          9.4979564598545646E-002
  0.13229999999999997         0.51899986842885903     
  0.13260000000000000         0.90170555186464418     
  0.13290000000000002          1.2171002820169372     
  0.13319999999999999          1.4439681355858913     
  0.13350000000000001          1.5658132772033326     
  0.13380000000000003          1.5760605278628144     
  0.13410000000000000          1.4740459134011010     
  0.13440000000000002          1.2678743397608543     
  0.13469999999999999         0.97333561728823415     
  0.13500000000000001         0.61149405888468622     
  0.13529999999999998         0.20845967612968247     
  0.13560000000000000        -0.20768184098458631     
  0.13590000000000002        -0.60738994269428270     
  0.13619999999999999        -0.96358171547530724     
  0.13650000000000001         -1.2510793053877141     
  0.13680000000000003         -1.4508567888805470     
  0.13710000000000000         -1.5487161838243071     
  0.13740000000000002         -1.5373597842444302     
  0.13769999999999999         -1.4170646678425334     
  0.13800000000000001         -1.1948576925429526     
  0.13829999999999998        -0.88333576397371294     
  0.13860000000000000        -0.50278472855892375     
  0.13890000000000002         -7.6291554706854448E-002
  0.13919999999999999         0.36988770974369789     
  0.13950000000000001         0.80742793501874477     
  0.13979999999999998          1.2090742369322403     
  0.14010000000000000          1.5506361144887209     
  0.14040000000000002          1.8098253668759376     
  0.14069999999999999          1.9724950538330419     
  0.14100000000000001          2.0284478472825449     
  0.14130000000000004          1.9763971806946605     
  0.14160000000000000          1.8208555111065112     
  0.14189999999999997          1.5742016826344019     
  0.14219999999999999          1.2533689254714007     
  0.14250000000000002         0.88099360807178018     
  0.14279999999999998         0.48147904596060154     
  0.14310000000000000          8.0742505816790738E-002
  0.14339999999999997        -0.29619216005529614     
  0.14369999999999999        -0.62618605265943983     
  0.14400000000000002        -0.89201485087472854     
  0.14429999999999998         -1.0791861346221350     
  0.14460000000000001         -1.1802515507374283     
  0.14490000000000003         -1.1932210041309241     
  0.14520000000000000         -1.1225487080460630     
  0.14550000000000002        -0.97705632089308558     
  0.14579999999999999        -0.77111295158844395     
  0.14610000000000001        -0.52191615567478089     
  0.14640000000000003        -0.24902822535176766     
  0.14670000000000000          2.7006064737819843E-002
  0.14699999999999996         0.28547725759178050     
  0.14729999999999999         0.50797058364257830     
  0.14760000000000001         0.67845384371631556     
  0.14789999999999998         0.78514841852192807     
  0.14820000000000000         0.82084133458331199     