  -1.4999999999999999E-002     0.0000000000000000     
  -1.4700000000000000E-002     0.0000000000000000     
  -1.4400000000000000E-002     0.0000000000000000     
  -1.4100000000000000E-002     0.0000000000000000     
  -1.3800000000000000E-002     0.0000000000000000     
  -1.3500000000000000E-002     0.0000000000000000     
  -1.3200000000000000E-002     0.0000000000000000     
  -1.2899999999999998E-002     0.0000000000000000     
  -1.2600000000000000E-002     0.0000000000000000     
  -1.2299999999999998E-002     0.0000000000000000     
  -1.2000000000000000E-002     0.0000000000000000     
  -1.1699999999999999E-002     0.0000000000000000     
  -1.1399999999999999E-002     0.0000000000000000     
  -1.1099999999999999E-002     0.0000000000000000     
  -1.0799999999999999E-002     0.0000000000000000     
  -1.0499999999999999E-002     0.0000000000000000     
  -1.0199999999999999E-002     0.0000000000000000     
  -9.8999999999999991E-003     0.0000000000000000     
  -9.5999999999999992E-003     0.0000000000000000     
  -9.2999999999999992E-003     0.0000000000000000     
  -8.9999999999999993E-003     0.0000000000000000     
  -8.6999999999999994E-003     0.0000000000000000     
  -8.3999999999999995E-003     0.0000000000000000     
  -8.0999999999999996E-003     0.0000000000000000     
  -7.7999999999999988E-003     0.0000000000000000     
  -7.4999999999999997E-003     0.0000000000000000     
  -7.1999999999999998E-003     0.0000000000000000     
  -6.8999999999999981E-003     0.0000000000000000     
  -6.5999999999999982E-003     0.0000000000000000     
  -6.3000000000000000E-003     0.0000000000000000     
  -6.0000000000000001E-003     0.0000000000000000     
  -5.6999999999999985E-003     0.0000000000000000     
  -5.3999999999999986E-003     0.0000000000000000     
  -5.1000000000000004E-003     0.0000000000000000     
  -4.7999999999999987E-003     0.0000000000000000     
  -4.5000000000000005E-003     0.0000000000000000     
  -4.1999999999999989E-003     0.0000000000000000     
  -3.8999999999999990E-003     0.0000000000000000     
  -3.5999999999999990E-003     0.0000000000000000     
  -3.2999999999999991E-003     0.0000000000000000     
  -2.9999999999999992E-003     0.0000000000000000     
  -2.6999999999999993E-003     0.0000000000000000     
  -2.3999999999999994E-003     0.0000000000000000     
  -2.0999999999999977E-003     0.0000000000000000     
  -1.7999999999999995E-003     0.0000000000000000     
  -1.4999999999999979E-003     0.0000000000000000     
  -1.1999999999999997E-003     0.0000000000000000     
  -8.9999999999999976E-004     0.0000000000000000     
  -5.9999999999999810E-004     0.0000000000000000     
  -2.9999999999999992E-004     0.0000000000000000     
   0.0000000000000000          0.0000000000000000     
   3.0000000000000165E-004     0.0000000000000000     
   5.9999999999999984E-004     0.0000000000000000     
   9.0000000000000149E-004     0.0000000000000000     
   1.2000000000000031E-003     0.0000000000000000     
   1.5000000000000013E-003     0.0000000000000000     
   1.8000000000000030E-003     0.0000000000000000     
   2.1000000000000012E-003     0.0000000000000000     
   2.3999999999999994E-003     0.0000000000000000     
   2.7000000000000010E-003     0.0000000000000000     
   2.9999999999999992E-003     0.0000000000000000     
   3.3000000000000008E-003     0.0000000000000000     
   3.6000000000000025E-003     0.0000000000000000     
   3.9000000000000007E-003     0.0000000000000000     
   4.2000000000000023E-003     0.0000000000000000     
   4.5000000000000005E-003     0.0000000000000000     
   4.7999999999999987E-003     0.0000000000000000     
   5.1000000000000004E-003     0.0000000000000000     
   5.4000000000000020E-003     0.0000000000000000     
   5.7000000000000037E-003     0.0000000000000000     
   5.9999999999999984E-003     0.0000000000000000     
   6.3000000000000000E-003     0.0000000000000000     
   6.6000000000000017E-003     0.0000000000000000     
   6.9000000000000034E-003     0.0000000000000000     
   7.2000000000000015E-003     0.0000000000000000     
   7.5000000000000032E-003     0.0000000000000000     
   7.8000000000000014E-003     0.0000000000000000     
   8.0999999999999996E-003     0.0000000000000000     
   8.4000000000000012E-003     0.0000000000000000     
   8.7000000000000029E-003     0.0000000000000000     
   9.0000000000000011E-003     0.0000000000000000     
   9.2999999999999992E-003     0.0000000000000000     
   9.6000000000000009E-003     0.0000000000000000     
   9.8999999999999991E-003     0.0000000000000000     
   1.0200000000000001E-002     0.0000000000000000     
   1.0500000000000002E-002     0.0000000000000000     
   1.0800000000000004E-002     0.0000000000000000     
   1.1099999999999999E-002     0.0000000000000000     
   1.1400000000000000E-002     0.0000000000000000     
   1.1700000000000002E-002     0.0000000000000000     
   1.2000000000000004E-002     0.0000000000000000     
   1.2300000000000002E-002     0.0000000000000000     
   1.2600000000000000E-002     0.0000000000000000     
   1.2900000000000002E-002     0.0000000000000000     
   1.3200000000000000E-002     0.0000000000000000     
   1.3500000000000002E-002     0.0000000000000000     
   1.3800000000000003E-002     0.0000000000000000     
   1.4100000000000001E-002     0.0000000000000000     
   1.4400000000000000E-002     0.0000000000000000     
   1.4700000000000001E-002     0.0000000000000000     
   1.4999999999999999E-002     0.0000000000000000     
   1.5300000000000001E-002     0.0000000000000000     
   1.5600000000000003E-002     0.0000000000000000     
   1.5899999999999997E-002     0.0000000000000000     
   1.6199999999999999E-002     0.0000000000000000     
   1.6500000000000001E-002     0.0000000000000000     
   1.6800000000000002E-002     0.0000000000000000     
   1.7100000000000004E-002     0.0000000000000000     
   1.7400000000000006E-002     0.0000000000000000     
   1.7700000000000000E-002     0.0000000000000000     
   1.8000000000000002E-002     0.0000000000000000     
   1.8300000000000004E-002     0.0000000000000000     
   1.8600000000000005E-002     0.0000000000000000     
   1.8900000000000000E-002     0.0000000000000000     
   1.9200000000000002E-002     0.0000000000000000     
   1.9500000000000003E-002     0.0000000000000000     
   1.9799999999999998E-002     0.0000000000000000     
   2.0100000000000000E-002     0.0000000000000000     
   2.0400000000000001E-002     0.0000000000000000     
   2.0700000000000003E-002     0.0000000000000000     
   2.0999999999999998E-002     0.0000000000000000     
   2.1299999999999999E-002     0.0000000000000000     
   2.1600000000000001E-002     0.0000000000000000     
   2.1900000000000003E-002     0.0000000000000000     
   2.2200000000000004E-002     0.0000000000000000     
   2.2500000000000006E-002     0.0000000000000000     
   2.2800000000000001E-002     0.0000000000000000     
   2.3100000000000002E-002     0.0000000000000000     
   2.3400000000000004E-002     0.0000000000000000     
   2.3699999999999999E-002     0.0000000000000000     
   2.4000000000000000E-002     0.0000000000000000     
   2.4300000000000002E-002     0.0000000000000000     
   2.4599999999999997E-002     0.0000000000000000     
   2.4900000000000005E-002     0.0000000000000000     
   2.5200000000000000E-002    -3.2536696141984220E-059
   2.5499999999999995E-002     2.2671710693673652E-059
   2.5800000000000003E-002    -1.9184210236727089E-045
   2.6099999999999998E-002     2.6543801337737443E-044
   2.6400000000000007E-002    -1.8914774056983979E-043
   2.6700000000000002E-002     5.1546303520319642E-038
   2.6999999999999996E-002     3.9607031731095177E-036
   2.7300000000000005E-002    -9.8255760523331639E-036
   2.7600000000000000E-002    -1.2244912416114793E-034
   2.7900000000000008E-002     4.8470145495088761E-034
   2.8200000000000003E-002    -5.1883395258052416E-033
   2.8499999999999998E-002     2.4644607778747734E-032
   2.8800000000000006E-002    -6.3186342569795873E-032
   2.9100000000000001E-002    -3.3365672348278705E-033
   2.9400000000000003E-002     9.5469533651022057E-031
   2.9700000000000004E-002    -5.6807553655876156E-030
   3.0000000000000006E-002     2.1030953348471202E-029
   3.0300000000000001E-002    -5.1468560528339058E-029
   3.0600000000000002E-002     4.5579884812403395E-029
   3.0900000000000004E-002     3.1264425666425224E-028
   3.1199999999999999E-002    -2.1093771687906529E-027
   3.1500000000000007E-002     7.6282498663237097E-027
   3.1800000000000002E-002    -1.7623346313528669E-026
   3.2099999999999997E-002     1.5091966016063004E-026
   3.2400000000000005E-002     8.1857648838664718E-026
   3.2700000000000000E-002    -4.8106063758872868E-025
   3.3000000000000002E-002     1.3737671070629268E-024
   3.3300000000000003E-002    -1.8656756865126861E-024
   3.3599999999999998E-002    -3.0526060149294221E-024
   3.3900000000000000E-002     2.5702136219902330E-023
   3.4200000000000001E-002    -7.4658524150752547E-023
   3.4500000000000003E-002     9.1651276681378329E-023
   3.4799999999999998E-002     1.8984272780156339E-022
   3.5099999999999999E-002    -1.2874630192775812E-021
   3.5400000000000001E-002     3.1583505627220731E-021
   3.5699999999999996E-002    -2.3071828723316789E-021
   3.6000000000000004E-002    -1.2083298960778434E-020
   3.6299999999999999E-002     5.1922524858365465E-020
   3.6600000000000008E-002    -8.8080864761518499E-020
   3.6900000000000002E-002    -3.4889898870727793E-020
   3.7199999999999997E-002     5.9459602369167624E-019
   3.7500000000000006E-002    -1.4891913667865913E-018
   3.7800000000000000E-002     8.9258936071579433E-019
   3.8100000000000009E-002     5.5528234583810278E-018
   3.8400000000000004E-002    -1.9465429259126895E-017
   3.8699999999999998E-002     2.1668377922343450E-017
   3.9000000000000007E-002     4.5518334860814234E-017
   3.9300000000000002E-002    -2.2622007199290886E-016
   3.9600000000000003E-002     3.2743938462278882E-016
   3.9900000000000005E-002     3.5151775709382632E-016
   4.0200000000000000E-002    -2.4847029196827077E-015
   4.0500000000000001E-002     4.0193480781071003E-015
   4.0800000000000003E-002     3.2422421391791039E-015
   4.1100000000000005E-002    -2.6997795993215592E-014
   4.1399999999999999E-002     4.1610624695036200E-014
   4.1700000000000008E-002     4.6230940565207956E-014
   4.2000000000000003E-002    -2.9264743292886251E-013
   4.2299999999999997E-002     3.2877052122105180E-013
   4.2600000000000006E-002     8.0520622974123378E-013
   4.2900000000000001E-002    -2.9101762424274837E-012
   4.3200000000000002E-002     8.6837387123824064E-013
   4.3500000000000004E-002     1.2107069522555001E-011
   4.3799999999999999E-002    -2.0576394168039348E-011
   4.4100000000000000E-002    -2.8197834553468551E-011
   4.4400000000000002E-002     1.2315612428475789E-010
   4.4700000000000004E-002    -5.4549079490963357E-012
   4.4999999999999998E-002    -5.2008574867464294E-010
   4.5300000000000000E-002     4.4194896819103083E-010
   4.5600000000000002E-002     1.8353388232108669E-009
   4.5899999999999996E-002    -2.8244616127092848E-009
   4.6200000000000005E-002    -5.9926122420508497E-009
   4.6500000000000000E-002     1.2897121004672095E-008
   4.6799999999999994E-002     2.0177635516278390E-008
   4.7100000000000003E-002    -4.9669637679882160E-008
   4.7399999999999998E-002    -7.8662381565644816E-008
   4.7700000000000006E-002     1.5373142977433977E-007
   4.8000000000000001E-002     3.1184274424146831E-007
   4.8300000000000010E-002    -3.8784457859436704E-007
   4.8600000000000004E-002    -1.2540589417027847E-006
   4.8899999999999999E-002     7.9994286587648896E-007
   4.9200000000000008E-002     7.8927683746018007E-006
   4.9500000000000002E-002     1.7514740370891116E-005
   4.9800000000000011E-002     2.5720690296944695E-005
   5.0100000000000006E-002     3.3935258672744797E-005
   5.0400000000000000E-002     4.8657337228368418E-005
   5.0700000000000009E-002     7.4906508757952966E-005
   5.1000000000000004E-002     1.1545741484134498E-004
   5.1299999999999998E-002     1.7681031204033127E-004
   5.1600000000000007E-002     2.7019460871854239E-004
   5.1900000000000002E-002     4.0668109712224394E-004
   5.2200000000000010E-002     5.9791724627328269E-004
   5.2500000000000005E-002     8.6282892731096136E-004
   5.2800000000000000E-002     1.2289127407158515E-003
   5.3099999999999994E-002     1.7274463403389724E-003
   5.3400000000000003E-002     2.3919916811895627E-003
   5.3699999999999998E-002     3.2600090015879649E-003
   5.4000000000000006E-002     4.3712691510951066E-003
   5.4300000000000001E-002     5.7646590374521153E-003
   5.4599999999999996E-002     7.4767805680370511E-003
   5.4900000000000004E-002     9.5370896117176890E-003
   5.5199999999999999E-002     1.1955958771881228E-002
   5.5499999999999994E-002     1.4713183934842297E-002
   5.5800000000000002E-002     1.7751932070078254E-002
   5.6099999999999997E-002     2.0975515128479814E-002
   5.6400000000000006E-002     2.4242417711086348E-002
   5.6700000000000000E-002     2.7361631144094536E-002
   5.6999999999999995E-002     3.0087601054636235E-002
   5.7300000000000004E-002     3.2122794095514856E-002
   5.7599999999999998E-002     3.3142670429157861E-002
   5.7900000000000007E-002     3.2829082818414186E-002
   5.8200000000000002E-002     3.0895426061545411E-002
   5.8499999999999996E-002     2.7113097729230304E-002
   5.8800000000000005E-002     2.1356661722274219E-002
   5.9100000000000000E-002     1.3649331271071735E-002
   5.9400000000000008E-002     4.2000812079076638E-003
   5.9700000000000003E-002    -6.5851882709164070E-003
   6.0000000000000012E-002    -1.8109693095583773E-002
   6.0300000000000006E-002    -2.9608956187379167E-002
   6.0600000000000001E-002    -4.0199659987039837E-002
   6.0900000000000010E-002    -4.8953842132970660E-002
   6.1200000000000004E-002    -5.4995465230645857E-002
   6.1500000000000013E-002    -5.7628708400855634E-002
   6.1800000000000008E-002    -5.6472716618563797E-002
   6.2100000000000002E-002    -5.1563345840442740E-002
   6.2399999999999997E-002    -4.3404713568570862E-002
   6.2700000000000006E-002    -3.3009160038099103E-002
   6.3000000000000000E-002    -2.1909526772759751E-002
   6.3300000000000009E-002    -1.2073922866606123E-002
   6.3600000000000004E-002    -5.7602756756167210E-003
   6.3899999999999998E-002    -5.3304085607412954E-003
   6.4199999999999993E-002    -1.3027591229879660E-002
   6.4500000000000002E-002    -3.0728858222780354E-002
   6.4800000000000010E-002    -5.9676670657164407E-002
   6.5100000000000005E-002   -0.10028665353559353     
   6.5400000000000000E-002   -0.15197940121976428     
   6.5700000000000008E-002   -0.21307081047565146     
   6.5999999999999989E-002   -0.28075888922769870     
   6.6299999999999998E-002   -0.35117677116940910     
   6.6600000000000006E-002   -0.41957873441972737     
   6.6900000000000001E-002   -0.48055237916060023     
   6.7199999999999996E-002   -0.52832860159729678     
   6.7500000000000004E-002   -0.55716467301843564     
   6.7800000000000013E-002   -0.56167167790596817     
   6.8099999999999994E-002   -0.53727740361502407     
   6.8400000000000002E-002   -0.48056039459011873     
   6.8700000000000011E-002   -0.38965872102119437     
   6.8999999999999992E-002   -0.26457101209472145     
   6.9300000000000000E-002   -0.10735103534195946     
   6.9600000000000009E-002     7.7771462403915706E-002
   6.9900000000000004E-002    0.28428998589991794     
   7.0199999999999999E-002    0.50369197111261055     
   7.0500000000000007E-002    0.72570073536767510     
   7.0800000000000016E-002    0.93870824431946798     
   7.1099999999999997E-002     1.1304430937652683     
   7.1400000000000005E-002     1.2886261905238670     
   7.1700000000000000E-002     1.4018194629722132     
   7.1999999999999995E-002     1.4602740947346344     
   7.2300000000000003E-002     1.4567229684216865     
   7.2600000000000012E-002     1.3871064117765421     
   7.2900000000000006E-002     1.2510622670492928     
   7.3200000000000001E-002     1.0522512131457322     
   7.3499999999999996E-002    0.79841434371556919     
   7.3800000000000004E-002    0.50101297626912789     
   7.4099999999999999E-002    0.17464041393948448     
   7.4400000000000008E-002   -0.16372090717688659     
   7.4700000000000003E-002   -0.49595794030930512     
   7.5000000000000011E-002   -0.80398517604217956     
   7.5299999999999992E-002    -1.0709314303697315     
   7.5600000000000001E-002    -1.2826449812203304     
   7.5900000000000009E-002    -1.4284095691938925     
   7.6200000000000004E-002    -1.5018020785983843     
   7.6499999999999999E-002    -1.5014219195325584     
   7.6800000000000007E-002    -1.4305447248374392     
   7.7099999999999988E-002    -1.2970276979597177     
   7.7399999999999997E-002    -1.1126533658255346     
   7.7700000000000005E-002   -0.89188723920018265     
   7.8000000000000014E-002   -0.65093534409922338     
   7.8299999999999995E-002   -0.40629985222743831     
   7.8600000000000003E-002   -0.17330604156774090     
   7.8900000000000012E-002     3.4693157349924571E-002
   7.9199999999999993E-002    0.20749231175992336     
   7.9500000000000001E-002    0.33862221663179737     
   7.9800000000000010E-002    0.42549899568160854     
   8.0100000000000018E-002    0.46941510109825180     
   8.0399999999999999E-002    0.47496015009706044     
   8.0700000000000008E-002    0.44941690637868398     
   8.1000000000000003E-002    0.40185236890134224     
   8.1299999999999997E-002    0.34205674958285076     
   8.1600000000000006E-002    0.27984901963187381     
   8.1900000000000014E-002    0.22393042905685753     
   8.2199999999999995E-002    0.18138227793934991     
   8.2500000000000004E-002    0.15742147780752042     
   8.2799999999999999E-002    0.15494727316144241     
   8.3100000000000007E-002    0.17466664964348144     
   8.3400000000000002E-002    0.21551708001094308     
   8.3700000000000011E-002    0.27473189547478571     
   8.4000000000000005E-002    0.34845586759283675     
   8.4300000000000000E-002    0.43219657934734873     
   8.4599999999999995E-002    0.52101682891400525     
   8.4900000000000003E-002    0.61009543490971774     
   8.5199999999999998E-002    0.69484942590893861     
   8.5500000000000007E-002    0.77094691503891999     
   8.5800000000000001E-002    0.83443671031349542     
   8.6100000000000010E-002    0.88180696562323424     
   8.6399999999999991E-002    0.90988039575818824     
   8.6699999999999999E-002    0.91578185147679469     
   8.7000000000000008E-002    0.89710950406562651     
   8.7300000000000003E-002    0.85198199260129148     
   8.7599999999999997E-002    0.77915387813228154     
   8.7900000000000006E-002    0.67835640343330394     
   8.8200000000000014E-002    0.55042468928575117     
   8.8499999999999995E-002    0.39745029255709574     
   8.8800000000000004E-002    0.22299867375572091     
   8.9100000000000013E-002     3.2054148397356520E-002
   8.9399999999999993E-002   -0.16916494329396356     
   8.9700000000000002E-002   -0.37331849424943653     
   9.0000000000000011E-002   -0.57265680923821938     
   9.0299999999999991E-002   -0.75928461241488698     
   9.0600000000000000E-002   -0.92575317102927179     
   9.0900000000000009E-002    -1.0659477639138901     
   9.1200000000000017E-002    -1.1753482729340501     
   9.1499999999999998E-002    -1.2514496937475950     
   9.1800000000000007E-002    -1.2941136244166398     
   9.2100000000000001E-002    -1.3053796166785598     
   9.2399999999999996E-002    -1.2893541921179390     
   9.2700000000000005E-002    -1.2517355547293612     
   9.3000000000000013E-002    -1.1990703209826423     
   9.3300000000000008E-002    -1.1382881268147707     
   9.3600000000000003E-002    -1.0757411583783703     
   9.3899999999999997E-002    -1.0163044795070566     
   9.4200000000000006E-002   -0.96327470389269665     
   9.4500000000000001E-002   -0.91775523274787674     
   9.4800000000000009E-002   -0.87843625404597325     
   9.5100000000000004E-002   -0.84204690338826194     
   9.5399999999999999E-002   -0.80373852184564354     
   9.5699999999999993E-002   -0.75759987847546773     
   9.6000000000000002E-002   -0.69764499810766911     
   9.6300000000000011E-002   -0.61865048737389838     
   9.6600000000000005E-002   -0.51688336699676651     
   9.6900000000000000E-002   -0.39086946507741216     
   9.7200000000000009E-002   -0.24178318675409285     
   9.7499999999999989E-002    -7.3524419083239700E-002
   9.7799999999999998E-002    0.10729640732912658     
   9.8100000000000007E-002    0.29214246961134827     
   9.8400000000000015E-002    0.47122244595689849     
   9.8699999999999996E-002    0.63422117909787057     
   9.9000000000000005E-002    0.77177033899949132     
   9.9300000000000013E-002    0.87639544377735701     
   9.9599999999999994E-002    0.94296238781048258     
   9.9900000000000003E-002    0.96980599615682006     
  0.10020000000000001         0.95896897955174976     
  0.10049999999999999         0.91584788277901397     
  0.10080000000000000         0.84896533537974483     
  0.10110000000000001         0.76911842047991830     
  0.10140000000000000         0.68841862280991772     
  0.10170000000000000         0.61903929672680980     
  0.10200000000000001         0.57180321492984021     
  0.10230000000000002         0.55548358487161031     
  0.10260000000000000         0.57561732026484569     
  0.10290000000000001         0.63372821373675214     
  0.10320000000000000         0.72743309276101109     
  0.10350000000000001         0.85028303284205420     
  0.10380000000000000         0.99232066094264459     
  0.10410000000000001          1.1411120907275025     
  0.10440000000000001          1.2822915301047682     
  0.10470000000000000          1.4013040019051879     
  0.10500000000000000          1.4843532960946608     
  0.10530000000000000          1.5193307292920408     
  0.10560000000000000          1.4973342288168701     
  0.10590000000000001          1.4129804225424205     
  0.10620000000000000          1.2645920358569098     
  0.10650000000000001          1.0549447379613164     
  0.10679999999999999         0.79057399936994788     
  0.10710000000000000         0.48126782657260953     
  0.10740000000000001         0.13986050024383453     
  0.10770000000000000        -0.21899946772699874     
  0.10800000000000000        -0.57969296347108612     
  0.10830000000000001        -0.92615985833851844     
  0.10859999999999999         -1.2431234075810125     
  0.10890000000000000         -1.5165840300785192     
  0.10920000000000001         -1.7344784611910071     
  0.10950000000000001         -1.8872858127891434     
  0.10979999999999999         -1.9685315901370730     
  0.11009999999999999         -1.9748710191332561     
  0.11040000000000001         -1.9064223554914843     
  0.11070000000000001         -1.7670168666425679     
  0.11100000000000000         -1.5638506213444123     
  0.11130000000000000         -1.3074064076107879     
  0.11160000000000002         -1.0111636965319843     
  0.11190000000000001        -0.69081347027168649     
  0.11220000000000001        -0.36345293351827423     
  0.11250000000000000         -4.6853173617945075E-002
  0.11280000000000000         0.24185892910548759     
  0.11309999999999999         0.48728897783427860     
  0.11340000000000001         0.67667137894978502     
  0.11369999999999998         0.80100648690846288     
  0.11400000000000000         0.85573445709352458     
  0.11430000000000000         0.84091256959818927     
  0.11460000000000002         0.76129644056759260     
  0.11489999999999999         0.62603627694901587     
  0.11520000000000001         0.44776260083715480     
  0.11550000000000001         0.24152442254729514     
  0.11580000000000000          2.3647424279915698E-002
  0.11609999999999999        -0.18972846964542364     
  0.11640000000000002        -0.38381451257612859     
  0.11670000000000001        -0.54640125942271445     
  0.11700000000000001        -0.66866284191217695     
  0.11730000000000000        -0.74554693197016997     
  0.11760000000000000        -0.77606790719569940     
  0.11789999999999999        -0.76279586020155843     
  0.11820000000000001        -0.71151804429683485     
  0.11850000000000001        -0.63020169303911944     
  0.11880000000000000        -0.52786236643762874     
  0.11910000000000000        -0.41394376471901717     
  0.11940000000000002        -0.29714527512902111     
  0.11970000000000001        -0.18425655206099648     
  0.12000000000000001         -8.0287276483360065E-002
  0.12030000000000000          1.1929777498077226E-002
  0.12060000000000000          9.2234470832638443E-002
  0.12089999999999999         0.16216349688072446     
  0.12119999999999999         0.22446116887713288     
  0.12150000000000001         0.28282481503449675     
  0.12180000000000001         0.34082660123494324     
  0.12210000000000000         0.40139704938264076     
  0.12239999999999999         0.46633812707120387     
  0.12270000000000002         0.53591686309248276     
  0.12300000000000001         0.60885482724341800     
  0.12330000000000001         0.68255888972030576     
  0.12360000000000000         0.75327091814385616     
  0.12390000000000000         0.81657867877007184     
  0.12419999999999999         0.86826407022831786     
  0.12450000000000001         0.90436636398053449     
  0.12480000000000001         0.92160951001588620     
  0.12509999999999999         0.91803793962762781     
  0.12540000000000001         0.89281671100175497     
  0.12570000000000003         0.84596835469114084     
  0.12600000000000000         0.77852677284619420     
  0.12630000000000002         0.69203226865759049     
  0.12659999999999999         0.58794479821018353     
  0.12690000000000001         0.46776511698708312     
  0.12719999999999998         0.33257528763209854     
  0.12750000000000000         0.18312555375194831     
  0.12780000000000002          1.9904252419236861E-002
  0.12809999999999999        -0.15642796222947777     
  0.12840000000000001        -0.34460868988915755     
  0.12869999999999998        -0.54245381893845124     
  0.12900000000000000        -0.74627929058795461     
  0.12930000000000003        -0.95047419178153203     
  0.12959999999999999         -1.1477086413655544     
  0.12990000000000002         -1.3288005438537007     
  0.13019999999999998         -1.4832755154933881     
  0.13050000000000000         -1.6000761795458716     
  0.13080000000000003         -1.6684561763340719     
  0.13109999999999999         -1.6789827133397788     
  0.13140000000000002         -1.6247666858973551     
  0.13169999999999998         -1.5020376235113810     
  0.13200000000000001         -1.3111777112568797     
  0.13229999999999997         -1.0570974182475295     
  0.13260000000000000        -0.74893324242476822     
  0.13290000000000002        -0.39982836547799683     
  0.13319999999999999         -2.6205912059594254E-002
  0.13350000000000001         0.35355385983237086     
  0.13380000000000003         0.72044449331643645     
  0.13410000000000000          1.0559679144256686     
  0.13440000000000002          1.3437905136546884     
  0.13469999999999999          1.5707279226814246     
  0.13500000000000001          1.7274874199931398     
  0.13529999999999998          1.8092052667456726     
  0.13560000000000000          1.8155791482796448     
  0.13590000000000002          1.7505507197622128     
  0.13619999999999999          1.6218025429963050     
  0.13650000000000001          1.4400390159931700     
  0.13680000000000003          1.2181806374086570     
  0.13710000000000000         0.97028379154235878     
  0.13740000000000002         0.71110545568900052     
  0.13769999999999999         0.45520170967320756     
  0.13800000000000001         0.21630604451356528     
  0.13829999999999998          6.9361534038552882E-003
  0.13860000000000000        -0.16202483466625867     
  0.13890000000000002        -0.28202461357148328     
  0.13919999999999999        -0.34685163718997919     
  0.13950000000000001        -0.35331391295891879     
  0.13979999999999998        -0.30177106555670308     
  0.14010000000000000        -0.19590791367523278     
  0.14040000000000002         -4.3166007697089656E-002
  0.14069999999999999         0.14538827537479335     
  0.14100000000000001         0.35571720747302865     
  0.14130000000000004         0.57137995033007316     
  0.14160000000000000         0.77454154286938948     
  0.14189999999999997         0.94745699727967436     
  0.14219999999999999          1.0736596367675240     
  0.14250000000000002          1.1392071008086246     
  0.14279999999999998          1.1342063896026946     
  0.14310000000000000          1.0535098078651104     
  0.14339999999999997         0.89691154086115132     
  0.14369999999999999         0.66976825805250084     
  0.14400000000000002         0.38195314088361082     
  0.14429999999999998          4.7088614562779844E-002
  0.14460000000000001        -0.31818079128558130     
  0.14490000000000003        -0.69599972352101902     
  0.14520000000000000         -1.0684871394889475     
  0.14550000000000002         -1.4186393843393226     
  0.14579999999999999         -1.7319392706306360     
  0.14610000000000001         -1.9965246401328678     
  0.14640000000000003         -2.2037724893256114     
  0.14670000000000000         -2.3488757039752146     
  0.14699999999999996         -2.4298147596380821     
  0.14729999999999999         -2.4477517084555931     
  0.14760000000000001         -2.4067213079041614     
  0.14789999999999998         -2.3122570144092145     
  0.14820000000000000         -2.1715578764980417     