  -1.4999999999999999E-002     0.0000000000000000     
  -1.4700000000000000E-002     0.0000000000000000     
  -1.4400000000000000E-002     0.0000000000000000     
  -1.4100000000000000E-002     0.0000000000000000     
  -1.3800000000000000E-002     0.0000000000000000     
  -1.3500000000000000E-002     1.0113801747313788E-035
  -1.3200000000000000E-002     1.2894588693214131E-035
  -1.2899999999999998E-002    -5.6172643812992505E-032
  -1.2600000000000000E-002    -4.2219272531151525E-031
  -1.2299999999999998E-002     2.5956501740116083E-029
  -1.2000000000000000E-002     2.9575245412603126E-029
  -1.1699999999999999E-002    -3.0190439225429458E-027
  -1.1399999999999999E-002     5.2451839446594981E-027
  -1.1099999999999999E-002     1.2454320056168409E-025
  -1.0799999999999999E-002    -3.8113433611320985E-025
  -1.0499999999999999E-002    -2.2769087922075115E-024
  -1.0199999999999999E-002     9.0228836555427086E-024
  -9.8999999999999991E-003     2.2553508971857896E-023
  -9.5999999999999992E-003    -1.0667578669317830E-022
  -9.2999999999999992E-003    -1.6488853921123398E-022
  -8.9999999999999993E-003     7.7446963764421505E-022
  -8.6999999999999994E-003     1.2464015302639501E-021
  -8.3999999999999995E-003    -4.0468519176922960E-021
  -8.0999999999999996E-003    -9.1351101417938049E-021
  -7.7999999999999988E-003     1.6486011124700536E-020
  -7.4999999999999997E-003     5.2120617958031956E-020
  -7.1999999999999998E-003    -4.4539551361458106E-020
  -6.8999999999999981E-003    -2.2160007236529231E-019
  -6.5999999999999982E-003     1.2064683760433076E-020
  -6.3000000000000000E-003     6.9496697378205729E-019
  -6.0000000000000001E-003     4.7823619597873916E-019
  -5.6999999999999985E-003    -1.0309021781673247E-018
  -5.3999999999999986E-003    -2.7466194342804215E-018
  -5.1000000000000004E-003    -2.9633818835992954E-018
  -4.7999999999999987E-003     9.0335001988322222E-018
  -4.5000000000000005E-003     2.4217474890387547E-017
  -4.1999999999999989E-003    -9.8835364973864173E-018
  -3.8999999999999990E-003    -9.4578362225105640E-017
  -3.5999999999999990E-003    -3.6065790579513528E-017
  -3.2999999999999991E-003     2.5724361901290905E-016
  -2.9999999999999992E-003     1.0907901679139129E-016
  -2.6999999999999993E-003    -3.3938118890613933E-016
  -2.3999999999999994E-003     2.3375401651138380E-016
  -2.0999999999999977E-003    -7.9594326808233305E-016
  -1.7999999999999995E-003    -2.0805045271609174E-015
  -1.4999999999999979E-003     5.8295291555731730E-015
  -1.1999999999999997E-003     5.2056938121422659E-015
  -8.9999999999999976E-004    -1.5106798050634584E-014
  -5.9999999999999810E-004    -2.4578027252127934E-015
  -2.9999999999999992E-004     1.2072283971901974E-014
   0.0000000000000000         -1.9267939256115925E-014
   3.0000000000000165E-004     4.8469635000372737E-014
   5.9999999999999984E-004     4.4347091010808589E-014
   9.0000000000000149E-004    -1.8846404063834086E-013
   1.2000000000000031E-003     4.9017519022329977E-014
   1.5000000000000013E-003     2.2932780078655307E-013
   1.8000000000000030E-003    -5.2462675482018358E-013
   2.1000000000000012E-003     4.0732992320072091E-013
   2.3999999999999994E-003     1.5637795995089536E-012
   2.7000000000000010E-003    -2.5516869848710486E-012
   2.9999999999999992E-003    -2.5766120583260089E-012
   3.3000000000000008E-003     6.5307531462594109E-012
   3.6000000000000025E-003     1.2951929832490332E-012
   3.9000000000000007E-003    -1.1453832303202595E-011
   4.2000000000000023E-003     6.2158748671394511E-012
   4.5000000000000005E-003     1.5952653000255127E-011
   4.7999999999999987E-003    -2.2994162788925805E-011
   5.1000000000000004E-003    -2.0237146085072217E-011
   5.4000000000000020E-003     4.6172477825644612E-011
   5.7000000000000037E-003     2.5840081566252792E-011
   5.9999999999999984E-003    -6.4596136713357000E-011
   6.3000000000000000E-003    -3.0324859698899361E-011
   6.6000000000000017E-003     6.7405905660161458E-011
   6.9000000000000034E-003     2.4669899043887467E-011
   7.2000000000000015E-003    -6.2698287631480395E-011
   7.5000000000000032E-003    -8.5596713456884632E-012
   7.8000000000000014E-003     8.3279547210008697E-011
   8.0999999999999996E-003     1.7482573376711660E-011
   8.4000000000000012E-003    -1.5172867785250509E-010
   8.7000000000000029E-003    -1.1428700361434449E-010
   9.0000000000000011E-003     2.2543294135221488E-010
   9.2999999999999992E-003     3.1049355689564283E-010
   9.6000000000000009E-003    -2.0601441247170505E-010
   9.8999999999999991E-003    -4.9148952463888539E-010
   1.0200000000000001E-002     5.5771923160869811E-011
   1.0500000000000002E-002     4.8747150224290999E-010
   1.0800000000000004E-002     1.0442131446525405E-010
   1.1099999999999999E-002    -2.5160951677302632E-010
   1.1400000000000000E-002    -9.8227023634852913E-011
   1.1700000000000002E-002    -2.0791515486636227E-010
   1.2000000000000004E-002    -1.2929152487506388E-010
   1.2300000000000002E-002     1.4923548245016038E-009
   1.2600000000000000E-002     1.0633789952033364E-009
   1.2900000000000002E-002    -5.8725550707552738E-009
   1.3200000000000000E-002    -7.6034807383202616E-009
   1.3500000000000002E-002     1.4057535293980787E-008
   1.3800000000000003E-002     3.7400621817475256E-008
   1.4100000000000001E-002    -6.1234756821165097E-009
   1.4400000000000000E-002    -1.2769973075111111E-007
   1.4700000000000001E-002    -1.0503313318370843E-007
   1.4999999999999999E-002     5.2186726177377737E-007
   1.5300000000000001E-002     1.9436315243308256E-006
   1.5600000000000003E-002     3.4526916777965114E-006
   1.5899999999999997E-002     4.2967814353790174E-006
   1.6199999999999999E-002     6.5703886709471298E-006
   1.6500000000000001E-002     1.6346612187160993E-005
   1.6800000000000002E-002     3.7842471131291391E-005
   1.7100000000000004E-002     6.4360670597188470E-005
   1.7400000000000006E-002     8.0740940510010980E-005
   1.7700000000000000E-002     8.2891204045622063E-005
   1.8000000000000002E-002     9.1766354710572521E-005
   1.8300000000000004E-002     1.3451571453422078E-004
   1.8600000000000005E-002     2.0868164427089434E-004
   1.8900000000000000E-002     2.8034767399722426E-004
   1.9200000000000002E-002     3.2688531387745784E-004
   1.9500000000000003E-002     3.6496751298610764E-004
   1.9799999999999998E-002     4.1613874324937614E-004
   2.0100000000000000E-002     4.5002639137266221E-004
   2.0400000000000001E-002     3.7626495053903254E-004
   2.0700000000000003E-002     8.1757916979816796E-005
   2.0999999999999998E-002    -5.5239993602565496E-004
   2.1299999999999999E-002    -1.6814221030491822E-003
   2.1600000000000001E-002    -3.5403062405356114E-003
   2.1900000000000003E-002    -6.4718078705316689E-003
   2.2200000000000004E-002    -1.0939722128543054E-002
   2.2500000000000006E-002    -1.7519722790033929E-002
   2.2800000000000001E-002    -2.6866241769443789E-002
   2.3100000000000002E-002    -3.9694695166705776E-002
   2.3400000000000004E-002    -5.6804599707103248E-002
   2.3699999999999999E-002    -7.9064527217035052E-002
   2.4000000000000000E-002   -0.10728021704392401     
   2.4300000000000002E-002   -0.14199953670606374     
   2.4599999999999997E-002   -0.18337856655974222     
   2.4900000000000005E-002   -0.23110628380412238     
   2.5200000000000000E-002   -0.28422271194258286     
   2.5499999999999995E-002   -0.34083418690687595     
   2.5800000000000003E-002   -0.39786373006835873     
   2.6099999999999998E-002   -0.45100313861027796     
   2.6400000000000007E-002   -0.49473383246862168     
   2.6700000000000002E-002   -0.52238973483010720     
   2.6999999999999996E-002   -0.52632093192769225     
   2.7300000000000005E-002   -0.49828531993180025     
   2.7600000000000000E-002   -0.43013440453335705     
   2.7900000000000008E-002   -0.31458133587717108     
   2.8200000000000003E-002   -0.14605859128968507     
   2.8499999999999998E-002     7.8291774945820389E-002
   2.8800000000000006E-002    0.35768386101662930     
   2.9100000000000001E-002    0.68679973493171931     
   2.9400000000000003E-002     1.0552601182264174     
   2.9700000000000004E-002     1.4474392204927247     
   3.0000000000000006E-002     1.8427136440650291     
   3.0300000000000001E-002     2.2162734958719312     
   3.0600000000000002E-002     2.5405360003851571     
   3.0900000000000004E-002     2.7869883679378242     
   3.1199999999999999E-002     2.9284435173653591     
   3.1500000000000007E-002     2.9414701329479125     
   3.1800000000000002E-002     2.8090162284400555     
   3.2099999999999997E-002     2.5224651800877802     
   3.2400000000000005E-002     2.0834937103297797     
   3.2700000000000000E-002     1.5046924559528294     
   3.3000000000000002E-002    0.80995775621098642     
   3.3300000000000003E-002     3.3179458643200488E-002
   3.3599999999999998E-002   -0.78334144978466247     
   3.3900000000000000E-002    -1.5922112623216886     
   3.4200000000000001E-002    -2.3438259244891246     
   3.4500000000000003E-002    -2.9908195960036341     
   3.4799999999999998E-002    -3.4911930980105881     
   3.5099999999999999E-002    -3.8122367350750590     
   3.5400000000000001E-002    -3.9329603596378355     
   3.5699999999999996E-002    -3.8459815255992424     
   3.6000000000000004E-002    -3.5581135504750723     
   3.6299999999999999E-002    -3.0898605956078637     
   3.6600000000000008E-002    -2.4739299484882054     
   3.6900000000000002E-002    -1.7527006001647749     
   3.7199999999999997E-002   -0.97518658356566923     
   3.7500000000000006E-002   -0.19343652005815903     
   3.7800000000000000E-002    0.54065825090532726     
   3.8100000000000009E-002     1.1788938253384569     
   3.8400000000000004E-002     1.6791881139815548     
   3.8699999999999998E-002     2.0080177893336422     
   3.9000000000000007E-002     2.1417241697242106     
   3.9300000000000002E-002     2.0674477661839337     
   3.9600000000000003E-002     1.7834316913322990     
   3.9900000000000005E-002     1.2986267174769297     
   4.0200000000000000E-002    0.63220253071585630     
   4.0500000000000001E-002   -0.18746341063511118     
   4.0800000000000003E-002    -1.1236149304526875     
   4.1100000000000005E-002    -2.1327481137493178     
   4.1399999999999999E-002    -3.1659775096455292     
   4.1700000000000008E-002    -4.1708852919121409     
   4.2000000000000003E-002    -5.0933985740618848     
   4.2299999999999997E-002    -5.8803071069784574     
   4.2600000000000006E-002    -6.4816537915289061     
   4.2900000000000001E-002    -6.8531447980777598     
   4.3200000000000002E-002    -6.9593542333717160     
   4.3500000000000004E-002    -6.7754520021823170     
   4.3799999999999999E-002    -6.2899054073828919     
   4.4100000000000000E-002    -5.5051319795307911     
   4.4400000000000002E-002    -4.4387246965468892     
   4.4700000000000004E-002    -3.1235204444673696     
   4.4999999999999998E-002    -1.6060732232389321     
   4.5300000000000000E-002     5.4923224475612931E-002
   4.5600000000000002E-002     1.7915737745323983     
   4.5899999999999996E-002     3.5296872164623956     
   4.6200000000000005E-002     5.1930658670340648     
   4.6500000000000000E-002     6.7068904966064515     
   4.6799999999999994E-002     8.0024566934336434     
   4.7100000000000003E-002     9.0204860641913598     
   4.7399999999999998E-002     9.7156910813445272     
   4.7700000000000006E-002     10.058830007416873     
   4.8000000000000001E-002     10.039547814162335     
   4.8300000000000010E-002     9.6676123090276924     
   4.8600000000000004E-002     8.9729274270711912     
   4.8899999999999999E-002     8.0052708240549819     
   4.9200000000000008E-002     6.8307874959952350     
   4.9500000000000002E-002     5.5297239285048505     
   4.9800000000000011E-002     4.1900904814551350     
   5.0100000000000006E-002     2.9039119395885993     
   5.0400000000000000E-002     1.7582367568054598     
   5.0700000000000009E-002    0.83185208717416104     
   5.1000000000000004E-002    0.18546747361661825     
   5.1299999999999998E-002   -0.14008685936160525     
   5.1600000000000007E-002   -0.13138366562873771     
   5.1900000000000002E-002    0.19827819509129074     
   5.2200000000000010E-002    0.80516590418431599     
   5.2500000000000005E-002     1.6199641268201066     
   5.2800000000000000E-002     2.5481366417394060     
   5.3099999999999994E-002     3.4790193452258995     
   5.3400000000000003E-002     4.2901192649106115     
   5.3699999999999998E-002     4.8588756844185017     
   5.4000000000000006E-002     5.0701813925046313     
   5.4300000000000001E-002     4.8285358693223559     
   5.4599999999999996E-002     4.0663284986979562     
   5.4900000000000004E-002     2.7543574231034356     
   5.5199999999999999E-002    0.90740452077888656     
   5.5499999999999994E-002    -1.4098253948255737     
   5.5800000000000002E-002    -4.0824710556647119     
   5.6099999999999997E-002    -6.9481314068346212     
   5.6400000000000006E-002    -9.8042323534837106     
   5.6700000000000000E-002    -12.420355369510416     
   5.6999999999999995E-002    -14.553563373110201     
   5.7300000000000004E-002    -15.968889261140598     
   5.7599999999999998E-002    -16.459516569842574     
   5.7900000000000007E-002    -15.870559751673866     
   5.8200000000000002E-002    -14.116259569710738     
   5.8499999999999996E-002    -11.198805857138204     
   5.8800000000000005E-002    -7.2151203609644821     
   5.9100000000000000E-002    -2.3619507499317320     
   5.9400000000000008E-002     3.0745916539722131     
   5.9700000000000003E-002     8.7314401957611842     
   6.0000000000000012E-002     14.196596078201175     
   6.0300000000000006E-002     19.035677514560511     
   6.0600000000000001E-002     22.831281951868892     
   6.0900000000000010E-002     25.214392891589789     
   6.1200000000000004E-002     25.902022593625226     
   6.1500000000000013E-002     24.720334836389423     
   6.1800000000000008E-002     21.628463188072939     
   6.2100000000000002E-002     16.722160696841229     
   6.2399999999999997E-002     10.234579862179752     
   6.2700000000000006E-002     2.5182177305727382     
   6.3000000000000000E-002    -5.9774027881602940     
   6.3300000000000009E-002    -14.740485635720106     
   6.3600000000000004E-002    -23.234484759329330     
   6.3899999999999998E-002    -30.937857820931072     
   6.4199999999999993E-002    -37.381284986997834     
   6.4500000000000002E-002    -42.179751789599521     
   6.4800000000000010E-002    -45.058481503419038     
   6.5100000000000005E-002    -45.866056322689403     
   6.5400000000000000E-002    -44.582162275530138     
   6.5700000000000008E-002    -41.308350544073235     
   6.5999999999999989E-002    -36.258789526351372     
   6.6299999999999998E-002    -29.733944051480989     
   6.6600000000000006E-002    -22.101768075271536     
   6.6900000000000001E-002    -13.762554807342951     
   6.7199999999999996E-002    -5.1280651483679556     
   6.7500000000000004E-002     3.4084115448684340     
   6.7800000000000013E-002     11.488997470095583     
   6.8099999999999994E-002     18.812993900812668     
   6.8400000000000002E-002     25.138590417547157     
   6.8700000000000011E-002     30.300419409485649     
   6.8999999999999992E-002     34.196575261496903     
   6.9300000000000000E-002     36.798174159468147     
   6.9600000000000009E-002     38.129151118650341     
   6.9900000000000004E-002     38.272019111027930     
   7.0199999999999999E-002     37.341397155895315     
   7.0500000000000007E-002     35.489759409993113     
   7.0800000000000016E-002     32.880020114184482     
   7.1099999999999997E-002     29.691141479211460     
   7.1400000000000005E-002     26.094300273393415     
   7.1700000000000000E-002     22.259032837270929     
   7.1999999999999995E-002     18.332109347187895     
   7.2300000000000003E-002     14.448548554880198     
   7.2600000000000012E-002     10.711937024014425     
   7.2900000000000006E-002     7.2104699769581053     
   7.3200000000000001E-002     3.9980027897580657     
   7.3499999999999996E-002     1.1164337102322102     
   7.3800000000000004E-002    -1.4247832575275159     
   7.4099999999999999E-002    -3.6199021614031750     
   7.4400000000000008E-002    -5.4931077770715344     
   7.4700000000000003E-002    -7.0621487780962759     
   7.5000000000000011E-002    -8.3693489849377389     
   7.5299999999999992E-002    -9.4435629916759094     
   7.5600000000000001E-002    -10.333179661298136     
   7.5900000000000009E-002    -11.066775822154902     
   7.6200000000000004E-002    -11.688642374814982     
   7.6499999999999999E-002    -12.218843113062306     
   7.6800000000000007E-002    -12.689372363010341     
   7.7099999999999988E-002    -13.106076293322921     
   7.7399999999999997E-002    -13.482574812206046     
   7.7700000000000005E-002    -13.806778770435034     
   7.8000000000000014E-002    -14.073458660907844     
   7.8299999999999995E-002    -14.253800257764471     
   7.8600000000000003E-002    -14.327199088852165     
   7.8900000000000012E-002    -14.255584733744247     
   7.9199999999999993E-002    -14.013219571976920     
   7.9500000000000001E-002    -13.564930680036499     
   7.9800000000000010E-002    -12.892571423709828     
   8.0100000000000018E-002    -11.976613373388849     
   8.0399999999999999E-002    -10.818448371138034     
   8.0700000000000008E-002    -9.4235819012865178     
   8.1000000000000003E-002    -7.8187800769977365     
   8.1299999999999997E-002    -6.0369338493668980     
   8.1600000000000006E-002    -4.1288357979719272     
   8.1900000000000014E-002    -2.1489060229174717     
   8.2199999999999995E-002   -0.16277056464401929     
   8.2500000000000004E-002     1.7648822168874587     
   8.2799999999999999E-002     3.5665286822636846     
   8.3100000000000007E-002     5.1821775013942428     
   8.3400000000000002E-002     6.5570122051085544     
   8.3700000000000011E-002     7.6499336843482943     
   8.4000000000000005E-002     8.4315584311278045     
   8.4300000000000000E-002     8.8889963672786401     
   8.4599999999999995E-002     9.0261484161318126     
   8.4900000000000003E-002     8.8628621327204975     
   8.5199999999999998E-002     8.4363348125467574     
   8.5500000000000007E-002     7.7940815035305064     
   8.5800000000000001E-002     6.9974897743525819     
   8.6100000000000010E-002     6.1097017155271836     
   8.6399999999999991E-002     5.2007885237649027     
   8.6699999999999999E-002     4.3315963631011716     
   8.7000000000000008E-002     3.5623369063089534     
   8.7300000000000003E-002     2.9340025144259569     
   8.7599999999999997E-002     2.4813192744335200     
   8.7900000000000006E-002     2.2142193868469704     
   8.8200000000000014E-002     2.1345070007636133     
   8.8499999999999995E-002     2.2182970732441607     
   8.8800000000000004E-002     2.4373156866668126     
   8.9100000000000013E-002     2.7419581158455735     
   8.9399999999999993E-002     3.0856481238466982     
   8.9700000000000002E-002     3.4078519997317493     
   9.0000000000000011E-002     3.6602972020637807     
   9.0299999999999991E-002     3.7889577219890738     
   9.0600000000000000E-002     3.7607514721492326     
   9.0900000000000009E-002     3.5424492405836610     
   9.1200000000000017E-002     3.1283064368322711     
   9.1499999999999998E-002     2.5151773323181970     
   9.1800000000000007E-002     1.7278212433521034     
   9.2100000000000001E-002    0.79356655959029121     
   9.2399999999999996E-002   -0.23657798793538926     
   9.2700000000000005E-002    -1.3138616611139402     
   9.3000000000000013E-002    -2.3722455344829361     
   9.3300000000000008E-002    -3.3559219095578157     
   9.3600000000000003E-002    -4.2016807909647582     
   9.3899999999999997E-002    -4.8635288962729222     
   9.4200000000000006E-002    -5.2977537136989135     
   9.4500000000000001E-002    -5.4832369528775313     
   9.4800000000000009E-002    -5.4084427327467495     
   9.5100000000000004E-002    -5.0862200157701150     
   9.5399999999999999E-002    -4.5402311066332626     
   9.5699999999999993E-002    -3.8160829168687442     
   9.6000000000000002E-002    -2.9668632333769631     
   9.6300000000000011E-002    -2.0594088259912615     
   9.6600000000000005E-002    -1.1598096078650717     
   9.6900000000000000E-002   -0.33702593169790795     
   9.7200000000000009E-002    0.35088852823569572     
   9.7499999999999989E-002    0.85363988467644547     
   9.7799999999999998E-002     1.1411330904183257     
   9.8100000000000007E-002     1.1982771846295437     
   9.8400000000000015E-002     1.0342935108529212     
   9.8699999999999996E-002    0.67290647920902957     
   9.9000000000000005E-002    0.16113928099349323     
   9.9300000000000013E-002   -0.44678887844182646     
   9.9599999999999994E-002    -1.0825836167851066     
   9.9900000000000003E-002    -1.6827740756990457     
  0.10020000000000001         -2.1801355163357687     
  0.10049999999999999         -2.5258702192328135     
  0.10080000000000000         -2.6773762775479648     
  0.10110000000000001         -2.6186939876014232     
  0.10140000000000000         -2.3441279626577298     
  0.10170000000000000         -1.8760567588379580     
  0.10200000000000001         -1.2442085979605966     
  0.10230000000000002        -0.50049791199501104     
  0.10260000000000000         0.30363157178098676     
  0.10290000000000001          1.1056537491483531     
  0.10320000000000000          1.8522714908273952     
  0.10350000000000001          2.4902971245412227     
  0.10380000000000000          2.9819121613579935     
  0.10410000000000001          3.2972694561284337     
  0.10440000000000001          3.4239425926082880     
  0.10470000000000000          3.3594237725652909     
  0.10500000000000000          3.1163766933850852     
  0.10530000000000000          2.7163965696524444     
  0.10560000000000000          2.1904553549361250     
  0.10590000000000001          1.5746388376881555     
  0.10620000000000000         0.90860931619809948     
  0.10650000000000001         0.23331657963720109     
  0.10679999999999999        -0.41214414028996926     
  0.10710000000000000        -0.99157553284589461     
  0.10740000000000001         -1.4741538134827383     
  0.10770000000000000         -1.8347090382551356     
  0.10800000000000000         -2.0567155611519730     
  0.10830000000000001         -2.1311134661998397     
  0.10859999999999999         -2.0576845513387791     
  0.10890000000000000         -1.8451053621866449     
  0.10920000000000001         -1.5098983517719282     
  0.10950000000000001         -1.0755721310539093     
  0.10979999999999999        -0.57112908489273340     
  0.11009999999999999         -2.9770204183069915E-002
  0.11040000000000001         0.51446556421294409     
  0.11070000000000001          1.0267468142097846     
  0.11100000000000000          1.4767650906185759     
  0.11130000000000000          1.8361794064373669     
  0.11160000000000002          2.0857307703813532     
  0.11190000000000001          2.2106838788775756     
  0.11220000000000001          2.2069651964864523     
  0.11250000000000000          2.0758971446871977     
  0.11280000000000000          1.8297116485851284     
  0.11309999999999999          1.4842615665257628     
  0.11340000000000001          1.0649918440796700     
  0.11369999999999998         0.59675359665139660     
  0.11400000000000000         0.11122210088750228     
  0.11430000000000000        -0.36409955392093452     
  0.11460000000000002        -0.79901403836653184     
  0.11489999999999999         -1.1716540990657820     
  0.11520000000000001         -1.4606583164389757     
  0.11550000000000001         -1.6553279622162038     
  0.11580000000000000         -1.7469466720593951     
  0.11609999999999999         -1.7388206066007359     
  0.11640000000000002         -1.6360745485858752     
  0.11670000000000001         -1.4539196689903535     
  0.11700000000000001         -1.2079720437314516     
  0.11730000000000000        -0.92106078341451836     
  0.11760000000000000        -0.61360263194868403     
  0.11789999999999999        -0.30965113151066348     
  0.11820000000000001         -2.8342868090759449E-002
  0.11850000000000001         0.21112450839306574     
  0.11880000000000000         0.39582546624032550     
  0.11910000000000000         0.51488046633842921     
  0.11940000000000002         0.56557975871262045     
  0.11970000000000001         0.54755421306850438     
  0.12000000000000001         0.46805176855478947     
  0.12030000000000000         0.33621926632972587     
  0.12060000000000000         0.16711787889754076     
  0.12089999999999999         -2.3931690928588670E-002
  0.12119999999999999        -0.21841794008111498     
  0.12150000000000001        -0.40008505456442817     
  0.12180000000000001        -0.55171128342014164     
  0.12210000000000000        -0.66164359134249429     
  0.12239999999999999        -0.71971843457447648     
  0.12270000000000002        -0.72161790874573162     
  0.12300000000000001        -0.66610899752862884     
  0.12330000000000001        -0.55793807199860490     
  0.12360000000000000        -0.40443206914825347     
  0.12390000000000000        -0.21724347829990864     
  0.12419999999999999         -9.3874916649955842E-003
  0.12450000000000001         0.20435557528743170     
  0.12480000000000001         0.40944731102363274     
  0.12509999999999999         0.59290744899965009     
  0.12540000000000001         0.74237231267225212     
  0.12570000000000003         0.84911910283083780     
  0.12600000000000000         0.90624680468356711     
  0.12630000000000002         0.91185420224785962     
  0.12659999999999999         0.86541624267359163     
  0.12690000000000001         0.77176832553400421     
  0.12719999999999998         0.63653986634848747     
  0.12750000000000000         0.47038199610846232     
  0.12780000000000002         0.28342436324961995     
  0.12809999999999999          8.9439282606678966E-002
  0.12840000000000001         -9.9762573567740653E-002
  0.12869999999999998        -0.27113648258076067     
  0.12900000000000000        -0.41471155507046070     
  0.12930000000000003        -0.52186002808908560     
  0.12959999999999999        -0.58715228763989735     
  0.12990000000000002        -0.60844237098778386     
  0.13019999999999998        -0.58654167173906990     
  0.13050000000000000        -0.52615571204915290     
  0.13080000000000003        -0.43265256213186143     
  0.13109999999999999        -0.31554183640655603     
  0.13140000000000002        -0.18266847970887007     
  0.13169999999999998         -4.5336798719966084E-002
  0.13200000000000001          8.9535262551944786E-002
  0.13229999999999997         0.21124077401314559     
  0.13260000000000000         0.31596132981727310     
  0.13290000000000002         0.39584161573182219     
  0.13319999999999999         0.45076757870097423     
  0.13350000000000001         0.47600831444562641     
  0.13380000000000003         0.47529230197677197     
  0.13410000000000000         0.44716712648614892     
  0.13440000000000002         0.39872108436301684     
  0.13469999999999999         0.33091575672331980     
  0.13500000000000001         0.25323633546858471     
  0.13529999999999998         0.16823428585455658     
  0.13560000000000000          8.6079412338560701E-002
  0.13590000000000002          9.4835649136396916E-003
  0.13619999999999999         -5.2279324202375160E-002
  0.13650000000000001         -9.8594281475561568E-002
  0.13680000000000003        -0.12358337400200446     
  0.13710000000000000        -0.12936214987190914     
  0.13740000000000002        -0.11376489522172886     
  0.13769999999999999         -8.2547307616147883E-002
  0.13800000000000001         -3.7196409413383466E-002
  0.13829999999999998          1.4636517164981780E-002
  0.13860000000000000          7.0027471337689995E-002
  0.13890000000000002         0.12124495938781016     
  0.13919999999999999         0.16531898660018396     
  0.13950000000000001         0.19638453798722927     
  0.13979999999999998         0.21319656908980980     
  0.14010000000000000         0.21281743297821634     
  0.14040000000000002         0.19580386859037666     
  0.14069999999999999         0.16179155929572012     
  0.14100000000000001         0.11336353043353087     
  0.14130000000000004          5.2530181102356785E-002
  0.14160000000000000         -1.6394539932848680E-002
  0.14189999999999997         -9.0112122742821932E-002
  0.14219999999999999        -0.16370551380284620     
  0.14250000000000002        -0.23245595057685281     
  0.14279999999999998        -0.29177766238912334     
  0.14310000000000000        -0.33722801703861943     
  0.14339999999999997        -0.36575808227598200     
  0.14369999999999999        -0.37475580503822525     
  0.14400000000000002        -0.36350687968184975     
  0.14429999999999998        -0.33227803988972660     
  0.14460000000000001        -0.28404818830906181     
  0.14490000000000003        -0.22132869096436705     
  0.14520000000000000        -0.15004415003945937     
  0.14550000000000002         -7.4271277161382127E-002
  0.14579999999999999         -1.0623551328343139E-003
  0.14610000000000001          6.5915897533766477E-002
  0.14640000000000003         0.12024365647361251     
  0.14670000000000000         0.16030754970856620     
  0.14699999999999996         0.18198452412266519     
  0.14729999999999999         0.18648029475312705     
  0.14760000000000001         0.17176049902284829     
  0.14789999999999998         0.14194738481247715     
  0.14820000000000000          9.7246481441617405E-002