  -1.4999999999999999E-002     0.0000000000000000     
  -1.4700000000000000E-002     4.8953883983414443E-023
  -1.4400000000000000E-002     4.1041319937122378E-020
  -1.4100000000000000E-002    -3.8583665562541325E-016
  -1.3800000000000000E-002    -1.0632096603434810E-014
  -1.3500000000000000E-002     5.8814225405807891E-014
  -1.3200000000000000E-002     5.9725947343115839E-013
  -1.2899999999999998E-002    -1.7898541999810161E-012
  -1.2600000000000000E-002    -7.7383699563780874E-012
  -1.2299999999999998E-002     1.5304826393708163E-011
  -1.2000000000000000E-002     4.9507303040042695E-011
  -1.1699999999999999E-002    -4.1251127686874215E-011
  -1.1399999999999999E-002    -2.0937792617057080E-010
  -1.1099999999999999E-002    -9.0329099982194973E-011
  -1.0799999999999999E-002     6.0450702334472184E-010
  -1.0499999999999999E-002     8.5244339810857931E-010
  -1.0199999999999999E-002    -6.4218689658013878E-010
  -9.8999999999999991E-003    -2.3856967394990372E-009
  -9.5999999999999992E-003    -2.3392397431620600E-009
  -9.2999999999999992E-003     1.8874344672842575E-009
  -8.9999999999999993E-003     1.0556314988390027E-008
  -8.6999999999999994E-003     9.2341215505597714E-009
  -8.3999999999999995E-003    -1.4777035869002507E-008
  -8.0999999999999996E-003    -3.5683274538429818E-008
  -7.7999999999999988E-003    -9.6792391797886146E-009
  -7.4999999999999997E-003     4.4811829417422091E-008
  -7.1999999999999998E-003     6.2969343937478437E-008
  -6.8999999999999981E-003     3.7359776853526308E-008
  -6.5999999999999982E-003    -4.8165214969514286E-008
  -6.3000000000000000E-003    -2.0326245652347247E-007
  -6.0000000000000001E-003    -1.7056521191696652E-007
  -5.6999999999999985E-003     2.1401015280499549E-007
  -5.3999999999999986E-003     4.5793377236872789E-007
  -5.1000000000000004E-003     1.6437358928153960E-007
  -4.7999999999999987E-003    -2.9507158473779448E-007
  -4.5000000000000005E-003    -5.2844963235376293E-007
  -4.1999999999999989E-003    -4.6581583619846904E-007
  -3.8999999999999990E-003    -1.2240048764337077E-008
  -3.5999999999999990E-003     8.4562960790627320E-007
  -3.2999999999999991E-003     1.2829196312453291E-006
  -2.9999999999999992E-003     4.4301099438318059E-008
  -2.6999999999999993E-003    -1.6012852292679668E-006
  -2.3999999999999994E-003    -1.0104471626350823E-006
  -2.0999999999999977E-003     6.1515633567514884E-007
  -1.7999999999999995E-003     5.9193128615718664E-007
  -1.4999999999999979E-003    -3.7172802659050938E-007
  -1.1999999999999997E-003    -9.9043653063398026E-007
  -8.9999999999999976E-004    -1.0435309214242410E-006
  -5.9999999999999810E-004     2.1530090237250557E-006
  -2.9999999999999992E-004     1.2221797623946674E-005
   0.0000000000000000          2.8497949431983660E-005
   3.0000000000000165E-004     4.8044684360466933E-005
   5.9999999999999984E-004     7.1877201770948599E-005
   9.0000000000000149E-004     1.0622879332031424E-004
   1.2000000000000031E-003     1.6075099767234296E-004
   1.5000000000000013E-003     2.5336044418488018E-004
   1.8000000000000030E-003     4.0373908524297074E-004
   2.1000000000000012E-003     6.1022440714619776E-004
   2.3999999999999994E-003     8.6701191202251187E-004
   2.7000000000000010E-003     1.1935339371578930E-003
   2.9999999999999992E-003     1.6259632831819961E-003
   3.3000000000000008E-003     2.2193904720411357E-003
   3.6000000000000025E-003     3.0287181302912415E-003
   3.9000000000000007E-003     4.0767251233080884E-003
   4.2000000000000023E-003     5.3579534352909391E-003
   4.5000000000000005E-003     6.8123048242986258E-003
   4.7999999999999987E-003     8.3068437097833653E-003
   5.1000000000000004E-003     9.6267326108937182E-003
   5.4000000000000020E-003     1.0425879965389682E-002
   5.7000000000000037E-003     1.0177788656847526E-002
   5.9999999999999984E-003     8.0831315675179722E-003
   6.3000000000000000E-003     2.9812091141757512E-003
   6.6000000000000017E-003    -6.7093347848252898E-003
   6.9000000000000034E-003    -2.3063904650738817E-002
   7.2000000000000015E-003    -4.8706000414867161E-002
   7.5000000000000032E-003    -8.6881141851311336E-002
   7.8000000000000014E-003   -0.14142445552543537     
   8.0999999999999996E-003   -0.21662947984147593     
   8.4000000000000012E-003   -0.31712527517740979     
   8.7000000000000029E-003   -0.44757363974913206     
   9.0000000000000011E-003   -0.61231467061488376     
   9.2999999999999992E-003   -0.81488187992500238     
   9.6000000000000009E-003    -1.0572367371824811     
   9.8999999999999991E-003    -1.3391880306419950     
   1.0200000000000001E-002    -1.6577103478403732     
   1.0500000000000002E-002    -2.0061909113306520     
   1.0800000000000004E-002    -2.3739424895737242     
   1.1099999999999999E-002    -2.7457796079301930     
   1.1400000000000000E-002    -3.1020096079729598     
   1.1700000000000002E-002    -3.4188399856224767     
   1.2000000000000004E-002    -3.6691673181807731     
   1.2300000000000002E-002    -3.8239751124105368     
   1.2600000000000000E-002    -3.8542509282415365     
   1.2900000000000002E-002    -3.7332546930093855     
   1.3200000000000000E-002    -3.4392989003925361     
   1.3500000000000002E-002    -2.9586096332445568     
   1.3800000000000003E-002    -2.2875798573955279     
   1.4100000000000001E-002    -1.4353011884861957     
   1.4400000000000000E-002   -0.42502238776563206     
   1.4700000000000001E-002    0.70589835156699010     
   1.4999999999999999E-002     1.9061004541492779     
   1.5300000000000001E-002     3.1129685577797925     
   1.5600000000000003E-002     4.2561352695856813     
   1.5899999999999997E-002     5.2620823165180832     
   1.6199999999999999E-002     6.0607430113478005     
   1.6500000000000001E-002     6.5914560410359169     
   1.6800000000000002E-002     6.8098512334846717     
   1.7100000000000004E-002     6.6945877432876317     
   1.7400000000000006E-002     6.2515673845550230     
   1.7700000000000000E-002     5.5179224201149566     
   1.8000000000000002E-002     4.5624065679654819     
   1.8300000000000004E-002     3.4828725327325891     
   1.8600000000000005E-002     2.4020527124791724     
   1.8900000000000000E-002     1.4578641456957453     
   1.9200000000000002E-002    0.79285050261019596     
   1.9500000000000003E-002    0.54074165534563301     
   1.9799999999999998E-002    0.81164794404185903     
   2.0100000000000000E-002     1.6785927461451644     
   2.0400000000000001E-002     3.1641766524574315     
   2.0700000000000003E-002     5.2314421614291220     
   2.0999999999999998E-002     7.7790161985579225     
   2.1299999999999999E-002     10.641742402217657     
   2.1600000000000001E-002     13.598827051941813     
   2.1900000000000003E-002     16.386632608860769     
   2.2200000000000004E-002     18.718448337699314     
   2.2500000000000006E-002     20.308658321033807     
   2.2800000000000001E-002     20.897519824722711     
   2.3100000000000002E-002     20.279189878880334     
   2.3400000000000004E-002     18.322498211263678     
   2.3699999999999999E-002     14.990086537228805     
   2.4000000000000000E-002     10.348959058817128     
   2.4300000000000002E-002     4.5690080839860148     
   2.4599999999999997E-002    -2.0826858458734869     
   2.4900000000000005E-002    -9.2597355874257357     
   2.5200000000000000E-002    -16.565026630932810     
   2.5499999999999995E-002    -23.575551255011320     
   2.5800000000000003E-002    -29.879273522959156     
   2.6099999999999998E-002    -35.106944096057354     
   2.6400000000000007E-002    -38.957732137551474     
   2.6700000000000002E-002    -41.223139649880046     
   2.6999999999999996E-002    -41.800501688230192     
   2.7300000000000005E-002    -40.694655290024102     
   2.7600000000000000E-002    -38.015200522572151     
   2.7900000000000008E-002    -33.963366480396296     
   2.8200000000000003E-002    -28.810013833101614     
   2.8499999999999998E-002    -22.873652632872535     
   2.8800000000000006E-002    -16.494149513689482     
   2.9100000000000001E-002    -10.005239936354061     
   2.9400000000000003E-002    -3.7160221392386785     
   2.9700000000000004E-002     2.1095492437608243     
   3.0000000000000006E-002     7.2658167361448367     
   3.0300000000000001E-002     11.609011555323249     
   3.0600000000000002E-002     15.061513676219832     
   3.0900000000000004E-002     17.605678220003366     
   3.1199999999999999E-002     19.275310082328811     
   3.1500000000000007E-002     20.147830452871986     
   3.1800000000000002E-002     20.328881650381380     
   3.2099999999999997E-002     19.942481389439010     
   3.2400000000000005E-002     19.118844359531728     
   3.2700000000000000E-002     17.984278999536123     
   3.3000000000000002E-002     16.654820768303917     
   3.3300000000000003E-002     15.229950292100336     
   3.3599999999999998E-002     13.789509182111166     
   3.3900000000000000E-002     12.393597991607983     
   3.4200000000000001E-002     11.080754697866769     
   3.4500000000000003E-002     9.8716826154272397     
   3.4799999999999998E-002     8.7714209587765026     
   3.5099999999999999E-002     7.7698760385550001     
   3.5400000000000001E-002     6.8497234075828022     
   3.5699999999999996E-002     5.9853826600467315     
   3.6000000000000004E-002     5.1479846444106512     
   3.6299999999999999E-002     4.3114015462853992     
   3.6600000000000008E-002     3.4504413436688228     
   3.6900000000000002E-002     2.5467241100764428     
   3.7199999999999997E-002     1.5910170860773756     
   3.7500000000000006E-002    0.58230144884609081     
   3.7800000000000000E-002   -0.46906497547325254     
   3.8100000000000009E-002    -1.5428749320635282     
   3.8400000000000004E-002    -2.6103608069472015     
   3.8699999999999998E-002    -3.6357604408387765     
   3.9000000000000007E-002    -4.5787027751581668     
   3.9300000000000002E-002    -5.3986189832668119     
   3.9600000000000003E-002    -6.0569942141699453     
   3.9900000000000005E-002    -6.5213024528822015     
   4.0200000000000000E-002    -6.7685501357861728     
   4.0500000000000001E-002    -6.7863733524730963     
   4.0800000000000003E-002    -6.5753075907700547     
   4.1100000000000005E-002    -6.1499660014499673     
   4.1399999999999999E-002    -5.5368078000543282     
   4.1700000000000008E-002    -4.7741697385172817     
   4.2000000000000003E-002    -3.9097906052181273     
   4.2299999999999997E-002    -2.9955297763052515     
   4.2600000000000006E-002    -2.0876301923080343     
   4.2900000000000001E-002    -1.2391125665906750     
   4.3200000000000002E-002   -0.49793562889749121     
   4.3500000000000004E-002     9.6618203396664173E-002
   4.3799999999999999E-002    0.51760202137259104     
   4.4100000000000000E-002    0.75087302130722433     
   4.4400000000000002E-002    0.79739808699845527     
   4.4700000000000004E-002    0.67165661610181870     
   4.4999999999999998E-002    0.40053268605067138     
   4.5300000000000000E-002     2.2427913789421331E-002
   4.5600000000000002E-002   -0.41983744292714897     
   4.5899999999999996E-002   -0.87915746262736194     
   4.6200000000000005E-002    -1.3091430887627660     
   4.6500000000000000E-002    -1.6702356441979860     
   4.6799999999999994E-002    -1.9279518161756048     
   4.7100000000000003E-002    -2.0597435259142287     
   4.7399999999999998E-002    -2.0548044515940438     
   4.7700000000000006E-002    -1.9113191542886709     
   4.8000000000000001E-002    -1.6415099236200563     
   4.8300000000000010E-002    -1.2643141077257263     
   4.8600000000000004E-002   -0.80601878409060712     
   4.8899999999999999E-002   -0.29926995191071493     
   4.9200000000000008E-002    0.22358010678737783     
   4.9500000000000002E-002    0.72952643886718116     
   4.9800000000000011E-002     1.1876492103262575     
   5.0100000000000006E-002     1.5725657395274057     
   5.0400000000000000E-002     1.8636993711434346     
   5.0700000000000009E-002     2.0475162748033267     
   5.1000000000000004E-002     2.1177372203207590     
   5.1299999999999998E-002     2.0761980304864962     
   5.1600000000000007E-002     1.9310327120391866     
   5.1900000000000002E-002     1.6976704034141128     
   5.2200000000000010E-002     1.3971184031018855     
   5.2500000000000005E-002     1.0540252572027355     
   5.2800000000000000E-002    0.69587174584023437     
   5.3099999999999994E-002    0.35055382536902091     
   5.3400000000000003E-002     4.3363459268203473E-002
   5.3699999999999998E-002   -0.20277092128276342     
   5.4000000000000006E-002   -0.37153300717242904     
   5.4300000000000001E-002   -0.45278138118622013     
   5.4599999999999996E-002   -0.44334936757243398     
   5.4900000000000004E-002   -0.34805436241820453     
   5.5199999999999999E-002   -0.17802336024636620     
   5.5499999999999994E-002     4.9888764929023659E-002
   5.5800000000000002E-002    0.31514181384333978     
   5.6099999999999997E-002    0.59417409359790552     
   5.6400000000000006E-002    0.86408531442637115     
   5.6700000000000000E-002     1.1030163081672979     
   5.6999999999999995E-002     1.2907923931925842     
   5.7300000000000004E-002     1.4132972233662766     
   5.7599999999999998E-002     1.4592640904257139     
   5.7900000000000007E-002     1.4226340629221452     
   5.8200000000000002E-002     1.3037654838287998     
   5.8499999999999996E-002     1.1062626453219799     
   5.8800000000000005E-002    0.83900979775029172     
   5.9100000000000000E-002    0.51558547449850756     
   5.9400000000000008E-002    0.15138346794297061     
   5.9700000000000003E-002   -0.23337585367871982     
   6.0000000000000012E-002   -0.61732699779120537     
   6.0300000000000006E-002   -0.97829134516376715     
   6.0600000000000001E-002    -1.2929845504740196     
   6.0900000000000010E-002    -1.5400640385699798     
   6.1200000000000004E-002    -1.7007420680424186     
   6.1500000000000013E-002    -1.7593740883448694     
   6.1800000000000008E-002    -1.7070012826687846     
   6.2100000000000002E-002    -1.5412157420292092     
   6.2399999999999997E-002    -1.2668260107833327     
   6.2700000000000006E-002   -0.89704518606973527     
   6.3000000000000000E-002   -0.45389944831730006     
   6.3300000000000009E-002     3.5253874890404366E-002
   6.3600000000000004E-002    0.53623828197901302     
   6.3899999999999998E-002     1.0124678206830355     
   6.4199999999999993E-002     1.4274032834902446     
   6.4500000000000002E-002     1.7472731559700008     
   6.4800000000000010E-002     1.9444235057570112     
   6.5100000000000005E-002     1.9998496303017839     
   6.5400000000000000E-002     1.9054230055463219     
   6.5700000000000008E-002     1.6649020615381820     
   6.5999999999999989E-002     1.2934381790618690     
   6.6299999999999998E-002    0.81798946545046836     
   6.6600000000000006E-002    0.27278096635998905     
   6.6900000000000001E-002   -0.30191374211059496     
   6.7199999999999996E-002   -0.86321272488687051     
   6.7500000000000004E-002    -1.3714148489109723     
   6.7800000000000013E-002    -1.7910723086716516     
   6.8099999999999994E-002    -2.0945021445313476     
   6.8400000000000002E-002    -2.2657532003791045     
   6.8700000000000011E-002    -2.2976600441679382     
   6.8999999999999992E-002    -2.1949271511807500     
   6.9300000000000000E-002    -1.9727579972184599     
   6.9600000000000009E-002    -1.6519894117791158     
   6.9900000000000004E-002    -1.2597603427312554     
   7.0199999999999999E-002   -0.82619825518063228     
   7.0500000000000007E-002   -0.38023229242481610     
   7.0800000000000016E-002     5.0775743518679979E-002
   7.1099999999999997E-002    0.44259460559978775     
   7.1400000000000005E-002    0.77763179737857868     
   7.1700000000000000E-002     1.0427242220484940     
   7.1999999999999995E-002     1.2299507503449074     
   7.2300000000000003E-002     1.3379791591009118     
   7.2600000000000012E-002     1.3690584506458303     
   7.2900000000000006E-002     1.3295499900471688     
   7.3200000000000001E-002     1.2298624169980488     
   7.3499999999999996E-002     1.0819418131055338     
   7.3800000000000004E-002    0.89929655728881319     
   7.4099999999999999E-002    0.69722519455788445     
   7.4400000000000008E-002    0.48947607206389349     
   7.4700000000000003E-002    0.28954928378898903     
   7.5000000000000011E-002    0.10995046512077880     
   7.5299999999999992E-002    -4.0674007920295206E-002
   7.5600000000000001E-002   -0.15555235482444146     
   7.5900000000000009E-002   -0.23140157413613083     
   7.6200000000000004E-002   -0.26877695015953240     
   7.6499999999999999E-002   -0.27083685828017112     
   7.6800000000000007E-002   -0.24326127808574752     
   7.7099999999999988E-002   -0.19473018050734728     
   7.7399999999999997E-002   -0.13370517448472710     
   7.7700000000000005E-002    -7.0177674614600213E-002
   7.8000000000000014E-002    -1.3070784551573237E-002
   7.8299999999999995E-002     3.0168122901295197E-002
   7.8600000000000003E-002     5.3104748814521444E-002
   7.8900000000000012E-002     5.2237178860902310E-002
   7.9199999999999993E-002     2.6221846157648207E-002
   7.9500000000000001E-002    -2.4509438091993845E-002
   7.9800000000000010E-002    -9.6457432485144365E-002
   8.0100000000000018E-002   -0.18506531944677296     
   8.0399999999999999E-002   -0.28414587645245909     
   8.0700000000000008E-002   -0.38620046700432598     
   8.1000000000000003E-002   -0.48383450947589357     
   8.1299999999999997E-002   -0.56971630507071680     
   8.1600000000000006E-002   -0.63679501196770083     
   8.1900000000000014E-002   -0.67976560839591260     
   8.2199999999999995E-002   -0.69461550975969977     
   8.2500000000000004E-002   -0.67877933206075824     
   8.2799999999999999E-002   -0.63261970994817029     
   8.3100000000000007E-002   -0.55794773036385159     
   8.3400000000000002E-002   -0.45803047259965463     
   8.3700000000000011E-002   -0.33860786372978913     
   8.4000000000000005E-002   -0.20616286224031427     
   8.4300000000000000E-002    -6.7130936518868936E-002
   8.4599999999999995E-002     7.0393118561674711E-002
   8.4900000000000003E-002    0.19978778612225512     
   8.5199999999999998E-002    0.31516240648229443     
   8.5500000000000007E-002    0.41005958379459045     
   8.5800000000000001E-002    0.48125774694013385     
   8.6100000000000010E-002    0.52573911276063334     
   8.6399999999999991E-002    0.54175678824616336     
   8.6699999999999999E-002    0.53018013699597744     
   8.7000000000000008E-002    0.49254463409271831     
   8.7300000000000003E-002    0.43135060467750580     
   8.7599999999999997E-002    0.35206626824503495     
   8.7900000000000006E-002    0.25937443347926092     
   8.8200000000000014E-002    0.15937812398710097     
   8.8499999999999995E-002     5.9361697813585516E-002
   8.8800000000000004E-002    -3.5060445562137534E-002
   8.9100000000000013E-002   -0.11743806299654380     
   8.9399999999999993E-002   -0.18240324224118257     
   8.9700000000000002E-002   -0.22673935176374552     
   9.0000000000000011E-002   -0.24803773063248588     
   9.0299999999999991E-002   -0.24532592896890162     
   9.0600000000000000E-002   -0.22027019467799988     
   9.0900000000000009E-002   -0.17495449957898884     
   9.1200000000000017E-002   -0.11339136114841127     
   9.1499999999999998E-002    -4.0732665729152684E-002
   9.1800000000000007E-002     3.8453341730595524E-002
   9.2100000000000001E-002    0.11870576210496384     
   9.2399999999999996E-002    0.19453643454818553     
   9.2700000000000005E-002    0.26180820094721546     
   9.3000000000000013E-002    0.31656171111609371     
   9.3300000000000008E-002    0.35576493640230500     
   9.3600000000000003E-002    0.37811831688206388     
   9.3899999999999997E-002    0.38250852709686955     
   9.4200000000000006E-002    0.36937106838624867     
   9.4500000000000001E-002    0.33997754608941944     
   9.4800000000000009E-002    0.29693631899587014     
   9.5100000000000004E-002    0.24308270533459081     
   9.5399999999999999E-002    0.18214458810603998     
   9.5699999999999993E-002    0.11826390878758347     
   9.6000000000000002E-002     5.5646639248159963E-002
   9.6300000000000011E-002    -2.3567980660332312E-003
   9.6600000000000005E-002    -5.1280699231955738E-002
   9.6900000000000000E-002    -8.9326819369081878E-002
   9.7200000000000009E-002   -0.11418266308092924     
   9.7499999999999989E-002   -0.12456696894224550     
   9.7799999999999998E-002   -0.12101953904606304     
   9.8100000000000007E-002   -0.10392130660494785     
   9.8400000000000015E-002    -7.4801801209826976E-002
   9.8699999999999996E-002    -3.6488805052484447E-002
   9.9000000000000005E-002     9.0159550659766521E-003
   9.9300000000000013E-002     5.8375753483014541E-002
   9.9599999999999994E-002    0.10783963087343876     
   9.9900000000000003E-002    0.15495700399395976     
  0.10020000000000001         0.19602439418758372     
  0.10049999999999999         0.22761019077599878     
  0.10080000000000000         0.24764664924525781     
  0.10110000000000001         0.25353889630835624     
  0.10140000000000000         0.24348520278877536     
  0.10170000000000000         0.21700852297912557     
  0.10200000000000001         0.17418516574872661     
  0.10230000000000002         0.11531597050138083     
  0.10260000000000000          4.2950477539365019E-002
  0.10290000000000001         -4.0508869875108072E-002
  0.10320000000000000        -0.13183485657256586     
  0.10350000000000001        -0.22713454315401463     
  0.10380000000000000        -0.32229743695912311     
  0.10410000000000001        -0.41392303370364059     
  0.10440000000000001        -0.49744543881738551     
  0.10470000000000000        -0.56958338704245215     
  0.10500000000000000        -0.62757250454853353     
  0.10530000000000000        -0.66836896106233323     
  0.10560000000000000        -0.68989177973303084     
  0.10590000000000001        -0.69128533612822607     
  0.10620000000000000        -0.67042317479710756     
  0.10650000000000001        -0.62788524910660104     
  0.10679999999999999        -0.56428244707814212     
  0.10710000000000000        -0.47990900682313309     
  0.10740000000000001        -0.37784487918762999     
  0.10770000000000000        -0.26129554222237361     
  0.10800000000000000        -0.13321161923365743     
  0.10830000000000001          8.3821833320679088E-004
  0.10859999999999999         0.13564061559050045     
  0.10890000000000000         0.26622258369718221     
  0.10920000000000001         0.38618494158362315     
  0.10950000000000001         0.49060613407648562     
  0.10979999999999999         0.57527962329839433     
  0.11009999999999999         0.63580074531057285     
  0.11040000000000001         0.66993149500933291     
  0.11070000000000001         0.67635484825238423     
  0.11100000000000000         0.65473546935555316     
  0.11130000000000000         0.60645958351511331     
  0.11160000000000002         0.53444555331809074     
  0.11190000000000001         0.44150114463318990     
  0.11220000000000001         0.33300743489367524     
  0.11250000000000000         0.21405065195675843     
  0.11280000000000000          9.0400145135859186E-002
  0.11309999999999999         -3.1762085862957513E-002
  0.11340000000000001        -0.14648682725301473     
  0.11369999999999998        -0.24856412680166612     
  0.11400000000000000        -0.33314184622994114     
  0.11430000000000000        -0.39691344790579536     
  0.11460000000000002        -0.43785721689554485     
  0.11489999999999999        -0.45533293971409261     
  0.11520000000000001        -0.45046511760080243     
  0.11550000000000001        -0.42523480021728705     
  0.11580000000000000        -0.38308132442988957     
  0.11609999999999999        -0.32838113132742064     
  0.11640000000000002        -0.26544849423466921     
  0.11670000000000001        -0.19897517767260522     
  0.11700000000000001        -0.13287802615364042     
  0.11730000000000000         -7.0553267425714911E-002
  0.11760000000000000         -1.5064409668012375E-002
  0.11789999999999999          3.2273291702623906E-002
  0.11820000000000001          7.0379730697977511E-002
  0.11850000000000001          9.8948369006764750E-002
  0.11880000000000000         0.11913126021257767     
  0.11910000000000000         0.13132574367271033     
  0.11940000000000002         0.13668327677045347     
  0.11970000000000001         0.13717559605623611     
  0.12000000000000001         0.13335189849633411     
  0.12030000000000000         0.12713777181161123     
  0.12060000000000000         0.11932156182541886     
  0.12089999999999999         0.11041821531042385     
  0.12119999999999999         0.10177018548348814     
  0.12150000000000001          9.2654870128368289E-002
  0.12180000000000001          8.3557510775669822E-002
  0.12210000000000000          7.4352401287302472E-002
  0.12239999999999999          6.3893195218742468E-002
  0.12270000000000002          5.2444462809525381E-002
  0.12300000000000001          3.9506661214737539E-002
  0.12330000000000001          2.4383034321973432E-002
  0.12360000000000000          8.5481052835624221E-003
  0.12390000000000000         -8.1886915156071400E-003
  0.12419999999999999         -2.4592359095506153E-002
  0.12450000000000001         -3.8163568466199491E-002
  0.12480000000000001         -4.8254697754734274E-002
  0.12509999999999999         -5.2650622268184066E-002
  0.12540000000000001         -4.9636099137584481E-002
  0.12570000000000003         -3.9097767954575931E-002
  0.12600000000000000         -1.9963847639702267E-002
  0.12630000000000002          7.3443473118823301E-003
  0.12659999999999999          4.1024082797034629E-002
  0.12690000000000001          7.9846451890662223E-002
  0.12719999999999998         0.12136695552689604     
  0.12750000000000000         0.16270563513566622     
  0.12780000000000002         0.20241178847065372     
  0.12809999999999999         0.23746822840082385     
  0.12840000000000001         0.26635689930809686     
  0.12869999999999998         0.28803206759039174     
  0.12900000000000000         0.30154652604902160     
  0.12930000000000003         0.30690250987252432     
  0.12959999999999999         0.30439145599429751     
  0.12990000000000002         0.29428534032738857     
  0.13019999999999998         0.27742512476017361     
  0.13050000000000000         0.25459818656802002     
  0.13080000000000003         0.22645981912091562     
  0.13109999999999999         0.19395459208022611     
  0.13140000000000002         0.15756952002553465     
  0.13169999999999998         0.11789578407827705     
  0.13200000000000001          7.6082561878728097E-002
  0.13229999999999997          3.1932554438804592E-002
  0.13260000000000000         -1.3594275563867326E-002
  0.13290000000000002         -5.9717334522350583E-002
  0.13319999999999999        -0.10608078651567673     
  0.13350000000000001        -0.15154922639741852     
  0.13380000000000003        -0.19492517819044097     
  0.13410000000000000        -0.23610863301308943     
  0.13440000000000002        -0.27232755748468973     
  0.13469999999999999        -0.30298794688682884     
  0.13500000000000001        -0.32631827673034747     
  0.13529999999999998        -0.33963672537412776     
  0.13560000000000000        -0.34285871412306695     
  0.13590000000000002        -0.33406762572410859     
  0.13619999999999999        -0.31237609600821603     
  0.13650000000000001        -0.27874465396963360     
  0.13680000000000003        -0.23312542192990421     
  0.13710000000000000        -0.17800692364642118     
  0.13740000000000002        -0.11586284110147246     
  0.13769999999999999         -4.9663593914937479E-002
  0.13800000000000001          1.6237629993137777E-002
  0.13829999999999998          7.8649806890076723E-002
  0.13860000000000000         0.13352031278783755     
  0.13890000000000002         0.17718667332883431     
  0.13919999999999999         0.20791761975447079     
  0.13950000000000001         0.22295178801136525     
  0.13979999999999998         0.22200216696519001     
  0.14010000000000000         0.20559122119653955     
  0.14040000000000002         0.17395392682912039     
  0.14069999999999999         0.13038373865957745     
  0.14100000000000001          7.6767031607090086E-002
  0.14130000000000004          1.6639074337680870E-002
  0.14160000000000000         -4.5906875592195341E-002
  0.14189999999999997        -0.10752222764112107     
  0.14219999999999999        -0.16457331712468734     
  0.14250000000000002        -0.21286814197477788     
  0.14279999999999998        -0.25039108202502147     
  0.14310000000000000        -0.27472247183193055     
  0.14339999999999997        -0.28409002687128232     
  0.14369999999999999        -0.27912198024686224     
  0.14400000000000002        -0.25981344419573210     
  0.14429999999999998        -0.22763638513044451     
  0.14460000000000001        -0.18579222809764800     
  0.14490000000000003        -0.13661322806618562     
  0.14520000000000000         -8.3479080030110758E-002
  0.14550000000000002         -3.0193037042223599E-002
  0.14579999999999999          2.0650668568170431E-002
  0.14610000000000001          6.6080052476559889E-002
  0.14640000000000003         0.10359557904311430     
  0.14670000000000000         0.13273748060085314     
  0.14699999999999996         0.15188731953051474     
  0.14729999999999999         0.16187368995275819     
  0.14760000000000001         0.16300069463970296     
  0.14789999999999998         0.15629955348494234     
  0.14820000000000000         0.14369004264522692     