  -1.4999999999999999E-002     0.0000000000000000     
  -1.4700000000000000E-002     0.0000000000000000     
  -1.4400000000000000E-002     0.0000000000000000     
  -1.4100000000000000E-002     0.0000000000000000     
  -1.3800000000000000E-002     0.0000000000000000     
  -1.3500000000000000E-002     0.0000000000000000     
  -1.3200000000000000E-002     0.0000000000000000     
  -1.2899999999999998E-002     0.0000000000000000     
  -1.2600000000000000E-002     0.0000000000000000     
  -1.2299999999999998E-002     0.0000000000000000     
  -1.2000000000000000E-002     0.0000000000000000     
  -1.1699999999999999E-002     0.0000000000000000     
  -1.1399999999999999E-002     0.0000000000000000     
  -1.1099999999999999E-002     0.0000000000000000     
  -1.0799999999999999E-002     0.0000000000000000     
  -1.0499999999999999E-002     0.0000000000000000     
  -1.0199999999999999E-002     0.0000000000000000     
  -9.8999999999999991E-003     0.0000000000000000     
  -9.5999999999999992E-003     0.0000000000000000     
  -9.2999999999999992E-003     0.0000000000000000     
  -8.9999999999999993E-003     0.0000000000000000     
  -8.6999999999999994E-003     0.0000000000000000     
  -8.3999999999999995E-003     0.0000000000000000     
  -8.0999999999999996E-003     0.0000000000000000     
  -7.7999999999999988E-003     0.0000000000000000     
  -7.4999999999999997E-003     0.0000000000000000     
  -7.1999999999999998E-003     0.0000000000000000     
  -6.8999999999999981E-003     0.0000000000000000     
  -6.5999999999999982E-003     0.0000000000000000     
  -6.3000000000000000E-003     0.0000000000000000     
  -6.0000000000000001E-003     0.0000000000000000     
  -5.6999999999999985E-003     0.0000000000000000     
  -5.3999999999999986E-003     0.0000000000000000     
  -5.1000000000000004E-003     0.0000000000000000     
  -4.7999999999999987E-003     0.0000000000000000     
  -4.5000000000000005E-003     0.0000000000000000     
  -4.1999999999999989E-003     0.0000000000000000     
  -3.8999999999999990E-003     0.0000000000000000     
  -3.5999999999999990E-003     0.0000000000000000     
  -3.2999999999999991E-003     0.0000000000000000     
  -2.9999999999999992E-003     0.0000000000000000     
  -2.6999999999999993E-003     0.0000000000000000     
  -2.3999999999999994E-003     0.0000000000000000     
  -2.0999999999999977E-003     0.0000000000000000     
  -1.7999999999999995E-003     0.0000000000000000     
  -1.4999999999999979E-003     0.0000000000000000     
  -1.1999999999999997E-003     0.0000000000000000     
  -8.9999999999999976E-004     0.0000000000000000     
  -5.9999999999999810E-004     0.0000000000000000     
  -2.9999999999999992E-004     0.0000000000000000     
   0.0000000000000000          0.0000000000000000     
   3.0000000000000165E-004     0.0000000000000000     
   5.9999999999999984E-004     0.0000000000000000     
   9.0000000000000149E-004     0.0000000000000000     
   1.2000000000000031E-003     0.0000000000000000     
   1.5000000000000013E-003     0.0000000000000000     
   1.8000000000000030E-003     0.0000000000000000     
   2.1000000000000012E-003     0.0000000000000000     
   2.3999999999999994E-003     0.0000000000000000     
   2.7000000000000010E-003     0.0000000000000000     
   2.9999999999999992E-003     0.0000000000000000     
   3.3000000000000008E-003     0.0000000000000000     
   3.6000000000000025E-003     0.0000000000000000     
   3.9000000000000007E-003     0.0000000000000000     
   4.2000000000000023E-003     0.0000000000000000     
   4.5000000000000005E-003     0.0000000000000000     
   4.7999999999999987E-003     0.0000000000000000     
   5.1000000000000004E-003     0.0000000000000000     
   5.4000000000000020E-003     0.0000000000000000     
   5.7000000000000037E-003     0.0000000000000000     
   5.9999999999999984E-003     0.0000000000000000     
   6.3000000000000000E-003     0.0000000000000000     
   6.6000000000000017E-003     0.0000000000000000     
   6.9000000000000034E-003     0.0000000000000000     
   7.2000000000000015E-003     0.0000000000000000     
   7.5000000000000032E-003     0.0000000000000000     
   7.8000000000000014E-003     0.0000000000000000     
   8.0999999999999996E-003     0.0000000000000000     
   8.4000000000000012E-003     0.0000000000000000     
   8.7000000000000029E-003     0.0000000000000000     
   9.0000000000000011E-003     7.0884109641103581E-042
   9.2999999999999992E-003    -2.4594112394250904E-041
   9.6000000000000009E-003     9.7941710640604777E-041
   9.8999999999999991E-003    -3.3273625770957414E-038
   1.0200000000000001E-002     1.6538536033042641E-037
   1.0500000000000002E-002    -7.9203826959675954E-037
   1.0800000000000004E-002     2.2253507824320994E-036
   1.1099999999999999E-002    -2.3549504664593901E-036
   1.1400000000000000E-002    -6.9990556624351250E-036
   1.1700000000000002E-002     2.5162035188395309E-035
   1.2000000000000004E-002    -4.5835767576173842E-035
   1.2300000000000002E-002     1.1675143605257435E-034
   1.2600000000000000E-002    -3.9246020164924037E-034
   1.2900000000000002E-002     7.9421469933053471E-034
   1.3200000000000000E-002    -1.2721231992485758E-033
   1.3500000000000002E-002     2.7033359579227962E-033
   1.3800000000000003E-002    -5.0824294975276810E-033
   1.4100000000000001E-002     6.7442417408825747E-033
   1.4400000000000000E-002    -6.0965483992214751E-033
   1.4700000000000001E-002     3.7956657063027417E-033
   1.4999999999999999E-002    -4.9904063970752569E-035
   1.5300000000000001E-002    -6.4955850664003272E-033
   1.5600000000000003E-002     1.3922801700516073E-032
   1.5899999999999997E-002    -1.7049517675938552E-032
   1.6199999999999999E-002     1.2176979415115188E-032
   1.6500000000000001E-002     3.4201071348411939E-033
   1.6800000000000002E-002    -3.1617033775812820E-032
   1.7100000000000004E-002     6.6335159741208707E-032
   1.7400000000000006E-002    -9.3124607334296269E-032
   1.7700000000000000E-002     9.4252441901417847E-032
   1.8000000000000002E-002    -5.3067118364018560E-032
   1.8300000000000004E-002    -4.7063711207117216E-032
   1.8600000000000005E-002     2.0728488308015876E-031
   1.8900000000000000E-002    -3.7214224063446297E-031
   1.9200000000000002E-002     4.2310366809023252E-031
   1.9500000000000003E-002    -2.8163921530229834E-031
   1.9799999999999998E-002     1.9997734010510596E-032
   2.0100000000000000E-002     2.7655144617227840E-031
   2.0400000000000001E-002    -7.9752182207649619E-031
   2.0700000000000003E-002     1.7863642944869800E-030
   2.0999999999999998E-002    -2.3400446328156177E-030
   2.1299999999999999E-002    -6.6973571494923511E-031
   2.1600000000000001E-002     1.1830622715207037E-029
   2.1900000000000003E-002    -3.6080041189668201E-029
   2.2200000000000004E-002     7.5438518952224424E-029
   2.2500000000000006E-002    -9.1687008699890565E-029
   2.2800000000000001E-002    -1.4943407357389685E-028
   2.3100000000000002E-002     1.4577387389657032E-027
   2.3400000000000004E-002    -5.6659648362746657E-027
   2.3699999999999999E-002     1.4594692837926765E-026
   2.4000000000000000E-002    -2.2688950579299014E-026
   2.4300000000000002E-002    -2.0748149358739490E-027
   2.4599999999999997E-002     1.3342648584427534E-025
   2.4900000000000005E-002    -4.1857774680635990E-025
   2.5200000000000000E-002     5.8740989932096810E-025
   2.5499999999999995E-002     4.3010432408566632E-025
   2.5800000000000003E-002    -4.2586684163410232E-024
   2.6099999999999998E-002     8.5048360354583636E-024
   2.6400000000000007E-002     1.1293571748924998E-023
   2.6700000000000002E-002    -1.3913096353621256E-022
   2.6999999999999996E-002     5.0209448733465478E-022
   2.7300000000000005E-002    -8.5364829769726893E-022
   2.7600000000000000E-002    -8.0015961364806778E-022
   2.7900000000000008E-002     9.5565313041886429E-021
   2.8200000000000003E-002    -2.8335605550677850E-020
   2.8499999999999998E-002     3.5297560418626314E-020
   2.8800000000000006E-002     4.3155870574185119E-020
   2.9100000000000001E-002    -2.8563854863658965E-019
   2.9400000000000003E-002     5.9186542544830110E-019
   2.9700000000000004E-002    -6.3655046639685990E-019
   3.0000000000000006E-002     4.6883613572507048E-019
   3.0300000000000001E-002    -2.3189999899519978E-019
   3.0600000000000002E-002    -6.9875143976458436E-018
   3.0900000000000004E-002     4.6835428149317788E-017
   3.1199999999999999E-002    -1.2716701786696342E-016
   3.1500000000000007E-002     5.5541731816790886E-017
   3.1800000000000002E-002     7.4134118763907836E-016
   3.2099999999999997E-002    -2.4407051414152002E-015
   3.2400000000000005E-002     1.9451449751761185E-015
   3.2700000000000000E-002     8.9196055069285368E-015
   3.3000000000000002E-002    -3.1173709548763259E-014
   3.3300000000000003E-002     2.3546862679391506E-014
   3.3599999999999998E-002     1.0462955423659960E-013
   3.3900000000000000E-002    -3.2717341531002383E-013
   3.4200000000000001E-002     1.4342171984594592E-013
   3.4500000000000003E-002     1.2614036556435822E-012
   3.4799999999999998E-002    -2.9240314122102946E-012
   3.5099999999999999E-002    -8.1055061161311008E-013
   3.5400000000000001E-002     1.4655998249845013E-011
   3.5699999999999996E-002    -1.8457932655775221E-011
   3.6000000000000004E-002    -4.0204365966563118E-011
   3.6299999999999999E-002     1.3440588757645308E-010
   3.6600000000000008E-002     2.1132563328004638E-011
   3.6900000000000002E-002    -6.1188652816452902E-010
   3.7199999999999997E-002     4.7156314851330337E-010
   3.7500000000000006E-002     2.2469601413195500E-009
   3.7800000000000000E-002    -3.4767320497041957E-009
   3.8100000000000009E-002    -7.5085620660362840E-009
   3.8400000000000004E-002     1.7264098738379203E-008
   3.8699999999999998E-002     2.5834719154514687E-008
   3.9000000000000007E-002    -7.3065338630193566E-008
   3.9300000000000002E-002    -1.0844358988676229E-007
   3.9600000000000003E-002     2.5191245200894905E-007
   3.9900000000000005E-002     4.7215958173420004E-007
   4.0200000000000000E-002    -7.5322239602227207E-007
   4.0500000000000001E-002    -1.9900290101926974E-006
   4.0800000000000003E-002     3.7353716087561169E-006
   4.1100000000000005E-002     2.3299144979042048E-005
   4.1399999999999999E-002     5.2817139078880756E-005
   4.1700000000000008E-002     7.8245342348456408E-005
   4.2000000000000003E-002     9.2794094608279008E-005
   4.2299999999999997E-002     1.1162785635078954E-004
   4.2600000000000006E-002     1.6379962688800397E-004
   4.2900000000000001E-002     2.7040252652069899E-004
   4.3200000000000002E-002     4.3538551557954861E-004
   4.3500000000000004E-002     6.5880228193338994E-004
   4.3799999999999999E-002     9.5666548542570006E-004
   4.4100000000000000E-002     1.3666741569816297E-003
   4.4400000000000002E-002     1.9356262771269891E-003
   4.4700000000000004E-002     2.7052881404746577E-003
   4.4999999999999998E-002     3.7139932532458909E-003
   4.5300000000000000E-002     5.0066693629822242E-003
   4.5600000000000002E-002     6.6308763569570489E-003
   4.5899999999999996E-002     8.6184797616332305E-003
   4.6200000000000005E-002     1.0973634639306527E-002
   4.6500000000000000E-002     1.3668501837141201E-002
   4.6799999999999994E-002     1.6628141196281164E-002
   4.7100000000000003E-002     1.9704026932368571E-002
   4.7399999999999998E-002     2.2658303363031852E-002
   4.7700000000000006E-002     2.5158277907409966E-002
   4.8000000000000001E-002     2.6768847984650301E-002
   4.8300000000000010E-002     2.6940792272635877E-002
   4.8600000000000004E-002     2.5018159386497082E-002
   4.8899999999999999E-002     2.0279396425382228E-002
   4.9200000000000008E-002     1.2014038667323233E-002
   4.9500000000000002E-002    -3.9329771956753590E-004
   4.9800000000000011E-002    -1.7389567581642527E-002
   5.0100000000000006E-002    -3.9182417371935854E-002
   5.0400000000000000E-002    -6.5596656788811172E-002
   5.0700000000000009E-002    -9.5912412410762704E-002
   5.1000000000000004E-002   -0.12877100372225339     
   5.1299999999999998E-002   -0.16217980221438405     
   5.1600000000000007E-002   -0.19353157992455572     
   5.1900000000000002E-002   -0.21963758947467105     
   5.2200000000000010E-002   -0.23688038112566140     
   5.2500000000000005E-002   -0.24151015266994047     
   5.2800000000000000E-002   -0.22997800440956284     
   5.3099999999999994E-002   -0.19927126246004243     
   5.3400000000000003E-002   -0.14729646910480537     
   5.3699999999999998E-002    -7.3275853336877222E-002
   5.4000000000000006E-002     2.1913398879884988E-002
   5.4300000000000001E-002    0.13558191528679236     
   5.4599999999999996E-002    0.26313182440954408     
   5.4900000000000004E-002    0.39823728915189116     
   5.5199999999999999E-002    0.53309840474705383     
   5.5499999999999994E-002    0.65901926293366342     
   5.5800000000000002E-002    0.76694075405866469     
   5.6099999999999997E-002    0.84824453089889651     
   5.6400000000000006E-002    0.89542740263480036     
   5.6700000000000000E-002    0.90287557137109453     
   5.6999999999999995E-002    0.86735143334843623     
   5.7300000000000004E-002    0.78851469188876055     
   5.7599999999999998E-002    0.66897259043966129     
   5.7900000000000007E-002    0.51432905821775132     
   5.8200000000000002E-002    0.33269234174608592     
   5.8499999999999996E-002    0.13430019363199436     
   5.8800000000000005E-002    -6.9426450115093546E-002
   5.9100000000000000E-002   -0.26657668452960903     
   5.9400000000000008E-002   -0.44587604132830916     
   5.9700000000000003E-002   -0.59738800762345456     
   6.0000000000000012E-002   -0.71341904259967936     
   6.0300000000000006E-002   -0.78902732367856143     
   6.0600000000000001E-002   -0.82246719313307037     
   6.0900000000000010E-002   -0.81522447902598894     
   6.1200000000000004E-002   -0.77189645565163834     
   6.1500000000000013E-002   -0.69972444873640538     
   6.1800000000000008E-002   -0.60798625677073526     
   6.2100000000000002E-002   -0.50711361686064371     
   6.2399999999999997E-002   -0.40782385052010839     
   6.2700000000000006E-002   -0.32015110075841430     
   6.3000000000000000E-002   -0.25267228709094275     
   6.3300000000000009E-002   -0.21179929779853943     
   6.3600000000000004E-002   -0.20141676892188276     
   6.3899999999999998E-002   -0.22253704458170934     
   6.4199999999999993E-002   -0.27345473247556562     
   6.4500000000000002E-002   -0.34996315283348250     
   6.4800000000000010E-002   -0.44592704842128728     
   6.5100000000000005E-002   -0.55372351312996571     
   6.5400000000000000E-002   -0.66502503507481825     
   6.5700000000000008E-002   -0.77126423855833071     
   6.5999999999999989E-002   -0.86428495320940224     
   6.6299999999999998E-002   -0.93662460069215148     
   6.6600000000000006E-002   -0.98194067539234231     
   6.6900000000000001E-002   -0.99494705467047884     
   6.7199999999999996E-002   -0.97172352169456966     
   6.7500000000000004E-002   -0.90944111404404160     
   6.7800000000000013E-002   -0.80671578241197239     
   6.8099999999999994E-002   -0.66327018379330438     
   6.8400000000000002E-002   -0.48039777798453143     
   6.8700000000000011E-002   -0.26067072507965039     
   6.8999999999999992E-002    -8.5162709848103924E-003
   6.9300000000000000E-002    0.27025741676866466     
   6.9600000000000009E-002    0.56796123175347102     
   6.9900000000000004E-002    0.87553875909296774     
   7.0199999999999999E-002     1.1823884875614370     
   7.0500000000000007E-002     1.4773268807648372     
   7.0800000000000016E-002     1.7485677287604455     
   7.1099999999999997E-002     1.9848023829385770     
   7.1400000000000005E-002     2.1754580588876831     
   7.1700000000000000E-002     2.3115427850739207     
   7.1999999999999995E-002     2.3859587962419497     
   7.2300000000000003E-002     2.3939922609477788     
   7.2600000000000012E-002     2.3333443913212828     
   7.2900000000000006E-002     2.2041475899099967     
   7.3200000000000001E-002     2.0088249801710716     
   7.3499999999999996E-002     1.7519172028417094     
   7.3800000000000004E-002     1.4397946727628967     
   7.4099999999999999E-002     1.0804104874749894     
   7.4400000000000008E-002    0.68299027333339679     
   7.4700000000000003E-002    0.25795059015218147     
   7.5000000000000011E-002   -0.18319735803743345     
   7.5299999999999992E-002   -0.62812538515763139     
   7.5600000000000001E-002    -1.0635820078135529     
   7.5900000000000009E-002    -1.4759338535767375     
   7.6200000000000004E-002    -1.8511367286955220     
   7.6499999999999999E-002    -2.1756161618107450     
   7.6800000000000007E-002    -2.4363949737616579     
   7.7099999999999988E-002    -2.6223366052164718     
   7.7399999999999997E-002    -2.7243084950988945     
   7.7700000000000005E-002    -2.7364188097013118     
   7.8000000000000014E-002    -2.6560301385484939     
   7.8299999999999995E-002    -2.4847740753120151     
   7.8600000000000003E-002    -2.2280769234916420     
   7.8900000000000012E-002    -1.8954933994922447     
   7.9199999999999993E-002    -1.4998194560541258     
   7.9500000000000001E-002    -1.0569133856944399     
   7.9800000000000010E-002   -0.58433506461939844     
   8.0100000000000018E-002   -0.10075850794115737     
   8.0399999999999999E-002    0.37557038464340192     
   8.0700000000000008E-002    0.82685765287621016     
   8.1000000000000003E-002     1.2374399670880663     
   8.1299999999999997E-002     1.5935399123896297     
   8.1600000000000006E-002     1.8843263002410979     
   8.1900000000000014E-002     2.1011564934627462     
   8.2199999999999995E-002     2.2383075448952141     
   8.2500000000000004E-002     2.2921515876937004     
   8.2799999999999999E-002     2.2618109997897142     
   8.3100000000000007E-002     2.1480661392728537     
   8.3400000000000002E-002     1.9543235067412361     
   8.3700000000000011E-002     1.6856879267600453     
   8.4000000000000005E-002     1.3502160514502033     
   8.4300000000000000E-002    0.95805448576495933     
   8.4599999999999995E-002    0.52271879448586289     
   8.4900000000000003E-002     5.9893089909269420E-002
   8.5199999999999998E-002   -0.41156617260522144     
   8.5500000000000007E-002   -0.87121562772502936     
   8.5800000000000001E-002    -1.2967825646068865     
   8.6100000000000010E-002    -1.6662814105752655     
   8.6399999999999991E-002    -1.9584365168510964     
   8.6699999999999999E-002    -2.1551162209143779     
   8.7000000000000008E-002    -2.2419777569203703     
   8.7300000000000003E-002    -2.2105232425206784     
   8.7599999999999997E-002    -2.0585031220890846     
   8.7900000000000006E-002    -1.7910779933352967     
   8.8200000000000014E-002    -1.4203760208337397     
   8.8499999999999995E-002   -0.96550802353830556     
   8.8800000000000004E-002   -0.45094265145965351     
   8.9100000000000013E-002     9.4663646462721518E-002
   8.9399999999999993E-002    0.64047788368154068     
   8.9700000000000002E-002     1.1555662418428552     
   9.0000000000000011E-002     1.6109005547259954     
   9.0299999999999991E-002     1.9814297873216000     
   9.0600000000000000E-002     2.2474950342906346     
   9.0900000000000009E-002     2.3962789908978572     
   9.1200000000000017E-002     2.4220410988641046     
   9.1499999999999998E-002     2.3266574026840132     
   9.1800000000000007E-002     2.1187799845483135     
   9.2100000000000001E-002     1.8135391960396492     
   9.2399999999999996E-002     1.4306858526805342     
   9.2700000000000005E-002    0.99380978796139230     
   9.3000000000000013E-002    0.52824063726038195     
   9.3300000000000008E-002     5.9953341537287208E-002
   9.3600000000000003E-002   -0.38642017958111124     
   9.3899999999999997E-002   -0.78821927275184067     
   9.4200000000000006E-002    -1.1265866587629110     
   9.4500000000000001E-002    -1.3864727289415690     
   9.4800000000000009E-002    -1.5580169289843415     
   9.5100000000000004E-002    -1.6358333029029468     
   9.5399999999999999E-002    -1.6201006439456456     
   9.5699999999999993E-002    -1.5152960481661457     
   9.6000000000000002E-002    -1.3307837793632029     
   9.6300000000000011E-002    -1.0792286070381787     
   9.6600000000000005E-002   -0.77693194823411316     
   9.6900000000000000E-002   -0.44207196360767231     
   9.7200000000000009E-002    -9.4575249693249042E-002
   9.7499999999999989E-002    0.24546548098888243     
   9.7799999999999998E-002    0.55812065960703627     
   9.8100000000000007E-002    0.82528905486342619     
   9.8400000000000015E-002     1.0308848450782939     
   9.8699999999999996E-002     1.1622177364569206     
   9.9000000000000005E-002     1.2103348946313337     
   9.9300000000000013E-002     1.1707410007191261     
   9.9599999999999994E-002     1.0435652043827195     
   9.9900000000000003E-002    0.83363930977545375     
  0.10020000000000001         0.55054604317116285     
  0.10049999999999999         0.20781699949794141     
  0.10080000000000000        -0.17731095320950291     
  0.10110000000000001        -0.58539738852209988     
  0.10140000000000000        -0.99505046353586724     
  0.10170000000000000         -1.3849308917622642     
  0.10200000000000001         -1.7341453606241006     
  0.10230000000000002         -2.0243741675090359     
  0.10260000000000000         -2.2399200628384546     
  0.10290000000000001         -2.3696339828487734     
  0.10320000000000000         -2.4065836841690280     
  0.10350000000000001         -2.3493423004254348     
  0.10380000000000000         -2.2011745261420845     
  0.10410000000000001         -1.9705297569598113     
  0.10440000000000001         -1.6697163819403165     
  0.10470000000000000         -1.3144795566959939     
  0.10500000000000000        -0.92246242053868066     
  0.10530000000000000        -0.51228055475482370     
  0.10560000000000000        -0.10192611027511361     
  0.10590000000000001         0.29227782553175091     
  0.10620000000000000         0.65671566326597575     
  0.10650000000000001         0.98132609132798898     
  0.10679999999999999          1.2595994507804091     
  0.10710000000000000          1.4891232364003226     
  0.10740000000000001          1.6703386789413723     
  0.10770000000000000          1.8067630211887074     
  0.10800000000000000          1.9027818125311131     
  0.10830000000000001          1.9640321528445215     
  0.10859999999999999          1.9949816282538824     
  0.10890000000000000          1.9993990526647711     
  0.10920000000000001          1.9785749059628603     
  0.10950000000000001          1.9325204460982532     
  0.10979999999999999          1.8587930848400152     
  0.11009999999999999          1.7543547622255380     
  0.11040000000000001          1.6153679970093591     
  0.11070000000000001          1.4391445016453033     
  0.11100000000000000          1.2239730382960197     
  0.11130000000000000         0.97085183784346629     
  0.11160000000000002         0.68337615577351318     
  0.11190000000000001         0.36843239552427876     
  0.11220000000000001          3.5573675040695196E-002
  0.11250000000000000        -0.30339708080948569     
  0.11280000000000000        -0.63508034273892799     
  0.11309999999999999        -0.94570264530898607     
  0.11340000000000001         -1.2216526799292955     
  0.11369999999999998         -1.4511265222956209     
  0.11400000000000000         -1.6239630126374061     
  0.11430000000000000         -1.7331791761347777     
  0.11460000000000002         -1.7742479955164048     
  0.11489999999999999         -1.7461454990215621     
  0.11520000000000001         -1.6501427861450662     
  0.11550000000000001         -1.4906140666842451     
  0.11580000000000000         -1.2736813234565774     
  0.11609999999999999         -1.0076898361997007     
  0.11640000000000002        -0.70183140477948380     
  0.11670000000000001        -0.36702896647873162     
  0.11700000000000001         -1.4351122875390573E-002
  0.11730000000000000         0.34426102208468579     
  0.11760000000000000         0.69742867332677760     
  0.11789999999999999          1.0335717999603888     
  0.11820000000000001          1.3424699325074911     
  0.11850000000000001          1.6145024741255563     
  0.11880000000000000          1.8424485445145422     
  0.11910000000000000          2.0205490158820982     
  0.11940000000000002          2.1457545473279342     
  0.11970000000000001          2.2169110263390617     
  0.12000000000000001          2.2355029357762217     
  0.12030000000000000          2.2044743820145736     
  0.12060000000000000          2.1286886145471589     
  0.12089999999999999          2.0131615552084350     
  0.12119999999999999          1.8637221469172829     
  0.12150000000000001          1.6854690784698112     
  0.12180000000000001          1.4830062033438802     
  0.12210000000000000          1.2597170999416902     
  0.12239999999999999          1.0181409980274034     
  0.12270000000000002         0.75986527435500040     
  0.12300000000000001         0.48623545592765027     
  0.12330000000000001         0.19849431217270019     
  0.12360000000000000        -0.10142829983901316     
  0.12390000000000000        -0.41074450400913920     
  0.12419999999999999        -0.72543864396284863     
  0.12450000000000001         -1.0401341979659120     
  0.12480000000000001         -1.3481951024348733     
  0.12509999999999999         -1.6420924117596711     
  0.12540000000000001         -1.9139247818009959     
  0.12570000000000003         -2.1560057131486348     
  0.12600000000000000         -2.3613878875642080     
  0.12630000000000002         -2.5244182661624572     
  0.12659999999999999         -2.6411591485482617     
  0.12690000000000001         -2.7096862160840209     
  0.12719999999999998         -2.7301487392064354     
  0.12750000000000000         -2.7048641932119653     
  0.12780000000000002         -2.6378591028840832     
  0.12809999999999999         -2.5347563858998710     
  0.12840000000000001         -2.4020011949394595     
  0.12869999999999998         -2.2469168381268974     
  0.12900000000000000         -2.0767800436453419     
  0.12930000000000003         -1.8988284909310700     
  0.12959999999999999         -1.7193542859385276     
  0.12990000000000002         -1.5437146378579170     
  0.13019999999999998         -1.3759665805532328     
  0.13050000000000000         -1.2186337241843583     
  0.13080000000000003         -1.0726239930681014     
  0.13109999999999999        -0.93691074293338894     
  0.13140000000000002        -0.80915387367501679     
  0.13169999999999998        -0.68526769770964346     
  0.13200000000000001        -0.56049965423636716     
  0.13229999999999997        -0.42878152238489681     
  0.13260000000000000        -0.28484665778493184     
  0.13290000000000002        -0.12291982091861658     
  0.13319999999999999          6.0482210871546024E-002
  0.13350000000000001         0.26842040097431025     
  0.13380000000000003         0.50024646383658511     
  0.13410000000000000         0.75404075985399599     
  0.13440000000000002          1.0236181069704096     
  0.13469999999999999          1.3014825565127217     
  0.13500000000000001          1.5762530424177439     
  0.13529999999999998          1.8360843384496515     
  0.13560000000000000          2.0668248265992641     
  0.13590000000000002          2.2555320706740392     
  0.13619999999999999          2.3893209851896882     
  0.13650000000000001          2.4585105494154300     
  0.13680000000000003          2.4563104748860236     
  0.13710000000000000          2.3804634816764141     
  0.13740000000000002          2.2335797768240431     
  0.13769999999999999          2.0233134020793924     
  0.13800000000000001          1.7623890789302763     
  0.13829999999999998          1.4671709586517845     
  0.13860000000000000          1.1576832811783655     
  0.13890000000000002         0.85416608546941619     
  0.13919999999999999         0.57719722873590096     
  0.13950000000000001         0.34372749054796159     
  0.13979999999999998         0.16743364876527450     
  0.14010000000000000          5.5170324310128846E-002
  0.14040000000000002          8.2159854345452837E-003
  0.14069999999999999          1.9811373116824613E-002
  0.14100000000000001          7.8166706388063306E-002
  0.14130000000000004         0.16517944611602248     
  0.14160000000000000         0.26064124454986276     
  0.14189999999999997         0.34252775871912866     
  0.14219999999999999         0.39099545286994614     
  0.14250000000000002         0.38882244184704745     
  0.14279999999999998         0.32480442092942735     
  0.14310000000000000         0.19366847302211998     
  0.14339999999999997         -2.5011081778864158E-003
  0.14369999999999999        -0.25527241189474914     
  0.14400000000000002        -0.55046920952864697     
  0.14429999999999998        -0.86959582717219708     
  0.14460000000000001         -1.1918446185555034     
  0.14490000000000003         -1.4956711668436578     
  0.14520000000000000         -1.7609711381683231     
  0.14550000000000002         -1.9700126756320304     
  0.14579999999999999         -2.1092980234280949     
  0.14610000000000001         -2.1696025783710708     
  0.14640000000000003         -2.1466544324272059     
  0.14670000000000000         -2.0407320576914234     
  0.14699999999999996         -1.8567765382077424     
  0.14729999999999999         -1.6036306499795738     
  0.14760000000000001         -1.2931819948489123     
  0.14789999999999998        -0.94011337945424067     
  0.14820000000000000        -0.56074026822126521     