  -1.4999999999999999E-002     0.0000000000000000     
  -1.4700000000000000E-002     0.0000000000000000     
  -1.4400000000000000E-002     0.0000000000000000     
  -1.4100000000000000E-002     0.0000000000000000     
  -1.3800000000000000E-002     0.0000000000000000     
  -1.3500000000000000E-002     0.0000000000000000     
  -1.3200000000000000E-002     0.0000000000000000     
  -1.2899999999999998E-002     0.0000000000000000     
  -1.2600000000000000E-002     0.0000000000000000     
  -1.2299999999999998E-002     0.0000000000000000     
  -1.2000000000000000E-002     0.0000000000000000     
  -1.1699999999999999E-002     0.0000000000000000     
  -1.1399999999999999E-002     0.0000000000000000     
  -1.1099999999999999E-002     0.0000000000000000     
  -1.0799999999999999E-002     0.0000000000000000     
  -1.0499999999999999E-002     0.0000000000000000     
  -1.0199999999999999E-002     0.0000000000000000     
  -9.8999999999999991E-003     0.0000000000000000     
  -9.5999999999999992E-003     0.0000000000000000     
  -9.2999999999999992E-003     0.0000000000000000     
  -8.9999999999999993E-003     0.0000000000000000     
  -8.6999999999999994E-003     0.0000000000000000     
  -8.3999999999999995E-003     0.0000000000000000     
  -8.0999999999999996E-003     0.0000000000000000     
  -7.7999999999999988E-003     0.0000000000000000     
  -7.4999999999999997E-003     0.0000000000000000     
  -7.1999999999999998E-003     0.0000000000000000     
  -6.8999999999999981E-003     0.0000000000000000     
  -6.5999999999999982E-003     0.0000000000000000     
  -6.3000000000000000E-003     0.0000000000000000     
  -6.0000000000000001E-003     0.0000000000000000     
  -5.6999999999999985E-003     0.0000000000000000     
  -5.3999999999999986E-003     0.0000000000000000     
  -5.1000000000000004E-003     0.0000000000000000     
  -4.7999999999999987E-003     0.0000000000000000     
  -4.5000000000000005E-003     0.0000000000000000     
  -4.1999999999999989E-003     0.0000000000000000     
  -3.8999999999999990E-003     0.0000000000000000     
  -3.5999999999999990E-003     0.0000000000000000     
  -3.2999999999999991E-003     0.0000000000000000     
  -2.9999999999999992E-003     0.0000000000000000     
  -2.6999999999999993E-003     0.0000000000000000     
  -2.3999999999999994E-003     0.0000000000000000     
  -2.0999999999999977E-003     0.0000000000000000     
  -1.7999999999999995E-003     0.0000000000000000     
  -1.4999999999999979E-003     0.0000000000000000     
  -1.1999999999999997E-003     0.0000000000000000     
  -8.9999999999999976E-004     0.0000000000000000     
  -5.9999999999999810E-004     0.0000000000000000     
  -2.9999999999999992E-004     0.0000000000000000     
   0.0000000000000000          0.0000000000000000     
   3.0000000000000165E-004     0.0000000000000000     
   5.9999999999999984E-004     0.0000000000000000     
   9.0000000000000149E-004     0.0000000000000000     
   1.2000000000000031E-003     0.0000000000000000     
   1.5000000000000013E-003     0.0000000000000000     
   1.8000000000000030E-003     0.0000000000000000     
   2.1000000000000012E-003     0.0000000000000000     
   2.3999999999999994E-003     0.0000000000000000     
   2.7000000000000010E-003     0.0000000000000000     
   2.9999999999999992E-003     0.0000000000000000     
   3.3000000000000008E-003     0.0000000000000000     
   3.6000000000000025E-003     0.0000000000000000     
   3.9000000000000007E-003     0.0000000000000000     
   4.2000000000000023E-003     0.0000000000000000     
   4.5000000000000005E-003     0.0000000000000000     
   4.7999999999999987E-003     0.0000000000000000     
   5.1000000000000004E-003     0.0000000000000000     
   5.4000000000000020E-003     0.0000000000000000     
   5.7000000000000037E-003     0.0000000000000000     
   5.9999999999999984E-003     0.0000000000000000     
   6.3000000000000000E-003     0.0000000000000000     
   6.6000000000000017E-003     0.0000000000000000     
   6.9000000000000034E-003     0.0000000000000000     
   7.2000000000000015E-003     0.0000000000000000     
   7.5000000000000032E-003     0.0000000000000000     
   7.8000000000000014E-003     0.0000000000000000     
   8.0999999999999996E-003     0.0000000000000000     
   8.4000000000000012E-003     0.0000000000000000     
   8.7000000000000029E-003     0.0000000000000000     
   9.0000000000000011E-003     0.0000000000000000     
   9.2999999999999992E-003     0.0000000000000000     
   9.6000000000000009E-003     0.0000000000000000     
   9.8999999999999991E-003     0.0000000000000000     
   1.0200000000000001E-002     0.0000000000000000     
   1.0500000000000002E-002     0.0000000000000000     
   1.0800000000000004E-002     0.0000000000000000     
   1.1099999999999999E-002     0.0000000000000000     
   1.1400000000000000E-002     0.0000000000000000     
   1.1700000000000002E-002     0.0000000000000000     
   1.2000000000000004E-002     0.0000000000000000     
   1.2300000000000002E-002     0.0000000000000000     
   1.2600000000000000E-002     0.0000000000000000     
   1.2900000000000002E-002     0.0000000000000000     
   1.3200000000000000E-002     0.0000000000000000     
   1.3500000000000002E-002     0.0000000000000000     
   1.3800000000000003E-002     0.0000000000000000     
   1.4100000000000001E-002     0.0000000000000000     
   1.4400000000000000E-002     0.0000000000000000     
   1.4700000000000001E-002     0.0000000000000000     
   1.4999999999999999E-002     0.0000000000000000     
   1.5300000000000001E-002     0.0000000000000000     
   1.5600000000000003E-002     0.0000000000000000     
   1.5899999999999997E-002     0.0000000000000000     
   1.6199999999999999E-002     0.0000000000000000     
   1.6500000000000001E-002     0.0000000000000000     
   1.6800000000000002E-002     0.0000000000000000     
   1.7100000000000004E-002     0.0000000000000000     
   1.7400000000000006E-002     0.0000000000000000     
   1.7700000000000000E-002     0.0000000000000000     
   1.8000000000000002E-002     0.0000000000000000     
   1.8300000000000004E-002     0.0000000000000000     
   1.8600000000000005E-002     0.0000000000000000     
   1.8900000000000000E-002     0.0000000000000000     
   1.9200000000000002E-002     0.0000000000000000     
   1.9500000000000003E-002     0.0000000000000000     
   1.9799999999999998E-002     0.0000000000000000     
   2.0100000000000000E-002     0.0000000000000000     
   2.0400000000000001E-002     0.0000000000000000     
   2.0700000000000003E-002     0.0000000000000000     
   2.0999999999999998E-002     0.0000000000000000     
   2.1299999999999999E-002     0.0000000000000000     
   2.1600000000000001E-002     0.0000000000000000     
   2.1900000000000003E-002     0.0000000000000000     
   2.2200000000000004E-002     0.0000000000000000     
   2.2500000000000006E-002     0.0000000000000000     
   2.2800000000000001E-002     0.0000000000000000     
   2.3100000000000002E-002     0.0000000000000000     
   2.3400000000000004E-002     0.0000000000000000     
   2.3699999999999999E-002     0.0000000000000000     
   2.4000000000000000E-002     0.0000000000000000     
   2.4300000000000002E-002     0.0000000000000000     
   2.4599999999999997E-002     0.0000000000000000     
   2.4900000000000005E-002     0.0000000000000000     
   2.5200000000000000E-002     0.0000000000000000     
   2.5499999999999995E-002     0.0000000000000000     
   2.5800000000000003E-002     0.0000000000000000     
   2.6099999999999998E-002     0.0000000000000000     
   2.6400000000000007E-002     0.0000000000000000     
   2.6700000000000002E-002     0.0000000000000000     
   2.6999999999999996E-002     0.0000000000000000     
   2.7300000000000005E-002     0.0000000000000000     
   2.7600000000000000E-002     0.0000000000000000     
   2.7900000000000008E-002     0.0000000000000000     
   2.8200000000000003E-002     0.0000000000000000     
   2.8499999999999998E-002     0.0000000000000000     
   2.8800000000000006E-002     0.0000000000000000     
   2.9100000000000001E-002     0.0000000000000000     
   2.9400000000000003E-002     0.0000000000000000     
   2.9700000000000004E-002     0.0000000000000000     
   3.0000000000000006E-002     0.0000000000000000     
   3.0300000000000001E-002     0.0000000000000000     
   3.0600000000000002E-002     0.0000000000000000     
   3.0900000000000004E-002     0.0000000000000000     
   3.1199999999999999E-002     0.0000000000000000     
   3.1500000000000007E-002     0.0000000000000000     
   3.1800000000000002E-002     0.0000000000000000     
   3.2099999999999997E-002     0.0000000000000000     
   3.2400000000000005E-002     0.0000000000000000     
   3.2700000000000000E-002     0.0000000000000000     
   3.3000000000000002E-002     0.0000000000000000     
   3.3300000000000003E-002     0.0000000000000000     
   3.3599999999999998E-002     0.0000000000000000     
   3.3900000000000000E-002     0.0000000000000000     
   3.4200000000000001E-002     0.0000000000000000     
   3.4500000000000003E-002    -1.8316786287597623E-044
   3.4799999999999998E-002     5.6401490767822489E-043
   3.5099999999999999E-002     2.4114186275089181E-042
   3.5400000000000001E-002    -1.0050053410940356E-040
   3.5699999999999996E-002    -2.2440906481950057E-038
   3.6000000000000004E-002     3.3553037959733365E-037
   3.6299999999999999E-002     2.4519984047705945E-035
   3.6600000000000008E-002    -4.7589268609485620E-035
   3.6900000000000002E-002     4.1326787669289133E-034
   3.7199999999999997E-002     3.0304136634792064E-035
   3.7500000000000006E-002    -1.9446312699206048E-033
   3.7800000000000000E-002     8.5936313432165210E-033
   3.8100000000000009E-002    -2.5418302779414946E-032
   3.8400000000000004E-002     6.8603016575025243E-032
   3.8699999999999998E-002    -1.5906961371576739E-031
   3.9000000000000007E-002     2.3172780501266890E-031
   3.9300000000000002E-002     4.3360123627632773E-031
   3.9600000000000003E-002    -5.9654667709833717E-030
   3.9900000000000005E-002     3.5143137656818706E-029
   4.0200000000000000E-002    -1.6206435894334502E-028
   4.0500000000000001E-002     6.4882655005159571E-028
   4.0800000000000003E-002    -2.3373976100857027E-027
   4.1100000000000005E-002     7.6926146313351253E-027
   4.1399999999999999E-002    -2.3255248752387794E-026
   4.1700000000000008E-002     6.4430812809016914E-026
   4.2000000000000003E-002    -1.6135088057526609E-025
   4.2299999999999997E-002     3.5034221041894997E-025
   4.2600000000000006E-002    -5.7240330305989716E-025
   4.2900000000000001E-002     1.6766602850892891E-025
   4.3200000000000002E-002     4.0556138389375045E-024
   4.3500000000000004E-002    -2.3846512093958209E-023
   4.3799999999999999E-002     9.4142123226653307E-023
   4.4100000000000000E-002    -2.9427779437381550E-022
   4.4400000000000002E-002     7.2305462156804574E-022
   4.4700000000000004E-002    -1.1888501204446892E-021
   4.4999999999999998E-002    -4.0382298755577889E-023
   4.5300000000000000E-002     9.3427630510545852E-021
   4.5600000000000002E-002    -4.1255333848872921E-020
   4.5899999999999996E-002     1.0901378692952580E-019
   4.6200000000000005E-002    -1.5980503136309480E-019
   4.6500000000000000E-002    -1.0659554720370468E-019
   4.6799999999999994E-002     1.4486251281335868E-018
   4.7100000000000003E-002    -4.5643481385804510E-018
   4.7399999999999998E-002     6.8514087564015018E-018
   4.7700000000000006E-002     4.8476543860321802E-018
   4.8000000000000001E-002    -5.5957416195849060E-017
   4.8300000000000010E-002     1.4237470381623636E-016
   4.8600000000000004E-002    -9.7046655745449623E-017
   4.8899999999999999E-002    -5.2304886537596144E-016
   4.9200000000000008E-002     1.9194218909871312E-015
   4.9500000000000002E-002    -2.0418342478909850E-015
   4.9800000000000011E-002    -5.2396319756125370E-015
   5.0100000000000006E-002     2.2594849591644306E-014
   5.0400000000000000E-002    -2.2054551569269784E-014
   5.0700000000000009E-002    -6.8855484856706252E-014
   5.1000000000000004E-002     2.4219943346248584E-013
   5.1299999999999998E-002    -1.0142727714421325E-013
   5.1600000000000007E-002    -9.9532645016620669E-013
   5.1900000000000002E-002     2.0506692858316359E-012
   5.2200000000000010E-002     1.6594214371257208E-012
   5.2500000000000005E-002    -1.1682123712909239E-011
   5.2800000000000000E-002     6.8291841203775893E-012
   5.3099999999999994E-002     4.4668237593058652E-011
   5.3400000000000003E-002    -7.4689666091499841E-011
   5.3699999999999998E-002    -1.2832134749496188E-010
   5.4000000000000006E-002     4.1795643719112629E-010
   5.4300000000000001E-002     2.7236479702649095E-010
   5.4599999999999996E-002    -1.8814655349449670E-009
   5.4900000000000004E-002    -3.5866276041390905E-010
   5.5199999999999999E-002     7.7087998611161010E-009
   5.5499999999999994E-002     2.6931868288601203E-010
   5.5800000000000002E-002    -3.0462470140760752E-008
   5.6099999999999997E-002    -5.6438092654045320E-009
   5.6400000000000006E-002     1.1184698798685666E-007
   5.6700000000000000E-002     6.0120671922342961E-008
   5.6999999999999995E-002    -3.9382947836034130E-007
   5.7300000000000004E-002    -4.7522995787818116E-007
   5.7599999999999998E-002     1.4788109184571220E-006
   5.7900000000000007E-002     5.7984134898096953E-006
   5.8200000000000002E-002     1.0256849727873962E-005
   5.8499999999999996E-002     1.3322006256928573E-005
   5.8800000000000005E-002     1.8305357508791168E-005
   5.9100000000000000E-002     3.1139516017309165E-005
   5.9400000000000008E-002     5.3622119944949937E-005
   5.9700000000000003E-002     8.2915661622052936E-005
   6.0000000000000012E-002     1.1973409773630725E-004
   6.0300000000000006E-002     1.7346234164390627E-004
   6.0600000000000001E-002     2.5668336990557076E-004
   6.0900000000000010E-002     3.7819856532993299E-004
   6.1200000000000004E-002     5.4529470757282215E-004
   6.1500000000000013E-002     7.7115876421433773E-004
   6.1800000000000008E-002     1.0764743084965881E-003
   6.2100000000000002E-002     1.4836094461588910E-003
   6.2399999999999997E-002     2.0110726388667269E-003
   6.2700000000000006E-002     2.6739331421250226E-003
   6.3000000000000000E-002     3.4867416006024517E-003
   6.3300000000000009E-002     4.4611194566457277E-003
   6.3600000000000004E-002     5.5954101058121814E-003
   6.3899999999999998E-002     6.8627303651651057E-003
   6.4199999999999993E-002     8.2044483251706504E-003
   6.4500000000000002E-002     9.5245310177025262E-003
   6.4800000000000010E-002     1.0683647093840547E-002
   6.5100000000000005E-002     1.1490568308140775E-002
   6.5400000000000000E-002     1.1696285875620736E-002
   6.5700000000000008E-002     1.0986972397978341E-002
   6.5999999999999989E-002     8.9889716557862778E-003
   6.6299999999999998E-002     5.2898095546854429E-003
   6.6600000000000006E-002    -5.2744008950769889E-004
   6.6900000000000001E-002    -8.8542466755158339E-003
   6.7199999999999996E-002    -2.0018574043784838E-002
   6.7500000000000004E-002    -3.4228232759158692E-002
   6.7800000000000013E-002    -5.1491284066815204E-002
   6.8099999999999994E-002    -7.1542442398008388E-002
   6.8400000000000002E-002    -9.3788720877387696E-002
   6.8700000000000011E-002   -0.11727322264295829     
   6.8999999999999992E-002   -0.14065032231244384     
   6.9300000000000000E-002   -0.16217822214541108     
   6.9600000000000009E-002   -0.17976244635663341     
   6.9900000000000004E-002   -0.19105858917050003     
   7.0199999999999999E-002   -0.19362587601341510     
   7.0500000000000007E-002   -0.18510823509680346     
   7.0800000000000016E-002   -0.16344806295747530     
   7.1099999999999997E-002   -0.12710783399064840     
   7.1400000000000005E-002    -7.5318257766322769E-002
   7.1700000000000000E-002    -8.2812390926689308E-003
   7.1999999999999995E-002     7.2685194883951199E-002
   7.2300000000000003E-002    0.16505262587099692     
   7.2600000000000012E-002    0.26511730222191726     
   7.2900000000000006E-002    0.36810861038005388     
   7.3200000000000001E-002    0.46846397654599831     
   7.3499999999999996E-002    0.56012963879878130     
   7.3800000000000004E-002    0.63699985573213480     
   7.4099999999999999E-002    0.69334704000816405     
   7.4400000000000008E-002    0.72432692993511305     
   7.4700000000000003E-002    0.72637044214089874     
   7.5000000000000011E-002    0.69756138524448486     
   7.5299999999999992E-002    0.63784069727331327     
   7.5600000000000001E-002    0.54911544582972804     
   7.5900000000000009E-002    0.43512225865330856     
   7.6200000000000004E-002    0.30125381428745912     
   7.6499999999999999E-002    0.15411002562688067     
   7.6800000000000007E-002     1.0616928240633049E-003
   7.7099999999999988E-002   -0.15039829474679411     
   7.7399999999999997E-002   -0.29309560687123604     
   7.7700000000000005E-002   -0.42087962224626413     
   7.8000000000000014E-002   -0.52883901961349034     
   7.8299999999999995E-002   -0.61380302127060482     
   7.8600000000000003E-002   -0.67428680156131271     
   7.8900000000000012E-002   -0.71065126586949257     
   7.9199999999999993E-002   -0.72472486678019754     
   7.9500000000000001E-002   -0.71958257083691002     
   7.9800000000000010E-002   -0.69901524252925684     
   8.0100000000000018E-002   -0.66718997933795932     
   8.0399999999999999E-002   -0.62808275671073854     
   8.0700000000000008E-002   -0.58513719042522794     
   8.1000000000000003E-002   -0.54091762671787069     
   8.1299999999999997E-002   -0.49705938833217678     
   8.1600000000000006E-002   -0.45420534687109426     
   8.1900000000000014E-002   -0.41212784731203506     
   8.2199999999999995E-002   -0.36998553261996076     
   8.2500000000000004E-002   -0.32663968539651467     
   8.2799999999999999E-002   -0.28106015277297736     
   8.3100000000000007E-002   -0.23249374774330178     
   8.3400000000000002E-002   -0.18084389461108000     
   8.3700000000000011E-002   -0.12667988624771598     
   8.4000000000000005E-002    -7.1329017637544498E-002
   8.4300000000000000E-002    -1.6659163667590855E-002
   8.4599999999999995E-002     3.5125987042471371E-002
   8.4900000000000003E-002     8.1828096943550852E-002
   8.5199999999999998E-002    0.12156992292162591     
   8.5500000000000007E-002    0.15315374995292186     
   8.5800000000000001E-002    0.17627241658714554     
   8.6100000000000010E-002    0.19161447260466083     
   8.6399999999999991E-002    0.20086112536237202     
   8.6699999999999999E-002    0.20651851353102277     
   8.7000000000000008E-002    0.21159458419427557     
   8.7300000000000003E-002    0.21920463269908691     
   8.7599999999999997E-002    0.23219681633321243     
   8.7900000000000006E-002    0.25262857337382083     
   8.8200000000000014E-002    0.28156060956363305     
   8.8499999999999995E-002    0.31872199026449982     
   8.8800000000000004E-002    0.36259187129146947     
   8.9100000000000013E-002    0.41032976707197710     
   8.9399999999999993E-002    0.45819169427217715     
   8.9700000000000002E-002    0.50184636459171839     
   9.0000000000000011E-002    0.53691510661261266     
   9.0299999999999991E-002    0.55935738922195999     
   9.0600000000000000E-002    0.56601607560352929     
   9.0900000000000009E-002    0.55494300410172792     
   9.1200000000000017E-002    0.52568687843307604     
   9.1499999999999998E-002    0.47928681838667508     
   9.1800000000000007E-002    0.41825551486912604     
   9.2100000000000001E-002    0.34623389502340712     
   9.2399999999999996E-002    0.26772494036676486     
   9.2700000000000005E-002    0.18752332535363483     
   9.3000000000000013E-002    0.11041079820131006     
   9.3300000000000008E-002     4.0439584962748285E-002
   9.3600000000000003E-002    -1.9186526633517977E-002
   9.3899999999999997E-002    -6.6651452885181831E-002
   9.4200000000000006E-002   -0.10128929522765522     
   9.4500000000000001E-002   -0.12391998031317530     
   9.4800000000000009E-002   -0.13628291152050367     
   9.5100000000000004E-002   -0.14113411238934892     
   9.5399999999999999E-002   -0.14142921178274781     
   9.5699999999999993E-002   -0.14023515784186180     
   9.6000000000000002E-002   -0.14003535238789758     
   9.6300000000000011E-002   -0.14271713168617073     
   9.6600000000000005E-002   -0.14905435784383148     
   9.6900000000000000E-002   -0.15883045329707729     
   9.7200000000000009E-002   -0.17075486464887657     
   9.7499999999999989E-002   -0.18295529776538177     
   9.7799999999999998E-002   -0.19299818163159321     
   9.8100000000000007E-002   -0.19851195133931107     
   9.8400000000000015E-002   -0.19740187709278384     
   9.8699999999999996E-002   -0.18857655834982240     
   9.9000000000000005E-002   -0.17181572919524932     
   9.9300000000000013E-002   -0.14826824272570863     
   9.9599999999999994E-002   -0.12009569800305314     
   9.9900000000000003E-002    -9.0675224214610078E-002
  0.10020000000000001         -6.3870458976615432E-002
  0.10049999999999999         -4.3990441045561962E-002
  0.10080000000000000         -3.4842080566571912E-002
  0.10110000000000001         -3.9625453949057407E-002
  0.10140000000000000         -6.0110458354923069E-002
  0.10170000000000000         -9.6639057960623428E-002
  0.10200000000000001        -0.14756182730898221     
  0.10230000000000002        -0.20958694766226488     
  0.10260000000000000        -0.27777103751059595     
  0.10290000000000001        -0.34612324055502836     
  0.10320000000000000        -0.40795978777083319     
  0.10350000000000001        -0.45672992841551446     
  0.10380000000000000        -0.48667293096950104     
  0.10410000000000001        -0.49351856078820211     
  0.10440000000000001        -0.47496679704993172     
  0.10470000000000000        -0.43116458669512242     
  0.10500000000000000        -0.36471628058185013     
  0.10530000000000000        -0.28062194291609510     
  0.10560000000000000        -0.18579493890974874     
  0.10590000000000001         -8.8541620182677971E-002
  0.10620000000000000          2.5294555950813287E-003
  0.10650000000000001          7.9168425589806080E-002
  0.10679999999999999         0.13462695911209344     
  0.10710000000000000         0.16424106292065399     
  0.10740000000000001         0.16645434694695910     
  0.10770000000000000         0.14269460131881601     
  0.10800000000000000          9.7806388581800657E-002
  0.10830000000000001          3.9212856306600416E-002
  0.10859999999999999         -2.3186271731376967E-002
  0.10890000000000000         -7.8599764875487699E-002
  0.10920000000000001        -0.11592142288648838     
  0.10950000000000001        -0.12534798589510854     
  0.10979999999999999         -9.9037029729357490E-002
  0.11009999999999999         -3.2537002584875498E-002
  0.11040000000000001          7.5088925383308663E-002
  0.11070000000000001         0.22059613203969125     
  0.11100000000000000         0.39705253000789664     
  0.11130000000000000         0.59400265355619342     
  0.11160000000000002         0.79869304822773945     
  0.11190000000000001         0.99683255520449299     
  0.11220000000000001          1.1740013788161865     
  0.11250000000000000          1.3166968634501539     
  0.11280000000000000          1.4136407647126283     
  0.11309999999999999          1.4565013655595951     
  0.11340000000000001          1.4405670906957935     
  0.11369999999999998          1.3648990966474146     
  0.11400000000000000          1.2323912122157203     
  0.11430000000000000          1.0492079829628209     
  0.11460000000000002         0.82427082177520583     
  0.11489999999999999         0.56833502154080418     
  0.11520000000000001         0.29307040917788907     
  0.11550000000000001          1.0243065371701970E-002
  0.11580000000000000        -0.26902752154683029     
  0.11609999999999999        -0.53494559572130829     
  0.11640000000000002        -0.77955381897255827     
  0.11670000000000001        -0.99666017679334606     
  0.11700000000000001         -1.1819758935055957     
  0.11730000000000000         -1.3327807080838006     
  0.11760000000000000         -1.4479127716564026     
  0.11789999999999999         -1.5270740451578424     
  0.11820000000000001         -1.5707119835669492     
  0.11850000000000001         -1.5795579730708067     
  0.11880000000000000         -1.5547223485818205     
  0.11910000000000000         -1.4973110873225930     
  0.11940000000000002         -1.4088211645285773     
  0.11970000000000001         -1.2908947893395284     
  0.12000000000000001         -1.1458803708482268     
  0.12030000000000000        -0.97657882116041650     
  0.12060000000000000        -0.78679221223332552     
  0.12089999999999999        -0.58101920203964397     
  0.12119999999999999        -0.36465865788234580     
  0.12150000000000001        -0.14359132328597832     
  0.12180000000000001          7.5822616314937002E-002
  0.12210000000000000         0.28730443775502079     
  0.12239999999999999         0.48489845308523077     
  0.12270000000000002         0.66345346878099543     
  0.12300000000000001         0.81874100180361042     
  0.12330000000000001         0.94786934483004215     
  0.12360000000000000          1.0494010927635269     
  0.12390000000000000          1.1232040670193459     
  0.12419999999999999          1.1704956694182465     
  0.12450000000000001          1.1934047042883673     
  0.12480000000000001          1.1949695192744083     
  0.12509999999999999          1.1784295733914574     
  0.12540000000000001          1.1471780835201628     
  0.12570000000000003          1.1040721738382941     
  0.12600000000000000          1.0515033783468157     
  0.12630000000000002         0.99081386950602890     
  0.12659999999999999         0.92262501429807675     
  0.12690000000000001         0.84638745130974036     
  0.12719999999999998         0.76088592986253756     
  0.12750000000000000         0.66414170950634666     
  0.12780000000000002         0.55414346057348940     
  0.12809999999999999         0.42883350682604554     
  0.12840000000000001         0.28691935273441194     
  0.12869999999999998         0.12792162425509529     
  0.12900000000000000         -4.6983646296507961E-002
  0.12930000000000003        -0.23521816563228032     
  0.12959999999999999        -0.43202655332628193     
  0.12990000000000002        -0.63114822687625383     
  0.13019999999999998        -0.82430655352853899     
  0.13050000000000000         -1.0023500764636495     
  0.13080000000000003         -1.1551910705591961     
  0.13109999999999999         -1.2730761952422445     
  0.13140000000000002         -1.3469458700131243     
  0.13169999999999998         -1.3696997767652217     
  0.13200000000000001         -1.3366850115723090     
  0.13229999999999997         -1.2464966299323463     
  0.13260000000000000         -1.1013435243127376     
  0.13290000000000002        -0.90719272758635028     
  0.13319999999999999        -0.67369176042695922     
  0.13350000000000001        -0.41334320437141175     
  0.13380000000000003        -0.14124797822190924     
  0.13410000000000000         0.12645780285087815     
  0.13440000000000002         0.37306671800239871     
  0.13469999999999999         0.58331090311386435     
  0.13500000000000001         0.74357681904191808     
  0.13529999999999998         0.84366110762177215     
  0.13560000000000000         0.87667595113732333     
  0.13590000000000002         0.84033246507838522     
  0.13619999999999999         0.73630307503428016     
  0.13650000000000001         0.57067401568043641     
  0.13680000000000003         0.35289510859169626     
  0.13710000000000000          9.5756858394021843E-002
  0.13740000000000002        -0.18590193624350301     
  0.13769999999999999        -0.47565821660982077     
  0.13800000000000001        -0.75685883750524396     
  0.13829999999999998         -1.0131395771769522     
  0.13860000000000000         -1.2295448967596869     
  0.13890000000000002         -1.3929627369522048     
  0.13919999999999999         -1.4930683250501084     
  0.13950000000000001         -1.5225020537512755     
  0.13979999999999998         -1.4777151008198275     
  0.14010000000000000         -1.3586532426002327     
  0.14040000000000002         -1.1693564404233270     
  0.14069999999999999        -0.91733816794191725     
  0.14100000000000001        -0.61387571598176260     
  0.14130000000000004        -0.27290878276656083     
  0.14160000000000000          8.8994261728457869E-002
  0.14189999999999997         0.45413320877748586     
  0.14219999999999999         0.80382750410316206     
  0.14250000000000002          1.1204840842705459     
  0.14279999999999998          1.3876672965268291     
  0.14310000000000000          1.5920462126775621     
  0.14339999999999997          1.7233898725823147     
  0.14369999999999999          1.7761812019534782     
  0.14400000000000002          1.7491797154626594     
  0.14429999999999998          1.6463233597839899     
  0.14460000000000001          1.4758554238010013     
  0.14490000000000003          1.2502324909468088     
  0.14520000000000000         0.98496372718293124     
  0.14550000000000002         0.69783486411244811     
  0.14579999999999999         0.40746235082443799     
  0.14610000000000001         0.13215498838700682     
  0.14640000000000003        -0.11142732060039223     
  0.14670000000000000        -0.30920726126142084     
  0.14699999999999996        -0.45070461502181514     
  0.14729999999999999        -0.52946094960479140     
  0.14760000000000001        -0.54350122918395394     
  0.14789999999999998        -0.49495744144021614     
  0.14820000000000000        -0.39012440029011031     