  -1.4999999999999999E-002     0.0000000000000000     
  -1.4700000000000000E-002     0.0000000000000000     
  -1.4400000000000000E-002     0.0000000000000000     
  -1.4100000000000000E-002     0.0000000000000000     
  -1.3800000000000000E-002     0.0000000000000000     
  -1.3500000000000000E-002     0.0000000000000000     
  -1.3200000000000000E-002     0.0000000000000000     
  -1.2899999999999998E-002     0.0000000000000000     
  -1.2600000000000000E-002     0.0000000000000000     
  -1.2299999999999998E-002    -6.6448030870173057E-036
  -1.2000000000000000E-002    -1.7659614517827945E-035
  -1.1699999999999999E-002     1.9517968989956990E-033
  -1.1399999999999999E-002    -1.4271573473072810E-032
  -1.1099999999999999E-002    -1.4859785317192227E-031
  -1.0799999999999999E-002     1.3505668185133278E-030
  -1.0499999999999999E-002     4.1059741936664683E-030
  -1.0199999999999999E-002    -5.4592280302249614E-029
  -9.8999999999999991E-003    -1.8859997259093457E-029
  -9.5999999999999992E-003     1.1246766653777965E-027
  -9.2999999999999992E-003    -9.0865338912807803E-028
  -8.9999999999999993E-003    -1.3717352073216673E-026
  -8.6999999999999994E-003     1.7508402505253846E-026
  -8.3999999999999995E-003     1.1623734904480119E-025
  -8.0999999999999996E-003    -1.4393596858264382E-025
  -7.7999999999999988E-003    -8.2431469132581596E-025
  -7.4999999999999997E-003     6.8890836338340372E-025
  -7.1999999999999998E-003     5.1249658914959401E-024
  -6.8999999999999981E-003    -1.3525234849444504E-024
  -6.5999999999999982E-003    -2.7817802139062734E-023
  -6.3000000000000000E-003    -6.6652763759760640E-024
  -6.0000000000000001E-003     1.2453399584477608E-022
  -5.6999999999999985E-003     6.2934932959145393E-023
  -5.3999999999999986E-003    -3.3907854787331296E-022
  -5.1000000000000004E-003    -5.2248538510343615E-022
  -4.7999999999999987E-003     6.1458595880508565E-022
  -4.5000000000000005E-003     2.2265660199491642E-021
  -4.1999999999999989E-003     9.5959113572483981E-027
  -3.8999999999999990E-003    -2.4854501093450983E-021
  -3.5999999999999990E-003    -1.4714132150492067E-020
  -3.2999999999999991E-003    -3.8834808870945727E-021
  -2.9999999999999992E-003     7.1815229921875233E-020
  -2.6999999999999993E-003     3.8370560871765372E-020
  -2.3999999999999994E-003    -1.7576313848057915E-019
  -2.0999999999999977E-003    -2.1604109011659077E-019
  -1.7999999999999995E-003     3.5497750706682153E-019
  -1.4999999999999979E-003     3.1102814670092151E-019
  -1.1999999999999997E-003    -1.1027053968630582E-019
  -8.9999999999999976E-004     1.2585492667232032E-018
  -5.9999999999999810E-004    -3.5789716827031362E-018
  -2.9999999999999992E-004    -5.6803523779309196E-018
   0.0000000000000000          1.3813867158136495E-017
   3.0000000000000165E-004     7.7139633522815500E-018
   5.9999999999999984E-004    -1.5743565488547398E-017
   9.0000000000000149E-004     6.1284239989494695E-018
   1.2000000000000031E-003    -5.4008330445360817E-017
   1.5000000000000013E-003    -2.4563839552078588E-017
   1.8000000000000030E-003     2.8270117951206618E-016
   2.1000000000000012E-003    -1.0520360731449670E-016
   2.3999999999999994E-003    -5.1636750030644338E-016
   2.7000000000000010E-003     8.0990851857576967E-016
   2.9999999999999992E-003    -2.1886545313902129E-016
   3.3000000000000008E-003    -2.6162168613617659E-015
   3.6000000000000025E-003     4.0558829368278911E-015
   3.9000000000000007E-003     5.1926936338497577E-015
   4.2000000000000023E-003    -1.3275048574783843E-014
   4.5000000000000005E-003    -5.1332072365660752E-015
   4.7999999999999987E-003     2.7577324719522420E-014
   5.1000000000000004E-003    -7.1842756130519286E-015
   5.4000000000000020E-003    -4.2012988393329399E-014
   5.7000000000000037E-003     4.8233203972082210E-014
   5.9999999999999984E-003     5.0214064476204804E-014
   6.3000000000000000E-003    -1.3175595072450366E-013
   6.6000000000000017E-003    -5.2815233639481594E-014
   6.9000000000000034E-003     2.4453947217187442E-013
   7.2000000000000015E-003     5.8947302881259840E-014
   7.5000000000000032E-003    -3.2906367270800881E-013
   7.8000000000000014E-003    -6.7896767131686912E-014
   8.0999999999999996E-003     3.3326441560576281E-013
   8.4000000000000012E-003     5.2118118284536860E-014
   8.7000000000000029E-003    -3.6091746396781008E-013
   9.0000000000000011E-003    -1.2999380896041107E-014
   9.2999999999999992E-003     7.8758576488454881E-013
   9.6000000000000009E-003     1.4391887362026008E-013
   9.8999999999999991E-003    -2.0476797082942966E-012
   1.0200000000000001E-002    -9.2176055373708308E-013
   1.0500000000000002E-002     4.0797231103081476E-012
   1.0800000000000004E-002     2.7525722424247566E-012
   1.1099999999999999E-002    -6.2465313563794071E-012
   1.1400000000000000E-002    -5.1065731509404849E-012
   1.1700000000000002E-002     8.8112783222282246E-012
   1.2000000000000004E-002     5.9353548447664102E-012
   1.2300000000000002E-002    -1.5084555523406385E-011
   1.2600000000000000E-002    -2.4243850744099604E-012
   1.2900000000000002E-002     3.0104571675138509E-011
   1.3200000000000000E-002    -7.2814345904761242E-012
   1.3500000000000002E-002    -5.2516028307963566E-011
   1.3800000000000003E-002     2.2763579713195149E-011
   1.4100000000000001E-002     6.6263232606965350E-011
   1.4400000000000000E-002    -3.7885715145855787E-011
   1.4700000000000001E-002    -5.8352018698965652E-011
   1.4999999999999999E-002     2.3158311571214821E-011
   1.5300000000000001E-002     1.3528956733617325E-010
   1.5600000000000003E-002     1.4475748142875657E-010
   1.5899999999999997E-002    -9.8930510181187405E-010
   1.6199999999999999E-002    -1.0458568782562076E-009
   1.6500000000000001E-002     5.6001913858254805E-009
   1.6800000000000002E-002     5.9590212606351124E-009
   1.7100000000000004E-002    -2.4770594263044931E-008
   1.7400000000000006E-002    -3.5535866056733749E-008
   1.7700000000000000E-002     8.0700377980504765E-008
   1.8000000000000002E-002     1.7627435332615447E-007
   1.8300000000000004E-002    -1.9879460155897341E-007
   1.8600000000000005E-002    -7.8774876271758763E-007
   1.8900000000000000E-002     5.1156090182147600E-007
   1.9200000000000002E-002     6.5638478584807229E-006
   1.9500000000000003E-002     1.7905976453079586E-005
   1.9799999999999998E-002     3.1687050021852881E-005
   2.0100000000000000E-002     4.4739601019804488E-005
   2.0400000000000001E-002     5.6935169682930456E-005
   2.0700000000000003E-002     7.1222507075157393E-005
   2.0999999999999998E-002     9.3211394658688812E-005
   2.1299999999999999E-002     1.3276299315515881E-004
   2.1600000000000001E-002     2.0149184304456399E-004
   2.1900000000000003E-002     3.0196783336178739E-004
   2.2200000000000004E-002     4.2126561168652742E-004
   2.2500000000000006E-002     5.4484015343025320E-004
   2.2800000000000001E-002     6.7873631652723670E-004
   2.3100000000000002E-002     8.4585976610097673E-004
   2.3400000000000004E-002     1.0485242690733395E-003
   2.3699999999999999E-002     1.2364040148405480E-003
   2.4000000000000000E-002     1.3135083852776005E-003
   2.4300000000000002E-002     1.1624371040119190E-003
   2.4599999999999997E-002     6.4146123004378075E-004
   2.4900000000000005E-002    -4.4653565266130008E-004
   2.5200000000000000E-002    -2.3815237311053260E-003
   2.5499999999999995E-002    -5.5435762860950640E-003
   2.5800000000000003E-002    -1.0433105180016864E-002
   2.6099999999999998E-002    -1.7676051708311838E-002
   2.6400000000000007E-002    -2.7986442525642072E-002
   2.6700000000000002E-002    -4.2111032883290364E-002
   2.6999999999999996E-002    -6.0800929268834104E-002
   2.7300000000000005E-002    -8.4783841801096924E-002
   2.7600000000000000E-002   -0.11466210497083010     
   2.7900000000000008E-002   -0.15073358543650262     
   2.8200000000000003E-002   -0.19281292192741092     
   2.8499999999999998E-002   -0.24009000891254875     
   2.8800000000000006E-002   -0.29098459725874631     
   2.9100000000000001E-002   -0.34297230402436668     
   2.9400000000000003E-002   -0.39244602450881289     
   2.9700000000000004E-002   -0.43469871065158089     
   3.0000000000000006E-002   -0.46395591800117791     
   3.0300000000000001E-002   -0.47360365649439495     
   3.0600000000000002E-002   -0.45648516878992801     
   3.0900000000000004E-002   -0.40542430714474043     
   3.1199999999999999E-002   -0.31384519223109014     
   3.1500000000000007E-002   -0.17652220271554794     
   3.1800000000000002E-002     9.6415381604423311E-003
   3.2099999999999997E-002    0.24480079641901747     
   3.2400000000000005E-002    0.52543415309950947     
   3.2700000000000000E-002    0.84379531746697856     
   3.3000000000000002E-002     1.1876640916338457     
   3.3300000000000003E-002     1.5405188811559776     
   3.3599999999999998E-002     1.8820274310993448     
   3.3900000000000000E-002     2.1890506522546564     
   3.4200000000000001E-002     2.4368735199723823     
   3.4500000000000003E-002     2.6010508287270899     
   3.4799999999999998E-002     2.6593142302530501     
   3.5099999999999999E-002     2.5937041808196746     
   3.5400000000000001E-002     2.3924904562979106     
   3.5699999999999996E-002     2.0517669587271539     
   3.6000000000000004E-002     1.5766323714814106     
   3.6299999999999999E-002    0.98183340076569570     
   3.6600000000000008E-002    0.29139612179600693     
   3.6900000000000002E-002   -0.46186859314044670     
   3.7199999999999997E-002    -1.2388987147472694     
   3.7500000000000006E-002    -1.9958958488986174     
   3.7800000000000000E-002    -2.6881200162416734     
   3.8100000000000009E-002    -3.2721372554187322     
   3.8400000000000004E-002    -3.7100290849184803     
   3.8699999999999998E-002    -3.9713840439466059     
   3.9000000000000007E-002    -4.0367698120529028     
   3.9300000000000002E-002    -3.8984595900713908     
   3.9600000000000003E-002    -3.5623612661984962     
   3.9900000000000005E-002    -3.0468657860510606     
   4.0200000000000000E-002    -2.3826290921266464     
   4.0500000000000001E-002    -1.6098758773778574     
   4.0800000000000003E-002   -0.77639172731514083     
   4.1100000000000005E-002     6.6307159613250427E-002
   4.1399999999999999E-002    0.86610485073390409     
   4.1700000000000008E-002     1.5741400598882380     
   4.2000000000000003E-002     2.1475766913048080     
   4.2299999999999997E-002     2.5526649927525877     
   4.2600000000000006E-002     2.7665502584499602     
   4.2900000000000001E-002     2.7787299596097714     
   4.3200000000000002E-002     2.5914122767398773     
   4.3500000000000004E-002     2.2188442493163234     
   4.3799999999999999E-002     1.6864387120037603     
   4.4100000000000000E-002     1.0285261725350643     
   4.4400000000000002E-002    0.28652326583776022     
   4.4700000000000004E-002   -0.49440393831586371     
   4.4999999999999998E-002    -1.2675190766305053     
   4.5300000000000000E-002    -1.9881074707426005     
   4.5600000000000002E-002    -2.6155403691554797     
   4.5899999999999996E-002    -3.1165823088556039     
   4.6200000000000005E-002    -3.4663581460948705     
   4.6500000000000000E-002    -3.6511609854754781     
   4.6799999999999994E-002    -3.6678859447219296     
   4.7100000000000003E-002    -3.5253667387794700     
   4.7399999999999998E-002    -3.2423655292971167     
   4.7700000000000006E-002    -2.8473161096377919     
   4.8000000000000001E-002    -2.3748870463497123     
   4.8300000000000010E-002    -1.8639855957155107     
   4.8600000000000004E-002    -1.3534064697429387     
   4.8899999999999999E-002   -0.87928321506596585     
   4.9200000000000008E-002   -0.47103972582251363     
   4.9500000000000002E-002   -0.14913403497526018     
   4.9800000000000011E-002     7.7478037374528769E-002
   5.0100000000000006E-002    0.21181613154901610     
   5.0400000000000000E-002    0.26898695328055405     
   5.0700000000000009E-002    0.27410615576015596     
   5.1000000000000004E-002    0.26006853447203038     
   5.1299999999999998E-002    0.26333060937797809     
   5.1600000000000007E-002    0.32040188321825319     
   5.1900000000000002E-002    0.46254120940124188     
   5.2200000000000010E-002    0.71329866958028931     
   5.2500000000000005E-002     1.0835328139568425     
   5.2800000000000000E-002     1.5720173398180035     
   5.3099999999999994E-002     2.1629539712231769     
   5.3400000000000003E-002     2.8292693079190618     
   5.3699999999999998E-002     3.5336067581265795     
   5.4000000000000006E-002     4.2331470304676726     
   5.4300000000000001E-002     4.8833301284653938     
   5.4599999999999996E-002     5.4427060511162635     
   5.4900000000000004E-002     5.8769710358165881     
   5.5199999999999999E-002     6.1617211834087717     
   5.5499999999999994E-002     6.2847006348320011     
   5.5800000000000002E-002     6.2454050677608599     
   5.6099999999999997E-002     6.0549461061465406     
   5.6400000000000006E-002     5.7325650819210026     
   5.6700000000000000E-002     5.3036308283215110     
   5.6999999999999995E-002     4.7950374781587506     
   5.7300000000000004E-002     4.2326089500011292     
   5.7599999999999998E-002     3.6376128714184306     
   5.7900000000000007E-002     3.0257477051754367     
   5.8200000000000002E-002     2.4060119716559689     
   5.8499999999999996E-002     1.7815682681926979     
   5.8800000000000005E-002     1.1516625484685226     
   5.9100000000000000E-002    0.51375265081314814     
   5.9400000000000008E-002   -0.13307649612377831     
   5.9700000000000003E-002   -0.78633407458055127     
   6.0000000000000012E-002    -1.4372656245307485     
   6.0300000000000006E-002    -2.0708643509907052     
   6.0600000000000001E-002    -2.6648259195446427     
   6.0900000000000010E-002    -3.1928405996201263     
   6.1200000000000004E-002    -3.6252258855814983     
   6.1500000000000013E-002    -3.9338233118251775     
   6.1800000000000008E-002    -4.0949070425041487     
   6.2100000000000002E-002    -4.0925277523194179     
   6.2399999999999997E-002    -3.9229139310288135     
   6.2700000000000006E-002    -3.5945831077180674     
   6.3000000000000000E-002    -3.1312698305579159     
   6.3300000000000009E-002    -2.5699079324219420     
   6.3600000000000004E-002    -1.9607170380748142     
   6.3899999999999998E-002    -1.3623303258736876     
   6.4199999999999993E-002   -0.84012937568375601     
   6.4500000000000002E-002   -0.45946562090563170     
   6.4800000000000010E-002   -0.28343334553717925     
   6.5100000000000005E-002   -0.36419731312138187     
   6.5400000000000000E-002   -0.74154888282678910     
   6.5700000000000008E-002    -1.4341649079658236     
   6.5999999999999989E-002    -2.4389129771192941     
   6.6299999999999998E-002    -3.7232863879012617     
   6.6600000000000006E-002    -5.2271440172451920     
   6.6900000000000001E-002    -6.8581586000486636     
   6.7199999999999996E-002    -8.4975722835061909     
   6.7500000000000004E-002    -10.000787260569917     
   6.7800000000000013E-002    -11.208940471445983     
   6.8099999999999994E-002    -11.955694146717578     
   6.8400000000000002E-002    -12.084977091992961     
   6.8700000000000011E-002    -11.462417477269749     
   6.8999999999999992E-002    -9.9952973035085861     
   6.9300000000000000E-002    -7.6444803916594211     
   6.9600000000000009E-002    -4.4402984853614829     
   6.9900000000000004E-002   -0.48711093557396024     
   7.0199999999999999E-002     4.0320101285078511     
   7.0500000000000007E-002     8.8643105317863693     
   7.0800000000000016E-002     13.698367530992970     
   7.1099999999999997E-002     18.187621362005327     
   7.1400000000000005E-002     21.974604157253470     
   7.1700000000000000E-002     24.723358822999725     
   7.1999999999999995E-002     26.148714478908012     
   7.2300000000000003E-002     26.045115577026710     
   7.2600000000000012E-002     24.308591151288425     
   7.2900000000000006E-002     20.951310396969490     
   7.3200000000000001E-002     16.104959293885397     
   7.3499999999999996E-002     10.013856571820618     
   7.3800000000000004E-002     3.0189608418352538     
   7.4099999999999999E-002    -4.4700034434473714     
   7.4400000000000008E-002    -12.003325641871207     
   7.4700000000000003E-002    -19.130561449837717     
   7.5000000000000011E-002    -25.429269376866188     
   7.5299999999999992E-002    -30.540867536969387     
   7.5600000000000001E-002    -34.189815812394919     
   7.5900000000000009E-002    -36.203007765067362     
   7.6200000000000004E-002    -36.512050486624929     
   7.6499999999999999E-002    -35.152841281763017     
   7.6800000000000007E-002    -32.251943919061638     
   7.7099999999999988E-002    -28.011622268015977     
   7.7399999999999997E-002    -22.685636993192393     
   7.7700000000000005E-002    -16.561750198609847     
   7.8000000000000014E-002    -9.9351077324741812     
   7.8299999999999995E-002    -3.0942376066234898     
   7.8600000000000003E-002     3.6943214706234597     
   7.8900000000000012E-002     10.194449969700262     
   7.9199999999999993E-002     16.207813623922668     
   7.9500000000000001E-002     21.569636570991857     
   7.9800000000000010E-002     26.154348866854313     
   8.0100000000000018E-002     29.864553178454706     
   8.0399999999999999E-002     32.636587177670918     
   8.0700000000000008E-002     34.428857921265276     
   8.1000000000000003E-002     35.229352058926899     
   8.1299999999999997E-002     35.046130797562327     
   8.1600000000000006E-002     33.916694065974120     
   8.1900000000000014E-002     31.898841666644195     
   8.2199999999999995E-002     29.080238163728687     
   8.2500000000000004E-002     25.568429762247749     
   8.2799999999999999E-002     21.496710176927863     
   8.3100000000000007E-002     17.011703900023583     
   8.3400000000000002E-002     12.275570735510929     
   8.3700000000000011E-002     7.4515492572088462     
   8.4000000000000005E-002     2.7043468564459054     
   8.4300000000000000E-002    -1.8169983510577019     
   8.4599999999999995E-002    -5.9753151016137469     
   8.4900000000000003E-002    -9.6630177572139040     
   8.5199999999999998E-002    -12.794393244238032     
   8.5500000000000007E-002    -15.320820772255036     
   8.5800000000000001E-002    -17.219021166895814     
   8.6100000000000010E-002    -18.501202553642429     
   8.6399999999999991E-002    -19.202402743608651     
   8.6699999999999999E-002    -19.384346029420897     
   8.7000000000000008E-002    -19.123567618960728     
   8.7300000000000003E-002    -18.509460348670100     
   8.7599999999999997E-002    -17.635090356910016     
   8.7900000000000006E-002    -16.591656120175994     
   8.8200000000000014E-002    -15.463007856875432     
   8.8499999999999995E-002    -14.319286305501377     
   8.8800000000000004E-002    -13.214437425869699     
   8.9100000000000013E-002    -12.182046804016764     
   8.9399999999999993E-002    -11.237957595174064     
   8.9700000000000002E-002    -10.376752428053473     
   9.0000000000000011E-002    -9.5791297324947955     
   9.0299999999999991E-002    -8.8107040420332687     
   9.0600000000000000E-002    -8.0321118973148060     
   9.0900000000000009E-002    -7.1982619551985039     
   9.1200000000000017E-002    -6.2690103143547988     
   9.1499999999999998E-002    -5.2093121050999081     
   9.1800000000000007E-002    -3.9973456878133780     
   9.2100000000000001E-002    -2.6220435069567465     
   9.2399999999999996E-002    -1.0912609482646871     
   9.2700000000000005E-002    0.57507334547455025     
   9.3000000000000013E-002     2.3389066803629648     
   9.3300000000000008E-002     4.1530148090208883     
   9.3600000000000003E-002     5.9575384900989166     
   9.3899999999999997E-002     7.6891945838960494     
   9.4200000000000006E-002     9.2804589240103805     
   9.4500000000000001E-002     10.669628372364265     
   9.4800000000000009E-002     11.797590176310436     
   9.5100000000000004E-002     12.619455416221673     
   9.5399999999999999E-002     13.100386048599304     
   9.5699999999999993E-002     13.224974121595801     
   9.6000000000000002E-002     12.991124147826785     
   9.6300000000000011E-002     12.417559073898243     
   9.6600000000000005E-002     11.536042556210324     
   9.6900000000000000E-002     10.396449306721584     
   9.7200000000000009E-002     9.0560924301969692     
   9.7499999999999989E-002     7.5837902843809211     
   9.7799999999999998E-002     6.0484620956374169     
   9.8100000000000007E-002     4.5217384339140656     
   9.8400000000000015E-002     3.0673407771003975     
   9.8699999999999996E-002     1.7433330579950246     
   9.9000000000000005E-002    0.59363734141051494     
   9.9300000000000013E-002   -0.34876036175335745     
   9.9599999999999994E-002    -1.0684815629752826     
   9.9900000000000003E-002    -1.5622076507557128     
  0.10020000000000001         -1.8445569497705172     
  0.10049999999999999         -1.9393295312766266     
  0.10080000000000000         -1.8846832411124206     
  0.10110000000000001         -1.7227729358508805     
  0.10140000000000000         -1.5041406472023118     
  0.10170000000000000         -1.2767027131109954     
  0.10200000000000001         -1.0894565101730829     
  0.10230000000000002        -0.98198549390089340     
  0.10260000000000000        -0.98916451294470886     
  0.10290000000000001         -1.1303695069708182     
  0.10320000000000000         -1.4165301053402204     
  0.10350000000000001         -1.8407522952395228     
  0.10380000000000000         -2.3867420937090276     
  0.10410000000000001         -3.0217355235412855     
  0.10440000000000001         -3.7066626116515557     
  0.10470000000000000         -4.3913962341076109     
  0.10500000000000000         -5.0261161556260756     
  0.10530000000000000         -5.5567274378336817     
  0.10560000000000000         -5.9388501906220430     
  0.10590000000000001         -6.1315642191488982     
  0.10620000000000000         -6.1115296640818748     
  0.10650000000000001         -5.8641654531578649     
  0.10679999999999999         -5.3968649398692179     
  0.10710000000000000         -4.7277287005717250     
  0.10740000000000001         -3.8959753450580177     
  0.10770000000000000         -2.9463009104424898     
  0.10800000000000000         -1.9390035181292018     
  0.10830000000000001        -0.93195144899588844     
  0.10859999999999999          1.1954931665684954E-002
  0.10890000000000000         0.84204633773367865     
  0.10920000000000001          1.5126520060668283     
  0.10950000000000001          1.9971950783003951     
  0.10979999999999999          2.2814011504610883     
  0.11009999999999999          2.3714057185933037     
  0.11040000000000001          2.2864960867245880     
  0.11070000000000001          2.0610584166556949     
  0.11100000000000000          1.7385056371444574     
  0.11130000000000000          1.3666489148583918     
  0.11160000000000002         0.99508870153195539     
  0.11190000000000001         0.66732667259589540     
  0.11220000000000001         0.42108447910710756     
  0.11250000000000000         0.27994484378749190     
  0.11280000000000000         0.25967970122987993     
  0.11309999999999999         0.35862497734078591     
  0.11340000000000001         0.56823597674850745     
  0.11369999999999998         0.86613832349115172     
  0.11400000000000000          1.2275552198461410     
  0.11430000000000000          1.6191329623844524     
  0.11460000000000002          2.0101885947855922     
  0.11489999999999999          2.3674898275424647     
  0.11520000000000001          2.6645034517657997     
  0.11550000000000001          2.8759664409528618     
  0.11580000000000000          2.9856311748033524     
  0.11609999999999999          2.9800653459988991     
  0.11640000000000002          2.8555973011207167     
  0.11670000000000001          2.6111674648379264     
  0.11700000000000001          2.2560142707375967     
  0.11730000000000000          1.8014477292864974     
  0.11760000000000000          1.2684558715061269     
  0.11789999999999999         0.67804318299179056     
  0.11820000000000001          6.0934684795500793E-002
  0.11850000000000001        -0.55603530379572363     
  0.11880000000000000         -1.1373369301401961     
  0.11910000000000000         -1.6559856708906853     
  0.11940000000000002         -2.0793927462912847     
  0.11970000000000001         -2.3879128588059442     
  0.12000000000000001         -2.5594306718279825     
  0.12030000000000000         -2.5891539940754211     
  0.12060000000000000         -2.4713397934549857     
  0.12089999999999999         -2.2190372547271964     
  0.12119999999999999         -1.8449389322224672     
  0.12150000000000001         -1.3791187097479682     
  0.12180000000000001        -0.84867578310948466     
  0.12210000000000000        -0.29398834180138811     
  0.12239999999999999         0.25128431000023499     
  0.12270000000000002         0.74594357992919669     
  0.12300000000000001          1.1600256029246139     
  0.12330000000000001          1.4620816927776175     
  0.12360000000000000          1.6350749909333677     
  0.12390000000000000          1.6646571541827087     
  0.12419999999999999          1.5526456655600565     
  0.12450000000000001          1.3049671205919398     
  0.12480000000000001         0.94214060220092533     
  0.12509999999999999         0.48783684245683911     
  0.12540000000000001         -2.3723395559433036E-002
  0.12570000000000003        -0.55904199751842776     
  0.12600000000000000         -1.0795023207377334     
  0.12630000000000002         -1.5514654221575965     
  0.12659999999999999         -1.9418771242301693     
  0.12690000000000001         -2.2268245117752636     
  0.12719999999999998         -2.3874072740359740     
  0.12750000000000000         -2.4152854728524460     
  0.12780000000000002         -2.3096940756093098     
  0.12809999999999999         -2.0795179907008241     
  0.12840000000000001         -1.7412499215481620     
  0.12869999999999998         -1.3177935363594551     
  0.12900000000000000        -0.83758830929799899     
  0.12930000000000003        -0.33053583885824978     
  0.12959999999999999         0.17065353639349873     
  0.12990000000000002         0.63739386330195424     
  0.13019999999999998          1.0413433412178503     
  0.13050000000000000          1.3631775961122139     
  0.13080000000000003          1.5857350604644540     
  0.13109999999999999          1.7036773948207162     
  0.13140000000000002          1.7146451718039075     
  0.13169999999999998          1.6288215498145908     
  0.13200000000000001          1.4575257497158776     
  0.13229999999999997          1.2228314851955004     
  0.13260000000000000         0.94473893382790441     
  0.13290000000000002         0.65075356925917927     
  0.13319999999999999         0.36205647481658737     
  0.13350000000000001         0.10426675533039148     
  0.13380000000000003        -0.10702857252567277     
  0.13410000000000000        -0.25438858321544700     
  0.13440000000000002        -0.33272429407238796     
  0.13469999999999999        -0.33558699544034321     
  0.13500000000000001        -0.26931008726080158     
  0.13529999999999998        -0.13821117705171324     
  0.13560000000000000          4.1737399758400948E-002
  0.13590000000000002         0.25849144627531662     
  0.13619999999999999         0.49022618644017490     
  0.13650000000000001         0.72171470482942990     
  0.13680000000000003         0.93031169383072854     
  0.13710000000000000          1.1018405130997413     
  0.13740000000000002          1.2183491787615559     
  0.13769999999999999          1.2712489010225752     
  0.13800000000000001          1.2504559122564085     
  0.13829999999999998          1.1563231044459445     
  0.13860000000000000         0.98942676128536888     
  0.13890000000000002         0.75945724987806829     
  0.13919999999999999         0.47710385002990918     
  0.13950000000000001         0.15978561852322287     
  0.13979999999999998        -0.17517724707422558     
  0.14010000000000000        -0.50730889470767893     
  0.14040000000000002        -0.81818301661660187     
  0.14069999999999999         -1.0893012442644145     
  0.14100000000000001         -1.3062111756607291     
  0.14130000000000004         -1.4572047946509024     
  0.14160000000000000         -1.5360405519978995     
  0.14189999999999997         -1.5400472834507126     
  0.14219999999999999         -1.4723595255706514     
  0.14250000000000002         -1.3385239081212423     
  0.14279999999999998         -1.1496250242403363     
  0.14310000000000000        -0.91816890056914091     
  0.14339999999999997        -0.66006726163265461     
  0.14369999999999999        -0.39074233645399936     
  0.14400000000000002        -0.12754354920185215     
  0.14429999999999998         0.11464639240563887     
  0.14460000000000001         0.32131308185817359     
  0.14490000000000003         0.48147334758620342     
  0.14520000000000000         0.58668134755771184     
  0.14550000000000002         0.63288452496786773     
  0.14579999999999999         0.61980525471991388     
  0.14610000000000001         0.55124919834919528     
  0.14640000000000003         0.43558192638000059     
  0.14670000000000000         0.28274751671126408     
  0.14699999999999996         0.10720251924227833     
  0.14729999999999999         -7.7343515671323498E-002
  0.14760000000000001        -0.25470869338157698     
  0.14789999999999998        -0.41254258999674898     
  0.14820000000000000        -0.53726934699285966     