  -1.4999999999999999E-002     0.0000000000000000     
  -1.4700000000000000E-002     0.0000000000000000     
  -1.4400000000000000E-002     0.0000000000000000     
  -1.4100000000000000E-002     0.0000000000000000     
  -1.3800000000000000E-002     0.0000000000000000     
  -1.3500000000000000E-002     0.0000000000000000     
  -1.3200000000000000E-002     0.0000000000000000     
  -1.2899999999999998E-002     0.0000000000000000     
  -1.2600000000000000E-002     0.0000000000000000     
  -1.2299999999999998E-002     0.0000000000000000     
  -1.2000000000000000E-002     0.0000000000000000     
  -1.1699999999999999E-002     0.0000000000000000     
  -1.1399999999999999E-002     0.0000000000000000     
  -1.1099999999999999E-002     0.0000000000000000     
  -1.0799999999999999E-002     0.0000000000000000     
  -1.0499999999999999E-002     0.0000000000000000     
  -1.0199999999999999E-002     0.0000000000000000     
  -9.8999999999999991E-003     0.0000000000000000     
  -9.5999999999999992E-003     0.0000000000000000     
  -9.2999999999999992E-003     0.0000000000000000     
  -8.9999999999999993E-003     0.0000000000000000     
  -8.6999999999999994E-003     0.0000000000000000     
  -8.3999999999999995E-003     0.0000000000000000     
  -8.0999999999999996E-003     0.0000000000000000     
  -7.7999999999999988E-003     0.0000000000000000     
  -7.4999999999999997E-003     0.0000000000000000     
  -7.1999999999999998E-003     0.0000000000000000     
  -6.8999999999999981E-003     0.0000000000000000     
  -6.5999999999999982E-003     0.0000000000000000     
  -6.3000000000000000E-003     0.0000000000000000     
  -6.0000000000000001E-003     0.0000000000000000     
  -5.6999999999999985E-003     0.0000000000000000     
  -5.3999999999999986E-003     0.0000000000000000     
  -5.1000000000000004E-003     0.0000000000000000     
  -4.7999999999999987E-003     0.0000000000000000     
  -4.5000000000000005E-003     0.0000000000000000     
  -4.1999999999999989E-003     0.0000000000000000     
  -3.8999999999999990E-003     0.0000000000000000     
  -3.5999999999999990E-003     0.0000000000000000     
  -3.2999999999999991E-003     0.0000000000000000     
  -2.9999999999999992E-003     0.0000000000000000     
  -2.6999999999999993E-003     0.0000000000000000     
  -2.3999999999999994E-003     0.0000000000000000     
  -2.0999999999999977E-003     0.0000000000000000     
  -1.7999999999999995E-003     0.0000000000000000     
  -1.4999999999999979E-003     0.0000000000000000     
  -1.1999999999999997E-003     0.0000000000000000     
  -8.9999999999999976E-004     0.0000000000000000     
  -5.9999999999999810E-004     0.0000000000000000     
  -2.9999999999999992E-004     0.0000000000000000     
   0.0000000000000000          0.0000000000000000     
   3.0000000000000165E-004     0.0000000000000000     
   5.9999999999999984E-004     0.0000000000000000     
   9.0000000000000149E-004     0.0000000000000000     
   1.2000000000000031E-003     0.0000000000000000     
   1.5000000000000013E-003     0.0000000000000000     
   1.8000000000000030E-003     0.0000000000000000     
   2.1000000000000012E-003     0.0000000000000000     
   2.3999999999999994E-003     0.0000000000000000     
   2.7000000000000010E-003     0.0000000000000000     
   2.9999999999999992E-003     0.0000000000000000     
   3.3000000000000008E-003     0.0000000000000000     
   3.6000000000000025E-003     0.0000000000000000     
   3.9000000000000007E-003     0.0000000000000000     
   4.2000000000000023E-003     0.0000000000000000     
   4.5000000000000005E-003     0.0000000000000000     
   4.7999999999999987E-003     0.0000000000000000     
   5.1000000000000004E-003     0.0000000000000000     
   5.4000000000000020E-003     0.0000000000000000     
   5.7000000000000037E-003     0.0000000000000000     
   5.9999999999999984E-003     0.0000000000000000     
   6.3000000000000000E-003     0.0000000000000000     
   6.6000000000000017E-003     0.0000000000000000     
   6.9000000000000034E-003     0.0000000000000000     
   7.2000000000000015E-003     0.0000000000000000     
   7.5000000000000032E-003     0.0000000000000000     
   7.8000000000000014E-003     0.0000000000000000     
   8.0999999999999996E-003     0.0000000000000000     
   8.4000000000000012E-003     0.0000000000000000     
   8.7000000000000029E-003     0.0000000000000000     
   9.0000000000000011E-003     0.0000000000000000     
   9.2999999999999992E-003     0.0000000000000000     
   9.6000000000000009E-003     0.0000000000000000     
   9.8999999999999991E-003     0.0000000000000000     
   1.0200000000000001E-002     0.0000000000000000     
   1.0500000000000002E-002     0.0000000000000000     
   1.0800000000000004E-002     0.0000000000000000     
   1.1099999999999999E-002     0.0000000000000000     
   1.1400000000000000E-002     0.0000000000000000     
   1.1700000000000002E-002     0.0000000000000000     
   1.2000000000000004E-002     0.0000000000000000     
   1.2300000000000002E-002     0.0000000000000000     
   1.2600000000000000E-002     0.0000000000000000     
   1.2900000000000002E-002     0.0000000000000000     
   1.3200000000000000E-002     0.0000000000000000     
   1.3500000000000002E-002     0.0000000000000000     
   1.3800000000000003E-002     0.0000000000000000     
   1.4100000000000001E-002     0.0000000000000000     
   1.4400000000000000E-002     0.0000000000000000     
   1.4700000000000001E-002     0.0000000000000000     
   1.4999999999999999E-002     0.0000000000000000     
   1.5300000000000001E-002     0.0000000000000000     
   1.5600000000000003E-002     0.0000000000000000     
   1.5899999999999997E-002     0.0000000000000000     
   1.6199999999999999E-002     0.0000000000000000     
   1.6500000000000001E-002     0.0000000000000000     
   1.6800000000000002E-002     0.0000000000000000     
   1.7100000000000004E-002     0.0000000000000000     
   1.7400000000000006E-002     0.0000000000000000     
   1.7700000000000000E-002     0.0000000000000000     
   1.8000000000000002E-002     0.0000000000000000     
   1.8300000000000004E-002     0.0000000000000000     
   1.8600000000000005E-002     0.0000000000000000     
   1.8900000000000000E-002     0.0000000000000000     
   1.9200000000000002E-002     0.0000000000000000     
   1.9500000000000003E-002     0.0000000000000000     
   1.9799999999999998E-002     0.0000000000000000     
   2.0100000000000000E-002     0.0000000000000000     
   2.0400000000000001E-002     0.0000000000000000     
   2.0700000000000003E-002     0.0000000000000000     
   2.0999999999999998E-002     0.0000000000000000     
   2.1299999999999999E-002     0.0000000000000000     
   2.1600000000000001E-002     0.0000000000000000     
   2.1900000000000003E-002     0.0000000000000000     
   2.2200000000000004E-002     0.0000000000000000     
   2.2500000000000006E-002     0.0000000000000000     
   2.2800000000000001E-002     0.0000000000000000     
   2.3100000000000002E-002     0.0000000000000000     
   2.3400000000000004E-002     0.0000000000000000     
   2.3699999999999999E-002     0.0000000000000000     
   2.4000000000000000E-002     0.0000000000000000     
   2.4300000000000002E-002     0.0000000000000000     
   2.4599999999999997E-002     0.0000000000000000     
   2.4900000000000005E-002     0.0000000000000000     
   2.5200000000000000E-002     0.0000000000000000     
   2.5499999999999995E-002     0.0000000000000000     
   2.5800000000000003E-002     0.0000000000000000     
   2.6099999999999998E-002     0.0000000000000000     
   2.6400000000000007E-002     0.0000000000000000     
   2.6700000000000002E-002     0.0000000000000000     
   2.6999999999999996E-002     0.0000000000000000     
   2.7300000000000005E-002     0.0000000000000000     
   2.7600000000000000E-002     0.0000000000000000     
   2.7900000000000008E-002     0.0000000000000000     
   2.8200000000000003E-002     0.0000000000000000     
   2.8499999999999998E-002     0.0000000000000000     
   2.8800000000000006E-002     0.0000000000000000     
   2.9100000000000001E-002     0.0000000000000000     
   2.9400000000000003E-002     0.0000000000000000     
   2.9700000000000004E-002     0.0000000000000000     
   3.0000000000000006E-002     0.0000000000000000     
   3.0300000000000001E-002     0.0000000000000000     
   3.0600000000000002E-002     0.0000000000000000     
   3.0900000000000004E-002     0.0000000000000000     
   3.1199999999999999E-002     0.0000000000000000     
   3.1500000000000007E-002     0.0000000000000000     
   3.1800000000000002E-002     0.0000000000000000     
   3.2099999999999997E-002     0.0000000000000000     
   3.2400000000000005E-002     0.0000000000000000     
   3.2700000000000000E-002     0.0000000000000000     
   3.3000000000000002E-002     0.0000000000000000     
   3.3300000000000003E-002     0.0000000000000000     
   3.3599999999999998E-002    -2.5001667308658259E-043
   3.3900000000000000E-002     9.7954765367051260E-043
   3.4200000000000001E-002     3.5192263979986957E-041
   3.4500000000000003E-002    -1.2596773124336833E-038
   3.4799999999999998E-002    -1.2099922800342989E-037
   3.5099999999999999E-002    -2.2510883431956468E-036
   3.5400000000000001E-002     2.8180708570765170E-035
   3.5699999999999996E-002    -8.1170731539636574E-035
   3.6000000000000004E-002     4.3620890337959861E-034
   3.6299999999999999E-002    -3.3290416274186906E-035
   3.6600000000000008E-002    -1.8685860268959035E-033
   3.6900000000000002E-002     8.9377598366994146E-033
   3.7199999999999997E-002    -2.7162878544468036E-032
   3.7500000000000006E-002     7.3304498636886959E-032
   3.7800000000000000E-002    -1.5766155125254523E-031
   3.8100000000000009E-002     1.3765866728110192E-031
   3.8400000000000004E-002     1.0717394241584897E-030
   3.8699999999999998E-002    -9.0213910395737055E-030
   3.9000000000000007E-002     4.7293159963215892E-029
   3.9300000000000002E-002    -2.0431123746270484E-028
   3.9600000000000003E-002     7.7968523886140950E-028
   3.9900000000000005E-002    -2.6979362686415791E-027
   4.0200000000000000E-002     8.5518738280263017E-027
   4.0500000000000001E-002    -2.4856915385684613E-026
   4.0800000000000003E-002     6.5687097162881437E-026
   4.1100000000000005E-002    -1.5373616511257250E-025
   4.1399999999999999E-002     2.9509919360385689E-025
   4.1700000000000008E-002    -3.2850527857265359E-025
   4.2000000000000003E-002    -6.9727142625473185E-025
   4.2299999999999997E-002     6.6319319484323375E-024
   4.2600000000000006E-002    -3.0109381779807621E-023
   4.2900000000000001E-002     1.0481663429757801E-022
   4.3200000000000002E-002    -2.9591761290557744E-022
   4.3500000000000004E-002     6.4243318661007455E-022
   4.3799999999999999E-002    -7.8268956679009018E-022
   4.4100000000000000E-002    -1.3238103286203905E-021
   4.4400000000000002E-002     1.2103292069917054E-020
   4.4700000000000004E-002    -4.3927004501458226E-020
   4.4999999999999998E-002     1.0055185108184198E-019
   4.5300000000000000E-002    -1.0655319799564923E-019
   4.5600000000000002E-002    -2.5888688071330515E-019
   4.5899999999999996E-002     1.6734405549503475E-018
   4.6200000000000005E-002    -4.4013104477302337E-018
   4.6500000000000000E-002     4.8712752363175163E-018
   4.6799999999999994E-002     1.0457783816975499E-017
   4.7100000000000003E-002    -6.1982186124226753E-017
   4.7399999999999998E-002     1.2771276438769066E-016
   4.7700000000000006E-002    -1.9339924760678323E-017
   4.8000000000000001E-002    -6.5627459459301677E-016
   4.8300000000000010E-002     1.8385046990375133E-015
   4.8600000000000004E-002    -1.1021524097406361E-015
   4.8899999999999999E-002    -7.0648032251233551E-015
   4.9200000000000008E-002     2.1743074558134261E-014
   4.9500000000000002E-002    -1.0573894666049222E-014
   4.9800000000000011E-002    -8.8029687048925713E-014
   5.0100000000000006E-002     2.2061400288749054E-013
   5.0400000000000000E-002     3.4799425205868093E-014
   5.0700000000000009E-002    -1.1220177284029560E-012
   5.1000000000000004E-002     1.5881847839694449E-012
   5.1299999999999998E-002     2.9604278706121834E-012
   5.1600000000000007E-002    -1.1298336586170760E-011
   5.1900000000000002E-002     2.9568062826980232E-013
   5.2200000000000010E-002     5.0527874877173644E-011
   5.2500000000000005E-002    -5.1601493150664057E-011
   5.2800000000000000E-002    -1.7581560095949830E-010
   5.3099999999999994E-002     3.5783336656403216E-010
   5.3400000000000003E-002     5.1580550579626994E-010
   5.3699999999999998E-002    -1.7783918742311810E-009
   5.4000000000000006E-002    -1.3929339632243593E-009
   5.4300000000000001E-002     7.6702221550985005E-009
   5.4599999999999996E-002     4.2786657141606000E-009
   5.4900000000000004E-002    -3.0692771056046541E-008
   5.5199999999999999E-002    -2.0286171261189358E-008
   5.5499999999999994E-002     1.1023933429921645E-007
   5.5800000000000002E-002     1.1062032070989161E-007
   5.6099999999999997E-002    -3.6481506166671391E-007
   5.6400000000000006E-002    -6.3613336826103751E-007
   5.6700000000000000E-002     1.1660226199902098E-006
   5.6999999999999995E-002     5.7038385008188554E-006
   5.7300000000000004E-002     1.0643953023803288E-005
   5.7599999999999998E-002     1.4037702910555073E-005
   5.7900000000000007E-002     1.9340700690750733E-005
   5.8200000000000002E-002     3.3128100205712853E-005
   5.8499999999999996E-002     5.7152935942817481E-005
   5.8800000000000005E-002     8.7963223635722867E-005
   5.9100000000000000E-002     1.2685847877895099E-004
   5.9400000000000008E-002     1.8502921577555814E-004
   5.9700000000000003E-002     2.7571022251681089E-004
   6.0000000000000012E-002     4.0690789326475326E-004
   6.0300000000000006E-002     5.8675896838517125E-004
   6.0600000000000001E-002     8.3217184235557877E-004
   6.0900000000000010E-002     1.1674575096514382E-003
   6.1200000000000004E-002     1.6164949801404916E-003
   6.1500000000000013E-002     2.1993217820321410E-003
   6.1800000000000008E-002     2.9350866300543242E-003
   6.2100000000000002E-002     3.8448282386692040E-003
   6.2399999999999997E-002     4.9468533181074277E-003
   6.2700000000000006E-002     6.2432332485891856E-003
   6.3000000000000000E-002     7.7070769328098747E-003
   6.3300000000000009E-002     9.2791253207862058E-003
   6.3600000000000004E-002     1.0866356668231748E-002
   6.3899999999999998E-002     1.2329819640110684E-002
   6.4199999999999993E-002     1.3466247216988587E-002
   6.4500000000000002E-002     1.4000656255781424E-002
   6.4800000000000010E-002     1.3587948637294026E-002
   6.5100000000000005E-002     1.1821493834087737E-002
   6.5400000000000000E-002     8.2478424179275971E-003
   6.5700000000000008E-002     2.3939813499203990E-003
   6.5999999999999989E-002    -6.2006950838834930E-003
   6.6299999999999998E-002    -1.7935634548074276E-002
   6.6600000000000006E-002    -3.3082494822874953E-002
   6.6900000000000001E-002    -5.1697751852816776E-002
   6.7199999999999996E-002    -7.3549219080686803E-002
   6.7500000000000004E-002    -9.8054780125031105E-002
   6.7800000000000013E-002   -0.12423070771588940     
   6.8099999999999994E-002   -0.15064839972474370     
   6.8400000000000002E-002   -0.17542814340569263     
   6.8700000000000011E-002   -0.19628278634257876     
   6.8999999999999992E-002   -0.21062747455707354     
   6.9300000000000000E-002   -0.21573169699133943     
   6.9600000000000009E-002   -0.20892103538025297     
   6.9900000000000004E-002   -0.18780415521356275     
   7.0199999999999999E-002   -0.15053577093178583     
   7.0500000000000007E-002    -9.6084727158294900E-002
   7.0800000000000016E-002    -2.4475901583975002E-002
   7.1099999999999997E-002     6.3030205825283667E-002
   7.1400000000000005E-002    0.16382852346260351     
   7.1700000000000000E-002    0.27399036643893115     
   7.1999999999999995E-002    0.38835373101963605     
   7.2300000000000003E-002    0.50082184405778629     
   7.2600000000000012E-002    0.60466409468409621     
   7.2900000000000006E-002    0.69302281813102229     
   7.3200000000000001E-002    0.75935345630910533     
   7.3499999999999996E-002    0.79801912811333930     
   7.3800000000000004E-002    0.80470777613109401     
   7.4099999999999999E-002    0.77690452412310695     
   7.4400000000000008E-002    0.71409374203953679     
   7.4700000000000003E-002    0.61796428623211475     
   7.5000000000000011E-002    0.49224817220969519     
   7.5299999999999992E-002    0.34264854972012515     
   7.5600000000000001E-002    0.17623461998045309     
   7.5900000000000009E-002     1.1386631860404364E-003
   7.6200000000000004E-002   -0.17421843956457270     
   7.6499999999999999E-002   -0.34158830791508521     
   7.6800000000000007E-002   -0.49357556561335447     
   7.7099999999999988E-002   -0.62409955446685372     
   7.7399999999999997E-002   -0.72872520330927737     
   7.7700000000000005E-002   -0.80488518507339712     
   7.8000000000000014E-002   -0.85183440565665003     
   7.8299999999999995E-002   -0.87063352100970415     
   7.8600000000000003E-002   -0.86370677609330393     
   7.8900000000000012E-002   -0.83457924132858663     
   7.9199999999999993E-002   -0.78731071426143207     
   7.9500000000000001E-002   -0.72624846137766197     
   7.9800000000000010E-002   -0.65547974672968379     
   8.0100000000000018E-002   -0.57867119929711230     
   8.0399999999999999E-002   -0.49878916523667627     
   8.0700000000000008E-002   -0.41818303992641959     
   8.1000000000000003E-002   -0.33854459417174254     
   8.1299999999999997E-002   -0.26112827637465391     
   8.1600000000000006E-002   -0.18689394311477714     
   8.1900000000000014E-002   -0.11680178161774576     
   8.2199999999999995E-002    -5.1858823994537090E-002
   8.2500000000000004E-002     6.6586281577849255E-003
   8.2799999999999999E-002     5.7388844142788442E-002
   8.3100000000000007E-002     9.8798235434911313E-002
   8.3400000000000002E-002    0.12955177339078594     
   8.3700000000000011E-002    0.14859673771977316     
   8.4000000000000005E-002    0.15562816005103561     
   8.4300000000000000E-002    0.15118389362295390     
   8.4599999999999995E-002    0.13687344524237674     
   8.4900000000000003E-002    0.11527945644138810     
   8.5199999999999998E-002     9.0010981205144697E-002
   8.5500000000000007E-002     6.5374756865577296E-002
   8.5800000000000001E-002     4.6018475654464208E-002
   8.6100000000000010E-002     3.6441184475848903E-002
   8.6399999999999991E-002     4.0448667974343912E-002
   8.6699999999999999E-002     6.0808029832447957E-002
   8.7000000000000008E-002     9.8722249507816662E-002
   8.7300000000000003E-002    0.15375801781496357     
   8.7599999999999997E-002    0.22356106667051973     
   8.7900000000000006E-002    0.30427232467316928     
   8.8200000000000014E-002    0.39050893760237360     
   8.8499999999999995E-002    0.47617547638474511     
   8.8800000000000004E-002    0.55471469558257624     
   8.9100000000000013E-002    0.62000267618484139     
   8.9399999999999993E-002    0.66669641479809494     
   8.9700000000000002E-002    0.69087817526771134     
   9.0000000000000011E-002    0.69034175616292992     
   9.0299999999999991E-002    0.66480144980597877     
   9.0600000000000000E-002    0.61587488758336373     
   9.0900000000000009E-002    0.54677344846492271     
   9.1200000000000017E-002    0.46214103341037682     
   9.1499999999999998E-002    0.36738298060297014     
   9.1800000000000007E-002    0.26833874723836015     
   9.2100000000000001E-002    0.17046581242214595     
   9.2399999999999996E-002     7.8731338645086274E-002
   9.2700000000000005E-002    -3.1920041693708897E-003
   9.3000000000000013E-002    -7.2740042429592200E-002
   9.3300000000000008E-002   -0.12888409329737774     
   9.3600000000000003E-002   -0.17165725584804095     
   9.3899999999999997E-002   -0.20234144478730087     
   9.4200000000000006E-002   -0.22279869330262098     
   9.4500000000000001E-002   -0.23538230066976795     
   9.4800000000000009E-002   -0.24228715138793749     
   9.5100000000000004E-002   -0.24542414463674767     
   9.5399999999999999E-002   -0.24602108200208450     
   9.5699999999999993E-002   -0.24459557346086591     
   9.6000000000000002E-002   -0.24097874311159878     
   9.6300000000000011E-002   -0.23446492812623854     
   9.6600000000000005E-002   -0.22399681771908703     
   9.6900000000000000E-002   -0.20848558454828095     
   9.7200000000000009E-002   -0.18720275075928533     
   9.7499999999999989E-002   -0.16007467923673988     
   9.7799999999999998E-002   -0.12785413726065553     
   9.8100000000000007E-002    -9.2242533001897942E-002
   9.8400000000000015E-002    -5.5846869704742702E-002
   9.8699999999999996E-002    -2.2054964710659965E-002
   9.9000000000000005E-002     5.3536094847532623E-003
   9.9300000000000013E-002     2.2528178422024498E-002
   9.9599999999999994E-002     2.6072787671538526E-002
   9.9900000000000003E-002     1.3359168778359232E-002
  0.10020000000000001         -1.6949383079566789E-002
  0.10049999999999999         -6.4702779781107111E-002
  0.10080000000000000        -0.12802400031524550     
  0.10110000000000001        -0.20348240052518463     
  0.10140000000000000        -0.28623351383202533     
  0.10170000000000000        -0.37039588301655291     
  0.10200000000000001        -0.44950810309880873     
  0.10230000000000002        -0.51718419580835939     
  0.10260000000000000        -0.56771707555369588     
  0.10290000000000001        -0.59661341564947001     
  0.10320000000000000        -0.60106670841156706     
  0.10350000000000001        -0.58027298097377500     
  0.10380000000000000        -0.53563809116368899     
  0.10410000000000001        -0.47051210963197188     
  0.10440000000000001        -0.38999244891437768     
  0.10470000000000000        -0.30021281306484920     
  0.10500000000000000        -0.20798792910435585     
  0.10530000000000000        -0.11984208653364750     
  0.10560000000000000         -4.1392140170982188E-002
  0.10590000000000001          2.3477976805656955E-002
  0.10620000000000000          7.2801201648203417E-002
  0.10650000000000001         0.10701704621559137     
  0.10679999999999999         0.12863155675936408     
  0.10710000000000000         0.14228473656475904     
  0.10740000000000001         0.15388163498824864     
  0.10770000000000000         0.17013473370580914     
  0.10800000000000000         0.19737623241551802     
  0.10830000000000001         0.24103202306024496     
  0.10859999999999999         0.30465705689930211     
  0.10890000000000000         0.38963972361740962     
  0.10920000000000001         0.49443353414333657     
  0.10950000000000001         0.61503834218958220     
  0.10979999999999999         0.74492448182058602     
  0.11009999999999999         0.87592515349985334     
  0.11040000000000001         0.99854799794464677     
  0.11070000000000001          1.1032919104188839     
  0.11100000000000000          1.1811663360889573     
  0.11130000000000000          1.2248831677627741     
  0.11160000000000002          1.2290698436348575     
  0.11190000000000001          1.1911037167641760     
  0.11220000000000001          1.1108074947839386     
  0.11250000000000000         0.99086337983581418     
  0.11280000000000000         0.83584141843576276     
  0.11309999999999999         0.65233977069455906     
  0.11340000000000001         0.44755730308017760     
  0.11369999999999998         0.22952323403343505     
  0.11400000000000000          5.5526352942034327E-003
  0.11430000000000000        -0.21728534907160399     
  0.11460000000000002        -0.43349468627924631     
  0.11489999999999999        -0.63815415530788488     
  0.11520000000000001        -0.82804801514560955     
  0.11550000000000001         -1.0001461231584752     
  0.11580000000000000         -1.1526706226070345     
  0.11609999999999999         -1.2833671096304629     
  0.11640000000000002         -1.3905905502736200     
  0.11670000000000001         -1.4717266177030599     
  0.11700000000000001         -1.5244585314590886     
  0.11730000000000000         -1.5455405793027834     
  0.11760000000000000         -1.5324538872043694     
  0.11789999999999999         -1.4824075717700513     
  0.11820000000000001         -1.3941450273155063     
  0.11850000000000001         -1.2670586109507562     
  0.11880000000000000         -1.1028992387790710     
  0.11910000000000000        -0.90478801442990697     
  0.11940000000000002        -0.67847214692846336     
  0.11970000000000001        -0.43097196562185469     
  0.12000000000000001        -0.17135167624300590     
  0.12030000000000000          9.0905576838068117E-002
  0.12060000000000000         0.34550793613620201     
  0.12089999999999999         0.58315968272320295     
  0.12119999999999999         0.79523202679587124     
  0.12150000000000001         0.97534095674096388     
  0.12180000000000001          1.1187957066944190     
  0.12210000000000000          1.2237645885558746     
  0.12239999999999999          1.2903291111175843     
  0.12270000000000002          1.3210455601098055     
  0.12300000000000001          1.3197392973049020     
  0.12330000000000001          1.2916738559177807     
  0.12360000000000000          1.2422978675578857     
  0.12390000000000000          1.1772752354682245     
  0.12419999999999999          1.1013024716582056     
  0.12450000000000001          1.0182575551297464     
  0.12480000000000001         0.93054638963988023     
  0.12509999999999999         0.83946625484700776     
  0.12540000000000001         0.74485659007317140     
  0.12570000000000003         0.64567012653033662     
  0.12600000000000000         0.54003470098449713     
  0.12630000000000002         0.42591028407826448     
  0.12659999999999999         0.30141054016932284     
  0.12690000000000001         0.16526979079167925     
  0.12719999999999998          1.7195576441703338E-002
  0.12750000000000000        -0.14175297502515255     
  0.12780000000000002        -0.30889428414996412     
  0.12809999999999999        -0.48000385654642597     
  0.12840000000000001        -0.64924843067302829     
  0.12869999999999998        -0.80958377335430332     
  0.12900000000000000        -0.95284777459388126     
  0.12930000000000003         -1.0706598451800369     
  0.12959999999999999         -1.1548236487688934     
  0.12990000000000002         -1.1983707768333030     
  0.13019999999999998         -1.1959457680130379     
  0.13050000000000000         -1.1447561386150775     
  0.13080000000000003         -1.0449889373559802     
  0.13109999999999999        -0.90025019879386470     
  0.13140000000000002        -0.71749134794805547     
  0.13169999999999998        -0.50679235567692005     
  0.13200000000000001        -0.28085465471108112     
  0.13229999999999997         -5.4138719635453872E-002
  0.13260000000000000         0.15807375175520369     
  0.13290000000000002         0.34108810675246415     
  0.13319999999999999         0.48155817636676446     
  0.13350000000000001         0.56890906230490335     
  0.13380000000000003         0.59585166126852251     
  0.13410000000000000         0.55943346308505471     
  0.13440000000000002         0.46069788827534930     
  0.13469999999999999         0.30524199546383007     
  0.13500000000000001         0.10221471688252476     
  0.13529999999999998        -0.13570571179379085     
  0.13560000000000000        -0.39384188715288942     
  0.13590000000000002        -0.65582956627649980     
  0.13619999999999999        -0.90536544918647544     
  0.13650000000000001         -1.1264219670086209     
  0.13680000000000003         -1.3049789050054998     
  0.13710000000000000         -1.4289540482305700     
  0.13740000000000002         -1.4895797477373192     
  0.13769999999999999         -1.4811576763287209     
  0.13800000000000001         -1.4019246200854321     
  0.13829999999999998         -1.2535134532874450     
  0.13860000000000000         -1.0413583057122897     
  0.13890000000000002        -0.77406701181305582     
  0.13919999999999999        -0.46337781050887772     
  0.13950000000000001        -0.12329667853713516     
  0.13979999999999998         0.23048726699850308     
  0.14010000000000000         0.58138581561273150     
  0.14040000000000002         0.91266412672038111     
  0.14069999999999999          1.2084243554899958     
  0.14100000000000001          1.4547205582366474     
  0.14130000000000004          1.6399635634445868     
  0.14160000000000000          1.7561123692019986     
  0.14189999999999997          1.7986575232999313     
  0.14219999999999999          1.7676295765147394     
  0.14250000000000002          1.6667926561716391     
  0.14279999999999998          1.5043006950410640     
  0.14310000000000000          1.2912863994199608     
  0.14339999999999997          1.0420804929095762     
  0.14369999999999999         0.77233882549963007     
  0.14400000000000002         0.49897830287061407     
  0.14429999999999998         0.23811073099910229     
  0.14460000000000001          4.9726399583880157E-003
  0.14490000000000003        -0.18785655029957599     
  0.14520000000000000        -0.33036636258802982     
  0.14550000000000002        -0.41644983545933778     
  0.14579999999999999        -0.44338294612526302     
  0.14610000000000001        -0.41248183752065026     
  0.14640000000000003        -0.32827399629609993     
  0.14670000000000000        -0.19857962746158725     
  0.14699999999999996         -3.3419557391141164E-002
  0.14729999999999999         0.15531018388559484     
  0.14760000000000001         0.35497326701065002     
  0.14789999999999998         0.55253035127658412     
  0.14820000000000000         0.73562682731588092     