  -1.4999999999999999E-002     0.0000000000000000     
  -1.4700000000000000E-002    -1.7959546636617323E-026
  -1.4400000000000000E-002    -3.7743176742538966E-021
  -1.4100000000000000E-002    -1.0964572191620401E-018
  -1.3800000000000000E-002     1.3486271866206310E-017
  -1.3500000000000000E-002     6.6419400684239265E-016
  -1.3200000000000000E-002    -2.5359510807412010E-015
  -1.2899999999999998E-002    -2.7064684703749812E-014
  -1.2600000000000000E-002     9.1261923888687651E-014
  -1.2299999999999998E-002     2.9631858019631814E-013
  -1.2000000000000000E-002    -9.2668517624503728E-013
  -1.1699999999999999E-002    -1.6933772483404845E-012
  -1.1399999999999999E-002     3.5906366083784157E-012
  -1.1099999999999999E-002     8.7975214518747131E-012
  -1.0799999999999999E-002    -3.8863451771918096E-012
  -1.0499999999999999E-002    -3.9411126076166791E-011
  -1.0199999999999999E-002    -1.3829766520324857E-011
  -9.8999999999999991E-003     9.1409876395351779E-011
  -9.5999999999999992E-003     1.0162411252085192E-010
  -9.2999999999999992E-003    -2.4042076531812111E-011
  -8.9999999999999993E-003    -3.2705701334811095E-010
  -8.6999999999999994E-003    -4.7044274363245787E-010
  -8.3999999999999995E-003     3.1251112508606203E-010
  -8.0999999999999996E-003     1.6009919488181664E-009
  -7.7999999999999988E-003     1.2522070568041287E-009
  -7.4999999999999997E-003    -2.6383831824304012E-009
  -7.1999999999999998E-003    -4.6099246928915891E-009
  -6.8999999999999981E-003     3.0823409058012999E-010
  -6.5999999999999982E-003     4.8427870212031875E-009
  -6.3000000000000000E-003     8.3401510703175096E-009
  -6.0000000000000001E-003     7.1610422460002738E-009
  -5.6999999999999985E-003    -1.3359709534580676E-008
  -5.3999999999999986E-003    -3.1528462192936600E-008
  -5.1000000000000004E-003    -1.0136957470978962E-008
  -4.7999999999999987E-003     4.1761991262682275E-008
  -4.5000000000000005E-003     6.1202971405565856E-008
  -4.1999999999999989E-003    -1.8262060261948469E-009
  -3.8999999999999990E-003    -6.3483568019906197E-008
  -3.5999999999999990E-003    -6.1730122910303043E-008
  -3.2999999999999991E-003    -7.0509184018727798E-008
  -2.9999999999999992E-003     3.8872228310699446E-008
  -2.6999999999999993E-003     2.4760915554587158E-007
  -2.3999999999999994E-003     1.0353933931881585E-007
  -2.0999999999999977E-003    -1.8820748978824858E-007
  -1.7999999999999995E-003    -1.6727730676114825E-007
  -1.4999999999999979E-003    -1.7047967593874580E-007
  -1.1999999999999997E-003    -2.5715350217837136E-008
  -8.9999999999999976E-004     4.3810102968553416E-007
  -5.9999999999999810E-004     2.2904175888147187E-007
  -2.9999999999999992E-004    -3.2915876815270579E-007
   0.0000000000000000         -1.0474258737361887E-007
   3.0000000000000165E-004     1.5097662056638196E-007
   5.9999999999999984E-004    -8.4397757644741579E-008
   9.0000000000000149E-004    -1.4251725352417239E-007
   1.2000000000000031E-003     1.7632995079729186E-007
   1.5000000000000013E-003     4.3513090712560568E-007
   1.8000000000000030E-003    -6.9788816935520622E-007
   2.1000000000000012E-003    -2.3820890353081880E-006
   2.3999999999999994E-003    -5.6144325106256960E-007
   2.7000000000000010E-003     4.8006283449460288E-006
   2.9999999999999992E-003     1.1051756723733915E-005
   3.3000000000000008E-003     1.9546796915555405E-005
   3.6000000000000025E-003     3.3169846746386752E-005
   3.9000000000000007E-003     6.0127517256796588E-005
   4.2000000000000023E-003     1.1141865678729956E-004
   4.5000000000000005E-003     1.8293773923510633E-004
   4.7999999999999987E-003     2.6493667115950293E-004
   5.1000000000000004E-003     3.6240623417673249E-004
   5.4000000000000020E-003     4.8602494877547972E-004
   5.7000000000000037E-003     6.4947947662190374E-004
   5.9999999999999984E-003     8.7837329572092269E-004
   6.3000000000000000E-003     1.2001424930757360E-003
   6.6000000000000017E-003     1.6400020425759094E-003
   6.9000000000000034E-003     2.2090092494595442E-003
   7.2000000000000015E-003     2.8653352797204943E-003
   7.5000000000000032E-003     3.5189199584834212E-003
   7.8000000000000014E-003     4.0425371684709357E-003
   8.0999999999999996E-003     4.2297618241952436E-003
   8.4000000000000012E-003     3.7678246108794116E-003
   8.7000000000000029E-003     2.1688664197504789E-003
   9.0000000000000011E-003    -1.3413522523882618E-003
   9.2999999999999992E-003    -7.8579981507133825E-003
   9.6000000000000009E-003    -1.8847122794748223E-002
   9.8999999999999991E-003    -3.6215632715947570E-002
   1.0200000000000001E-002    -6.2330591237099914E-002
   1.0500000000000002E-002   -0.10010301830447724     
   1.0800000000000004E-002   -0.15304028576342518     
   1.1099999999999999E-002   -0.22512399490022603     
   1.1400000000000000E-002   -0.32060944032667515     
   1.1700000000000002E-002   -0.44375763867263884     
   1.2000000000000004E-002   -0.59841672518649081     
   1.2300000000000002E-002   -0.78756210390455783     
   1.2600000000000000E-002    -1.0128204450041991     
   1.2900000000000002E-002    -1.2738100998725277     
   1.3200000000000000E-002    -1.5673837048570061     
   1.3500000000000002E-002    -1.8870635465277419     
   1.3800000000000003E-002    -2.2223311935046213     
   1.4100000000000001E-002    -2.5586227282103260     
   1.4400000000000000E-002    -2.8771487407443126     
   1.4700000000000001E-002    -3.1553789147273368     
   1.4999999999999999E-002    -3.3679643495368459     
   1.5300000000000001E-002    -3.4880765189470044     
   1.5600000000000003E-002    -3.4893870990866063     
   1.5899999999999997E-002    -3.3478966386249889     
   1.6199999999999999E-002    -3.0449190826818935     
   1.6500000000000001E-002    -2.5686658255510673     
   1.6800000000000002E-002    -1.9170378307655911     
   1.7100000000000004E-002    -1.0984457905621388     
   1.7400000000000006E-002   -0.13335902741395222     
   1.7700000000000000E-002    0.94589664053815625     
   1.8000000000000002E-002     2.0969876866637689     
   1.8300000000000004E-002     3.2686027541714058     
   1.8600000000000005E-002     4.4039963165582927     
   1.8900000000000000E-002     5.4446895443976429     
   1.9200000000000002E-002     6.3344909961506879     
   1.9500000000000003E-002     7.0226852279783012     
   1.9799999999999998E-002     7.4688140398862997     
   2.0100000000000000E-002     7.6446667932653476     
   2.0400000000000001E-002     7.5366545835852969     
   2.0700000000000003E-002     7.1464258366469853     
   2.0999999999999998E-002     6.4912740043364288     
   2.1299999999999999E-002     5.6025287163840938     
   2.1600000000000001E-002     4.5233103538979114     
   2.1900000000000003E-002     3.3074171121166471     
   2.2200000000000004E-002     2.0157542053366910     
   2.2500000000000006E-002    0.71480733307922162     
   2.2800000000000001E-002   -0.52632867110391424     
   2.3100000000000002E-002    -1.6370775585554980     
   2.3400000000000004E-002    -2.5481235983474275     
   2.3699999999999999E-002    -3.1934960111509372     
   2.4000000000000000E-002    -3.5119245568922945     
   2.4300000000000002E-002    -3.4519251233476620     
   2.4599999999999997E-002    -2.9731668170724670     
   2.4900000000000005E-002    -2.0544353845541052     
   2.5200000000000000E-002   -0.69426424546048970     
   2.5499999999999995E-002     1.0805006158670509     
   2.5800000000000003E-002     3.2112202153267644     
   2.6099999999999998E-002     5.6069624859417271     
   2.6400000000000007E-002     8.1413287455479306     
   2.6700000000000002E-002     10.657010174748841     
   2.6999999999999996E-002     12.970999049541108     
   2.7300000000000005E-002     14.887112155218590     
   2.7600000000000000E-002     16.205467924319070     
   2.7900000000000008E-002     16.741953792923859     
   2.8200000000000003E-002     16.342957607430989     
   2.8499999999999998E-002     14.903448339367245     
   2.8800000000000006E-002     12.378681484365529     
   2.9100000000000001E-002     8.7965167212090929     
   2.9400000000000003E-002     4.2624261344597931     
   2.9700000000000004E-002    -1.0471593336099072     
   3.0000000000000006E-002    -6.8876954069035348     
   3.0300000000000001E-002    -12.965769149084807     
   3.0600000000000002E-002    -18.956079133563343     
   3.0900000000000004E-002    -24.530034948296439     
   3.1199999999999999E-002    -29.373352247898996     
   3.1500000000000007E-002    -33.214756447169130     
   3.1800000000000002E-002    -35.843395860734830     
   3.2099999999999997E-002    -37.123364257251076     
   3.2400000000000005E-002    -37.002526163495737     
   3.2700000000000000E-002    -35.509693986284496     
   3.3000000000000002E-002    -32.756119562356808     
   3.3300000000000003E-002    -28.913643567467897     
   3.3599999999999998E-002    -24.206730431634540     
   3.3900000000000000E-002    -18.887295146745561     
   3.4200000000000001E-002    -13.220234120964722     
   3.4500000000000003E-002    -7.4605660798523710     
   3.4799999999999998E-002    -1.8389070085315042     
   3.5099999999999999E-002     3.4450552444406743     
   3.5400000000000001E-002     8.2398913782411078     
   3.5699999999999996E-002     12.434086224886489     
   3.6000000000000004E-002     15.965360085773664     
   3.6299999999999999E-002     18.803007510157148     
   3.6600000000000008E-002     20.956831323311505     
   3.6900000000000002E-002     22.455263424241195     
   3.7199999999999997E-002     23.340652680043391     
   3.7500000000000006E-002     23.673252243296005     
   3.7800000000000000E-002     23.504713118303542     
   3.8100000000000009E-002     22.895263659523053     
   3.8400000000000004E-002     21.895902556503163     
   3.8699999999999998E-002     20.560394155925543     
   3.9000000000000007E-002     18.933656517162664     
   3.9300000000000002E-002     17.067357809006818     
   3.9600000000000003E-002     15.007920987945674     
   3.9900000000000005E-002     12.806709043882002     
   4.0200000000000000E-002     10.521861778444540     
   4.0500000000000001E-002     8.2030474991942661     
   4.0800000000000003E-002     5.9160601992444475     
   4.1100000000000005E-002     3.7129113646879999     
   4.1399999999999999E-002     1.6505135375200346     
   4.1700000000000008E-002   -0.22444010857416538     
   4.2000000000000003E-002    -1.8692094962871664     
   4.2299999999999997E-002    -3.2558471715387149     
   4.2600000000000006E-002    -4.3664090076775617     
   4.2900000000000001E-002    -5.1916281499942070     
   4.3200000000000002E-002    -5.7434612921782264     
   4.3500000000000004E-002    -6.0360557133888930     
   4.3799999999999999E-002    -6.1029192386626194     
   4.4100000000000000E-002    -5.9795023242706398     
   4.4400000000000002E-002    -5.7133880738370104     
   4.4700000000000004E-002    -5.3516794140203707     
   4.4999999999999998E-002    -4.9445067120861266     
   4.5300000000000000E-002    -4.5401087226508006     
   4.5600000000000002E-002    -4.1776781212123897     
   4.5899999999999996E-002    -3.8958709071321662     
   4.6200000000000005E-002    -3.7123457890355711     
   4.6500000000000000E-002    -3.6450444839976104     
   4.6799999999999994E-002    -3.6902445624210150     
   4.7100000000000003E-002    -3.8373194717343209     
   4.7399999999999998E-002    -4.0640652905789239     
   4.7700000000000006E-002    -4.3394978565466866     
   4.8000000000000001E-002    -4.6286704906789655     
   4.8300000000000010E-002    -4.8906491063851174     
   4.8600000000000004E-002    -5.0921771750834193     
   4.8899999999999999E-002    -5.1948397393329993     
   4.9200000000000008E-002    -5.1757071325849280     
   4.9500000000000002E-002    -5.0130250882945502     
   4.9800000000000011E-002    -4.6982629893544061     
   5.0100000000000006E-002    -4.2327535954517908     
   5.0400000000000000E-002    -3.6244739134445654     
   5.0700000000000009E-002    -2.8950079772992900     
   5.1000000000000004E-002    -2.0681509122995005     
   5.1299999999999998E-002    -1.1797789930285745     
   5.1600000000000007E-002   -0.26271250056302797     
   5.1900000000000002E-002    0.63907839605455641     
   5.2200000000000010E-002     1.4906473175163306     
   5.2500000000000005E-002     2.2532861126120460     
   5.2800000000000000E-002     2.8940439030898113     
   5.3099999999999994E-002     3.3896460296447533     
   5.3400000000000003E-002     3.7197861412546485     
   5.3699999999999998E-002     3.8802222953609222     
   5.4000000000000006E-002     3.8702056170151380     
   5.4300000000000001E-002     3.7060708788192538     
   5.4599999999999996E-002     3.4074404045923585     
   5.4900000000000004E-002     3.0055193723851503     
   5.5199999999999999E-002     2.5346150225661441     
   5.5499999999999994E-002     2.0322298817911308     
   5.5800000000000002E-002     1.5371846947064507     
   5.6099999999999997E-002     1.0808626167667357     
   5.6400000000000006E-002    0.69608262242691055     
   5.6700000000000000E-002    0.40091475276686678     
   5.6999999999999995E-002    0.21086246066051248     
   5.7300000000000004E-002    0.12823631922355649     
   5.7599999999999998E-002    0.15032396087268549     
   5.7900000000000007E-002    0.26338797549845588     
   5.8200000000000002E-002    0.44769506818149196     
   5.8499999999999996E-002    0.68292324590484665     
   5.8800000000000005E-002    0.93780551980901128     
   5.9100000000000000E-002     1.1883116238219484     
   5.9400000000000008E-002     1.4054753086101408     
   5.9700000000000003E-002     1.5678556519810807     
   6.0000000000000012E-002     1.6539286999235510     
   6.0300000000000006E-002     1.6534337518560906     
   6.0600000000000001E-002     1.5597481343699662     
   6.0900000000000010E-002     1.3733666842851355     
   6.1200000000000004E-002     1.1065397062714621     
   6.1500000000000013E-002    0.77266864713314809     
   6.1800000000000008E-002    0.39580007782668908     
   6.2100000000000002E-002     9.7504464948884468E-005
   6.2399999999999997E-002   -0.38655999088136095     
   6.2700000000000006E-002   -0.73862206508418149     
   6.3000000000000000E-002    -1.0322170200512846     
   6.3300000000000009E-002    -1.2498664788716285     
   6.3600000000000004E-002    -1.3815526891284104     
   6.3899999999999998E-002    -1.4210420765980820     
   6.4199999999999993E-002    -1.3768007674994487     
   6.4500000000000002E-002    -1.2568770561949170     
   6.4800000000000010E-002    -1.0797337211777083     
   6.5100000000000005E-002   -0.86637275721211338     
   6.5400000000000000E-002   -0.63951247468294681     
   6.5700000000000008E-002   -0.41997718688501717     
   6.5999999999999989E-002   -0.22671902513971640     
   6.6299999999999998E-002    -7.5308883196426687E-002
   6.6600000000000006E-002     2.8434366633528076E-002
   6.6900000000000001E-002     7.9532215973145359E-002
   6.7199999999999996E-002     8.3651653301658579E-002
   6.7500000000000004E-002     4.7788472040643210E-002
   6.7800000000000013E-002    -1.5512019671220728E-002
   6.8099999999999994E-002    -9.2808622509147676E-002
   6.8400000000000002E-002   -0.17173793352872038     
   6.8700000000000011E-002   -0.23977256971987757     
   6.8999999999999992E-002   -0.28990371125498993     
   6.9300000000000000E-002   -0.31736215291939585     
   6.9600000000000009E-002   -0.32281351654346552     
   6.9900000000000004E-002   -0.30906956309146205     
   7.0199999999999999E-002   -0.28390166745664486     
   7.0500000000000007E-002   -0.25456988535987801     
   7.0800000000000016E-002   -0.22855795329821374     
   7.1099999999999997E-002   -0.21408125546285017     
   7.1400000000000005E-002   -0.21285525715353509     
   7.1700000000000000E-002   -0.22795965617810221     
   7.1999999999999995E-002   -0.25520191933492575     
   7.2300000000000003E-002   -0.29002515124784944     
   7.2600000000000012E-002   -0.32472169396414480     
   7.2900000000000006E-002   -0.35260605056633570     
   7.3200000000000001E-002   -0.36503411465532626     
   7.3499999999999996E-002   -0.35813292450186396     
   7.3800000000000004E-002   -0.32955074797184963     
   7.4099999999999999E-002   -0.27860329346088275     
   7.4400000000000008E-002   -0.21066572353851246     
   7.4700000000000003E-002   -0.13123203712044976     
   7.5000000000000011E-002    -4.6978559099025513E-002
   7.5299999999999992E-002     3.3353031676726666E-002
   7.5600000000000001E-002    0.10416082205404831     
   7.5900000000000009E-002    0.16019797726403179     
   7.6200000000000004E-002    0.19957812121020682     
   7.6499999999999999E-002    0.22272163017456345     
   7.6800000000000007E-002    0.23263649706714823     
   7.7099999999999988E-002    0.23279752294208786     
   7.7399999999999997E-002    0.23030839074344620     
   7.7700000000000005E-002    0.22851540891650965     
   7.8000000000000014E-002    0.23275873707483244     
   7.8299999999999995E-002    0.24672928924395096     
   7.8600000000000003E-002    0.27014057537905667     
   7.8900000000000012E-002    0.30307172123193937     
   7.9199999999999993E-002    0.34369919780344299     
   7.9500000000000001E-002    0.38699737923911898     
   7.9800000000000010E-002    0.42934489668983494     
   8.0100000000000018E-002    0.46553245336146326     
   8.0399999999999999E-002    0.49028626009208953     
   8.0700000000000008E-002    0.49881118288896853     
   8.1000000000000003E-002    0.48770603213746117     
   8.1299999999999997E-002    0.45365917318947258     
   8.1600000000000006E-002    0.39597600383468934     
   8.1900000000000014E-002    0.31366681822774900     
   8.2199999999999995E-002    0.20881713796246004     
   8.2500000000000004E-002     8.5412435124750455E-002
   8.2799999999999999E-002    -5.2132557103972292E-002
   8.3100000000000007E-002   -0.19741095447085957     
   8.3400000000000002E-002   -0.34236734912067079     
   8.3700000000000011E-002   -0.47952818667268421     
   8.4000000000000005E-002   -0.60127395237745740     
   8.4300000000000000E-002   -0.69943821320718436     
   8.4599999999999995E-002   -0.76904308753568107     
   8.4900000000000003E-002   -0.80615705294126128     
   8.5199999999999998E-002   -0.80829680082767075     
   8.5500000000000007E-002   -0.77567702702895658     
   8.5800000000000001E-002   -0.71118313324420179     
   8.6100000000000010E-002   -0.61829883152598386     
   8.6399999999999991E-002   -0.50339031569927839     
   8.6699999999999999E-002   -0.37230280428309998     
   8.7000000000000008E-002   -0.23327334645059244     
   8.7300000000000003E-002    -9.2546891754900579E-002
   8.7599999999999997E-002     4.1754558305855123E-002
   8.7900000000000006E-002    0.16387422024662926     
   8.8200000000000014E-002    0.26810571283883911     
   8.8499999999999995E-002    0.34961858211363972     
   8.8800000000000004E-002    0.40627571901519177     
   8.9100000000000013E-002    0.43559432120482589     
   8.9399999999999993E-002    0.43843633164946816     
   8.9700000000000002E-002    0.41609213105442328     
   9.0000000000000011E-002    0.37229344699989209     
   9.0299999999999991E-002    0.31068274862499973     
   9.0600000000000000E-002    0.23868458507878779     
   9.0900000000000009E-002    0.16125619919651013     
   9.1200000000000017E-002     8.5228283674541883E-002
   9.1499999999999998E-002     1.7563628234202371E-002
   9.1800000000000007E-002    -3.7404240213157414E-002
   9.2100000000000001E-002    -7.4149957333696961E-002
   9.2399999999999996E-002    -9.1114915862990198E-002
   9.2700000000000005E-002    -8.5936056054782037E-002
   9.3000000000000013E-002    -5.9790882918072275E-002
   9.3300000000000008E-002    -1.3772946285030915E-002
   9.3600000000000003E-002     4.8031598715134891E-002
   9.3899999999999997E-002    0.12213639020006954     
   9.4200000000000006E-002    0.20329612921200721     
   9.4500000000000001E-002    0.28566690070598061     
   9.4800000000000009E-002    0.36402757629021393     
   9.5100000000000004E-002    0.43276064201310049     
   9.5399999999999999E-002    0.48653198843007323     
   9.5699999999999993E-002    0.52184443272047687     
   9.6000000000000002E-002    0.53544335206039506     
   9.6300000000000011E-002    0.52632491535080972     
   9.6600000000000005E-002    0.49312652972687998     
   9.6900000000000000E-002    0.44019555050418246     
   9.7200000000000009E-002    0.36763363172340746     
   9.7499999999999989E-002    0.28240921347116105     
   9.7799999999999998E-002    0.18851149935064399     
   9.8100000000000007E-002     9.2969174129133192E-002
   9.8400000000000015E-002     1.5705372839718051E-004
   9.8699999999999996E-002    -8.2743088881677376E-002
   9.9000000000000005E-002   -0.15240209033965618     
   9.9300000000000013E-002   -0.20562693644682573     
   9.9599999999999994E-002   -0.23964958009863080     
   9.9900000000000003E-002   -0.25558051590825176     
  0.10020000000000001        -0.25378036624729028     
  0.10049999999999999        -0.23697471765851402     
  0.10080000000000000        -0.20860994051616288     
  0.10110000000000001        -0.17335999213737002     
  0.10140000000000000        -0.13620983280313551     
  0.10170000000000000        -0.10081057394315590     
  0.10200000000000001         -7.4156143432508592E-002
  0.10230000000000002         -5.8217811050776343E-002
  0.10260000000000000         -5.8516201020446197E-002
  0.10290000000000001         -7.5610310653381030E-002
  0.10320000000000000        -0.11256674433690998     
  0.10350000000000001        -0.16679988911718854     
  0.10380000000000000        -0.23745111833413768     
  0.10410000000000001        -0.32089466686717460     
  0.10440000000000001        -0.41049817658776161     
  0.10470000000000000        -0.50171384381025730     
  0.10500000000000000        -0.58584895624079758     
  0.10530000000000000        -0.65741738422809504     
  0.10560000000000000        -0.70789667604063644     
  0.10590000000000001        -0.73390730905939328     
  0.10620000000000000        -0.72870024823923418     
  0.10650000000000001        -0.69213363580714782     
  0.10679999999999999        -0.62239149627861456     
  0.10710000000000000        -0.52132067967957385     
  0.10740000000000001        -0.39333634073048779     
  0.10770000000000000        -0.24229033955545512     
  0.10800000000000000         -7.5955047273713425E-002
  0.10830000000000001          9.8611228941381648E-002
  0.10859999999999999         0.27296395687453490     
  0.10890000000000000         0.43881321842687576     
  0.10920000000000001         0.58785113998005922     
  0.10950000000000001         0.71213158791192788     
  0.10979999999999999         0.80677964837063976     
  0.11009999999999999         0.86428453887858814     
  0.11040000000000001         0.88405438674637249     
  0.11070000000000001         0.86303707522959339     
  0.11100000000000000         0.80437114731483639     
  0.11130000000000000         0.70963928412676702     
  0.11160000000000002         0.58604691273028720     
  0.11190000000000001         0.43980051504021350     
  0.11220000000000001         0.27926035751870948     
  0.11250000000000000         0.11493416568770415     
  0.11280000000000000         -4.6350483882399977E-002
  0.11309999999999999        -0.19396463667831676     
  0.11340000000000001        -0.32271529894054579     
  0.11369999999999998        -0.42522705822873469     
  0.11400000000000000        -0.49977276678053184     
  0.11430000000000000        -0.54259101315082270     
  0.11460000000000002        -0.55547282825174171     
  0.11489999999999999        -0.53973571279932808     
  0.11520000000000001        -0.49759222060473401     
  0.11550000000000001        -0.43566523311685335     
  0.11580000000000000        -0.35622210937598420     
  0.11609999999999999        -0.26745914465091580     
  0.11640000000000002        -0.17337671843881786     
  0.11670000000000001         -8.0576082543967906E-002
  0.11700000000000001          6.2520222474398406E-003
  0.11730000000000000          8.2542028319346983E-002
  0.11760000000000000         0.14415247168443382     
  0.11789999999999999         0.18940698421249111     
  0.11820000000000001         0.21584764827156572     
  0.11850000000000001         0.22611580023556110     
  0.11880000000000000         0.21811646917913297     
  0.11910000000000000         0.19816688481396516     
  0.11940000000000002         0.16622141816045266     
  0.11970000000000001         0.12823500649992953     
  0.12000000000000001          8.7624269480454153E-002
  0.12030000000000000          4.6994529621831128E-002
  0.12060000000000000          1.0464753370773405E-002
  0.12089999999999999         -2.0998242807965417E-002
  0.12119999999999999         -4.4975254851831174E-002
  0.12150000000000001         -6.2727674289476607E-002
  0.12180000000000001         -7.2101785218754974E-002
  0.12210000000000000         -7.6311191666677200E-002
  0.12239999999999999         -7.4534064055970101E-002
  0.12270000000000002         -6.7392771814035898E-002
  0.12300000000000001         -5.7350689983466568E-002
  0.12330000000000001         -4.2170914183261264E-002
  0.12360000000000000         -2.5452490168233127E-002
  0.12390000000000000         -4.3412235267890481E-003
  0.12419999999999999          1.7548542420419887E-002
  0.12450000000000001          4.2756650605147536E-002
  0.12480000000000001          6.7909016393060614E-002
  0.12509999999999999          9.4381964632773249E-002
  0.12540000000000001         0.11960784170568345     
  0.12570000000000003         0.14316272458067861     
  0.12600000000000000         0.16526521385800760     
  0.12630000000000002         0.18260047815093911     
  0.12659999999999999         0.19802654670049696     
  0.12690000000000001         0.20842713840043103     
  0.12719999999999998         0.21570215257767286     
  0.12750000000000000         0.21877113509286913     
  0.12780000000000002         0.21903303736753499     
  0.12809999999999999         0.21608353115438775     
  0.12840000000000001         0.20944178529246313     
  0.12869999999999998         0.20208557442514424     
  0.12900000000000000         0.19085589547246121     
  0.12930000000000003         0.17922878841427106     
  0.12959999999999999         0.16501983096485229     
  0.12990000000000002         0.15126164928194807     
  0.13019999999999998         0.13543417244286510     
  0.13050000000000000         0.11993787440402275     
  0.13080000000000003         0.10431896231023563     
  0.13109999999999999          8.6776220580491170E-002
  0.13140000000000002          6.9694506953717081E-002
  0.13169999999999998          4.9334280292031213E-002
  0.13200000000000001          2.7524203212381994E-002
  0.13229999999999997          1.2710308308973382E-003
  0.13260000000000000         -2.7811005502022063E-002
  0.13290000000000002         -6.1206076019407314E-002
  0.13319999999999999         -9.7888672214159353E-002
  0.13350000000000001        -0.13640911073622045     
  0.13380000000000003        -0.17598322580735742     
  0.13410000000000000        -0.21279591678186618     
  0.13440000000000002        -0.24739833477667050     
  0.13469999999999999        -0.27319221368778640     
  0.13500000000000001        -0.29232983448871808     
  0.13529999999999998        -0.30000187598063255     
  0.13560000000000000        -0.29626681100773261     
  0.13590000000000002        -0.28134374611650820     
  0.13619999999999999        -0.25451811083383313     
  0.13650000000000001        -0.21831666576956932     
  0.13680000000000003        -0.17332937680732580     
  0.13710000000000000        -0.12377778117318670     
  0.13740000000000002         -6.9951019481947443E-002
  0.13769999999999999         -1.7693676491326547E-002
  0.13800000000000001          3.2248402952632170E-002
  0.13829999999999998          7.5725019770093979E-002
  0.13860000000000000         0.10946556854613688     
  0.13890000000000002         0.13306239901382305     
  0.13919999999999999         0.14256311112539188     
  0.13950000000000001         0.13941200864720524     
  0.13979999999999998         0.12131741827602299     
  0.14010000000000000          9.1941361065740898E-002
  0.14040000000000002          5.0997670017727342E-002
  0.14069999999999999          3.2415293501964191E-003
  0.14100000000000001         -4.8495604343185027E-002
  0.14130000000000004        -0.10023979107434272     
  0.14160000000000000        -0.14718793841230587     
  0.14189999999999997        -0.18735099203886957     
  0.14219999999999999        -0.21493008944278399     
  0.14250000000000002        -0.23105997033211398     
  0.14279999999999998        -0.23237110851314896     
  0.14310000000000000        -0.22005896542798112     
  0.14339999999999997        -0.19510804540018722     
  0.14369999999999999        -0.15934529032687825     
  0.14400000000000002        -0.11571139991516546     
  0.14429999999999998         -6.6157606026859925E-002
  0.14460000000000001         -1.5569367474727577E-002
  0.14490000000000003          3.5074391484346372E-002
  0.14520000000000000          8.1365892557330441E-002
  0.14550000000000002         0.12279369661045751     
  0.14579999999999999         0.15537730401669922     
  0.14610000000000001         0.17975384442889483     
  0.14640000000000003         0.19504465585455527     
  0.14670000000000000         0.19949010436107312     
  0.14699999999999996         0.19604695363744562     
  0.14729999999999999         0.18421131993387754     
  0.14760000000000001         0.16581396033681348     
  0.14789999999999998         0.14229434159116947     
  0.14820000000000000         0.11636682938228776     