  -1.4999999999999999E-002     0.0000000000000000     
  -1.4700000000000000E-002     0.0000000000000000     
  -1.4400000000000000E-002     0.0000000000000000     
  -1.4100000000000000E-002     0.0000000000000000     
  -1.3800000000000000E-002     0.0000000000000000     
  -1.3500000000000000E-002     0.0000000000000000     
  -1.3200000000000000E-002     0.0000000000000000     
  -1.2899999999999998E-002     0.0000000000000000     
  -1.2600000000000000E-002     0.0000000000000000     
  -1.2299999999999998E-002     0.0000000000000000     
  -1.2000000000000000E-002     0.0000000000000000     
  -1.1699999999999999E-002     0.0000000000000000     
  -1.1399999999999999E-002     0.0000000000000000     
  -1.1099999999999999E-002     0.0000000000000000     
  -1.0799999999999999E-002     0.0000000000000000     
  -1.0499999999999999E-002     0.0000000000000000     
  -1.0199999999999999E-002     0.0000000000000000     
  -9.8999999999999991E-003     0.0000000000000000     
  -9.5999999999999992E-003     0.0000000000000000     
  -9.2999999999999992E-003     0.0000000000000000     
  -8.9999999999999993E-003     0.0000000000000000     
  -8.6999999999999994E-003     0.0000000000000000     
  -8.3999999999999995E-003     0.0000000000000000     
  -8.0999999999999996E-003     0.0000000000000000     
  -7.7999999999999988E-003     0.0000000000000000     
  -7.4999999999999997E-003     0.0000000000000000     
  -7.1999999999999998E-003     0.0000000000000000     
  -6.8999999999999981E-003     0.0000000000000000     
  -6.5999999999999982E-003     0.0000000000000000     
  -6.3000000000000000E-003     0.0000000000000000     
  -6.0000000000000001E-003     0.0000000000000000     
  -5.6999999999999985E-003     0.0000000000000000     
  -5.3999999999999986E-003     0.0000000000000000     
  -5.1000000000000004E-003     0.0000000000000000     
  -4.7999999999999987E-003     0.0000000000000000     
  -4.5000000000000005E-003     0.0000000000000000     
  -4.1999999999999989E-003     0.0000000000000000     
  -3.8999999999999990E-003     0.0000000000000000     
  -3.5999999999999990E-003     0.0000000000000000     
  -3.2999999999999991E-003     0.0000000000000000     
  -2.9999999999999992E-003     0.0000000000000000     
  -2.6999999999999993E-003     0.0000000000000000     
  -2.3999999999999994E-003     0.0000000000000000     
  -2.0999999999999977E-003     0.0000000000000000     
  -1.7999999999999995E-003     0.0000000000000000     
  -1.4999999999999979E-003     0.0000000000000000     
  -1.1999999999999997E-003     0.0000000000000000     
  -8.9999999999999976E-004     0.0000000000000000     
  -5.9999999999999810E-004     0.0000000000000000     
  -2.9999999999999992E-004     0.0000000000000000     
   0.0000000000000000          0.0000000000000000     
   3.0000000000000165E-004     0.0000000000000000     
   5.9999999999999984E-004     0.0000000000000000     
   9.0000000000000149E-004     0.0000000000000000     
   1.2000000000000031E-003     0.0000000000000000     
   1.5000000000000013E-003     0.0000000000000000     
   1.8000000000000030E-003     0.0000000000000000     
   2.1000000000000012E-003     0.0000000000000000     
   2.3999999999999994E-003     0.0000000000000000     
   2.7000000000000010E-003     0.0000000000000000     
   2.9999999999999992E-003     0.0000000000000000     
   3.3000000000000008E-003     0.0000000000000000     
   3.6000000000000025E-003     0.0000000000000000     
   3.9000000000000007E-003     0.0000000000000000     
   4.2000000000000023E-003     0.0000000000000000     
   4.5000000000000005E-003     0.0000000000000000     
   4.7999999999999987E-003     0.0000000000000000     
   5.1000000000000004E-003     0.0000000000000000     
   5.4000000000000020E-003     0.0000000000000000     
   5.7000000000000037E-003     0.0000000000000000     
   5.9999999999999984E-003     0.0000000000000000     
   6.3000000000000000E-003     0.0000000000000000     
   6.6000000000000017E-003     0.0000000000000000     
   6.9000000000000034E-003     0.0000000000000000     
   7.2000000000000015E-003     0.0000000000000000     
   7.5000000000000032E-003     0.0000000000000000     
   7.8000000000000014E-003     0.0000000000000000     
   8.0999999999999996E-003     0.0000000000000000     
   8.4000000000000012E-003     0.0000000000000000     
   8.7000000000000029E-003     0.0000000000000000     
   9.0000000000000011E-003     0.0000000000000000     
   9.2999999999999992E-003     0.0000000000000000     
   9.6000000000000009E-003     0.0000000000000000     
   9.8999999999999991E-003     0.0000000000000000     
   1.0200000000000001E-002     0.0000000000000000     
   1.0500000000000002E-002     0.0000000000000000     
   1.0800000000000004E-002     0.0000000000000000     
   1.1099999999999999E-002     0.0000000000000000     
   1.1400000000000000E-002     0.0000000000000000     
   1.1700000000000002E-002     0.0000000000000000     
   1.2000000000000004E-002     0.0000000000000000     
   1.2300000000000002E-002     0.0000000000000000     
   1.2600000000000000E-002     0.0000000000000000     
   1.2900000000000002E-002     0.0000000000000000     
   1.3200000000000000E-002     0.0000000000000000     
   1.3500000000000002E-002     0.0000000000000000     
   1.3800000000000003E-002     0.0000000000000000     
   1.4100000000000001E-002     0.0000000000000000     
   1.4400000000000000E-002     0.0000000000000000     
   1.4700000000000001E-002     0.0000000000000000     
   1.4999999999999999E-002     0.0000000000000000     
   1.5300000000000001E-002     0.0000000000000000     
   1.5600000000000003E-002     0.0000000000000000     
   1.5899999999999997E-002     0.0000000000000000     
   1.6199999999999999E-002     0.0000000000000000     
   1.6500000000000001E-002     0.0000000000000000     
   1.6800000000000002E-002     0.0000000000000000     
   1.7100000000000004E-002     0.0000000000000000     
   1.7400000000000006E-002     0.0000000000000000     
   1.7700000000000000E-002     0.0000000000000000     
   1.8000000000000002E-002     0.0000000000000000     
   1.8300000000000004E-002     0.0000000000000000     
   1.8600000000000005E-002     0.0000000000000000     
   1.8900000000000000E-002     0.0000000000000000     
   1.9200000000000002E-002    -1.1743653392480706E-041
   1.9500000000000003E-002     3.9687265354912706E-041
   1.9799999999999998E-002    -1.8940104148308304E-040
   2.0100000000000000E-002     3.5338446085362724E-040
   2.0400000000000001E-002    -8.3629923407913749E-041
   2.0700000000000003E-002    -6.2893117662599750E-038
   2.0999999999999998E-002     2.7394855554589237E-037
   2.1299999999999999E-002    -4.6536320911200066E-037
   2.1600000000000001E-002    -1.3568278657394446E-036
   2.1900000000000003E-002     5.4248408037242578E-036
   2.2200000000000004E-002    -1.2709323348685849E-035
   2.2500000000000006E-002     1.9594751094026288E-035
   2.2800000000000001E-002    -3.4045977947565696E-035
   2.3100000000000002E-002     1.5792426912154133E-034
   2.3400000000000004E-002    -3.3690343865170191E-034
   2.3699999999999999E-002     7.7456602575875517E-034
   2.4000000000000000E-002    -2.6367696930635314E-033
   2.4300000000000002E-002     9.5596555713470214E-033
   2.4599999999999997E-002    -2.7795962956323894E-032
   2.4900000000000005E-002     6.6427392520152700E-032
   2.5200000000000000E-002    -1.0790399348828279E-031
   2.5499999999999995E-002     2.5600953312602650E-032
   2.5800000000000003E-002     4.7648188179100654E-031
   2.6099999999999998E-002    -1.2202539556806463E-030
   2.6400000000000007E-002    -2.7544202633379146E-030
   2.6700000000000002E-002     3.6876727390534188E-029
   2.6999999999999996E-002    -1.8146287558655656E-028
   2.7300000000000005E-002     5.7607226629370759E-028
   2.7600000000000000E-002    -1.0474132499941401E-027
   2.7900000000000008E-002    -9.7610082574754156E-028
   2.8200000000000003E-002     1.7800644630434332E-026
   2.8499999999999998E-002    -8.9503249139130612E-026
   2.8800000000000006E-002     3.0816790283650572E-025
   2.9100000000000001E-002    -7.7997030017288368E-025
   2.9400000000000003E-002     1.2369843585505005E-024
   2.9700000000000004E-002     4.9823557338727353E-025
   3.0000000000000006E-002    -1.2567501205162491E-023
   3.0300000000000001E-002     5.5491222709207984E-023
   3.0600000000000002E-002    -1.5892236413054573E-022
   3.0900000000000004E-002     2.9576128310708039E-022
   3.1199999999999999E-002    -1.1809758175443349E-022
   3.1500000000000007E-002    -1.6579938201162575E-021
   3.1800000000000002E-002     7.7757148272995334E-021
   3.2099999999999997E-002    -1.9896336402019891E-020
   3.2400000000000005E-002     2.4848278876148096E-020
   3.2700000000000000E-002     3.8698868902634934E-020
   3.3000000000000002E-002    -3.0433292892493568E-019
   3.3300000000000003E-002     8.3360048616770910E-019
   3.3599999999999998E-002    -9.6715861427772103E-019
   3.3900000000000000E-002    -1.8501549388978661E-018
   3.4200000000000001E-002     1.1635613345587015E-017
   3.4500000000000003E-002    -2.5225249013136441E-017
   3.4799999999999998E-002     9.4502762687054291E-018
   3.5099999999999999E-002     1.1236062144511533E-016
   3.5400000000000001E-002    -3.6422202497881554E-016
   3.5699999999999996E-002     3.8308455145410718E-016
   3.6000000000000004E-002     9.0609835785202698E-016
   3.6299999999999999E-002    -4.2550606832564912E-015
   3.6600000000000008E-002     5.7950128103836638E-015
   3.6900000000000002E-002     7.5650025827557578E-015
   3.7199999999999997E-002    -4.5848083037072392E-014
   3.7500000000000006E-002     6.4328570901083861E-014
   3.7800000000000000E-002     8.3965100153228790E-014
   3.8100000000000009E-002    -4.7888480688722515E-013
   3.8400000000000004E-002     5.4525129259802020E-013
   3.8699999999999998E-002     1.2150270148653779E-012
   3.9000000000000007E-002    -4.7012216805411737E-012
   3.9300000000000002E-002     2.3956929477134437E-012
   3.9600000000000003E-002     1.7508174618242744E-011
   3.9900000000000005E-002    -3.6850781317953505E-011
   4.0200000000000000E-002    -2.6556646055803339E-011
   4.0500000000000001E-002     1.9470741012376794E-010
   4.0800000000000003E-002    -1.1086382234508481E-010
   4.1100000000000005E-002    -7.0992608042596830E-010
   4.1399999999999999E-002     1.1142650522761854E-009
   4.1700000000000008E-002     2.0243057362723809E-009
   4.2000000000000003E-002    -5.8403319035864066E-009
   4.2299999999999997E-002    -4.8354555569078138E-009
   4.2600000000000006E-002     2.4676779219173215E-008
   4.2900000000000001E-002     1.1552644923814497E-008
   4.3200000000000002E-002    -9.4895621733087766E-008
   4.3500000000000004E-002    -4.7702463074147786E-008
   4.3799999999999999E-002     3.2236716962311242E-007
   4.4100000000000000E-002     2.4573051052715902E-007
   4.4400000000000002E-002    -1.0295774866319401E-006
   4.4700000000000004E-002    -1.2924406416056883E-006
   4.4999999999999998E-002     4.3589124647480548E-006
   4.5300000000000000E-002     1.7529918652894770E-005
   4.5600000000000002E-002     3.3179347766592218E-005
   4.5899999999999996E-002     4.6582940494333382E-005
   4.6200000000000005E-002     6.1834601075289372E-005
   4.6500000000000000E-002     8.8784911782549346E-005
   4.6799999999999994E-002     1.3453931152330887E-004
   4.7100000000000003E-002     2.0519519780734725E-004
   4.7399999999999998E-002     3.1427908014460720E-004
   4.7700000000000006E-002     4.8144760040475258E-004
   4.8000000000000001E-002     7.2384313228193373E-004
   4.8300000000000010E-002     1.0580322170024511E-003
   4.8600000000000004E-002     1.5121109346037818E-003
   4.8899999999999999E-002     2.1288537840330368E-003
   4.9200000000000008E-002     2.9570903412489791E-003
   4.9500000000000002E-002     4.0480019000339387E-003
   4.9800000000000011E-002     5.4582879206897840E-003
   5.0100000000000006E-002     7.2449074583071380E-003
   5.0400000000000000E-002     9.4537758669014336E-003
   5.0700000000000009E-002     1.2117604662661312E-002
   5.1000000000000004E-002     1.5254249710476758E-002
   5.1299999999999998E-002     1.8847478989950324E-002
   5.1600000000000007E-002     2.2825842406009402E-002
   5.1900000000000002E-002     2.7060327250711627E-002
   5.2200000000000010E-002     3.1357950959638503E-002
   5.2500000000000005E-002     3.5437471888730830E-002
   5.2800000000000000E-002     3.8930734614317078E-002
   5.3099999999999994E-002     4.1417974292202203E-002
   5.3400000000000003E-002     4.2443992372604857E-002
   5.3699999999999998E-002     4.1515717156315274E-002
   5.4000000000000006E-002     3.8147438600928806E-002
   5.4300000000000001E-002     3.1953183478520886E-002
   5.4599999999999996E-002     2.2703533247819385E-002
   5.4900000000000004E-002     1.0347482913071016E-002
   5.5199999999999999E-002    -4.9194187071655788E-003
   5.5499999999999994E-002    -2.2578901493462540E-002
   5.5800000000000002E-002    -4.1792481617326481E-002
   5.6099999999999997E-002    -6.1453991755443145E-002
   5.6400000000000006E-002    -8.0234701504701758E-002
   5.6700000000000000E-002    -9.6662254505491152E-002
   5.6999999999999995E-002   -0.10929577698178770     
   5.7300000000000004E-002   -0.11689659452386679     
   5.7599999999999998E-002   -0.11855362625060537     
   5.7900000000000007E-002   -0.11386265316805520     
   5.8200000000000002E-002   -0.10312911179976447     
   5.8499999999999996E-002    -8.7449525961504238E-002
   5.8800000000000005E-002    -6.8712246627106441E-002
   5.9100000000000000E-002    -4.9529796978776637E-002
   5.9400000000000008E-002    -3.3125490171445851E-002
   5.9700000000000003E-002    -2.3070989344280764E-002
   6.0000000000000012E-002    -2.2980628984969942E-002
   6.0300000000000006E-002    -3.6175128904564709E-002
   6.0600000000000001E-002    -6.5304211079193389E-002
   6.0900000000000010E-002   -0.11194302599912420     
   6.1200000000000004E-002   -0.17625093876284487     
   6.1500000000000013E-002   -0.25674468692613095     
   6.1800000000000008E-002   -0.35016606946363654     
   6.2100000000000002E-002   -0.45136253242376051     
   6.2399999999999997E-002   -0.55343230550460953     
   6.2700000000000006E-002   -0.64802632940021132     
   6.3000000000000000E-002   -0.72572267821756931     
   6.3300000000000009E-002   -0.77658858323503011     
   6.3600000000000004E-002   -0.79082929253860534     
   6.3899999999999998E-002   -0.75964098220610010     
   6.4199999999999993E-002   -0.67599072176365316     
   6.4500000000000002E-002   -0.53542480808773218     
   6.4800000000000010E-002   -0.33689160339888519     
   6.5100000000000005E-002    -8.3254100486014643E-002
   6.5400000000000000E-002    0.21818306131887250     
   6.5700000000000008E-002    0.55580206878398208     
   6.5999999999999989E-002    0.91383233696505717     
   6.6299999999999998E-002     1.2730212419533826     
   6.6600000000000006E-002     1.6117563580629830     
   6.6900000000000001E-002     1.9073968128305663     
   6.7199999999999996E-002     2.1380538517002070     
   6.7500000000000004E-002     2.2842541544490493     
   6.7800000000000013E-002     2.3307175623855261     
   6.8099999999999994E-002     2.2678200820940297     
   6.8400000000000002E-002     2.0929628340696373     
   6.8700000000000011E-002     1.8110145683672454     
   6.8999999999999992E-002     1.4344576795785198     
   6.9300000000000000E-002    0.98266075211116677     
   6.9600000000000009E-002    0.48072343094357262     
   6.9900000000000004E-002    -4.2332084773618966E-002
   7.0199999999999999E-002   -0.55601701731989217     
   7.0500000000000007E-002    -1.0304620733561805     
   7.0800000000000016E-002    -1.4387893825981641     
   7.1099999999999997E-002    -1.7594745359197006     
   7.1400000000000005E-002    -1.9777562377823310     
   7.1700000000000000E-002    -2.0866481385102427     
   7.1999999999999995E-002    -2.0872223799905640     
   7.2300000000000003E-002    -1.9882148846971992     
   7.2600000000000012E-002    -1.8048499297588190     
   7.2900000000000006E-002    -1.5571492765301231     
   7.3200000000000001E-002    -1.2679176418199471     
   7.3499999999999996E-002   -0.96065078404084736     
   7.3800000000000004E-002   -0.65737933233769064     
   7.4099999999999999E-002   -0.37679888347108337     
   7.4400000000000008E-002   -0.13324714542192234     
   7.4700000000000003E-002     6.4262378123873337E-002
   7.5000000000000011E-002    0.21223869778364288     
   7.5299999999999992E-002    0.31213971724031664     
   7.5600000000000001E-002    0.36958192639407694     
   7.5900000000000009E-002    0.39299235333731952     
   7.6200000000000004E-002    0.39244722010754957     
   7.6499999999999999E-002    0.37811299438918700     
   7.6800000000000007E-002    0.35896716509645277     
   7.7099999999999988E-002    0.34215881796314379     
   7.7399999999999997E-002    0.33245627278870338     
   7.7700000000000005E-002    0.33192177361672642     
   7.8000000000000014E-002    0.34027869932414123     
   7.8299999999999995E-002    0.35568613706667629     
   7.8600000000000003E-002    0.37522539243406838     
   7.8900000000000012E-002    0.39564313054810557     
   7.9199999999999993E-002    0.41427528174683043     
   7.9500000000000001E-002    0.42950625438743500     
   7.9800000000000010E-002    0.44087602501646717     
   8.0100000000000018E-002    0.44914863160805740     
   8.0399999999999999E-002    0.45628675318769518     
   8.0700000000000008E-002    0.46443463146021613     
   8.1000000000000003E-002    0.47557058990055134     
   8.1299999999999997E-002    0.49097884887111454     
   8.1600000000000006E-002    0.51026368103918562     
   8.1900000000000014E-002    0.53141551131827736     
   8.2199999999999995E-002    0.55053201473685887     
   8.2500000000000004E-002    0.56159273876559346     
   8.2799999999999999E-002    0.55770049075329375     
   8.3100000000000007E-002    0.53118097270460551     
   8.3400000000000002E-002    0.47452197387112127     
   8.3700000000000011E-002    0.38161495966607201     
   8.4000000000000005E-002    0.24859352856380756     
   8.4300000000000000E-002     7.4035771157622152E-002
   8.4599999999999995E-002   -0.13972763144198058     
   8.4900000000000003E-002   -0.38694670011023485     
   8.5199999999999998E-002   -0.65853560527550803     
   8.5500000000000007E-002   -0.94249994915142277     
   8.5800000000000001E-002    -1.2246081353144911     
   8.6100000000000010E-002    -1.4894169851042853     
   8.6399999999999991E-002    -1.7214368417721226     
   8.6699999999999999E-002    -1.9060824921801514     
   8.7000000000000008E-002    -2.0306105279434381     
   8.7300000000000003E-002    -2.0852552920290615     
   8.7599999999999997E-002    -2.0635016249133944     
   8.7900000000000006E-002    -1.9629385669004162     
   8.8200000000000014E-002    -1.7849707065413933     
   8.8499999999999995E-002    -1.5350750286947878     
   8.8800000000000004E-002    -1.2225224482010488     
   8.9100000000000013E-002   -0.85987173600207167     
   8.9399999999999993E-002   -0.46226825348305423     
   8.9700000000000002E-002    -4.7128871447380094E-002
   9.0000000000000011E-002    0.36687311786566246     
   9.0299999999999991E-002    0.76074288978814986     
   9.0600000000000000E-002     1.1157223035723123     
   9.0900000000000009E-002     1.4143073332359042     
   9.1200000000000017E-002     1.6416032571758117     
   9.1499999999999998E-002     1.7855036126293431     
   9.1800000000000007E-002     1.8381388397241940     
   9.2100000000000001E-002     1.7963396078806986     
   9.2399999999999996E-002     1.6621868526736492     
   9.2700000000000005E-002     1.4431845769598908     
   9.3000000000000013E-002     1.1524743297756310     
   9.3300000000000008E-002    0.80810661966496677     
   9.3600000000000003E-002    0.43230359022503406     
   9.3899999999999997E-002     5.0486746118718173E-002
   9.4200000000000006E-002   -0.31059837273608215     
   9.4500000000000001E-002   -0.62420540490308807     
   9.4800000000000009E-002   -0.86568228337884889     
   9.5100000000000004E-002    -1.0146044838372568     
   9.5399999999999999E-002    -1.0559203635302805     
   9.5699999999999993E-002   -0.98169732085499506     
   9.6000000000000002E-002   -0.79208538087003733     
   9.6300000000000011E-002   -0.49538854721811165     
   9.6600000000000005E-002   -0.10790242979502965     
   9.6900000000000000E-002    0.34672719672473051     
   9.7200000000000009E-002    0.83960965479543637     
   9.7499999999999989E-002     1.3381904872133839     
   9.7799999999999998E-002     1.8086947512580225     
   9.8100000000000007E-002     2.2188753283111948     
   9.8400000000000015E-002     2.5400355379497337     
   9.8699999999999996E-002     2.7495526448896390     
   9.9000000000000005E-002     2.8322277872283017     
   9.9300000000000013E-002     2.7813290955920924     
   9.9599999999999994E-002     2.5989722566732558     
   9.9900000000000003E-002     2.2954653927663058     
  0.10020000000000001          1.8883031339852199     
  0.10049999999999999          1.4004399071416422     
  0.10080000000000000         0.85833411038372742     
  0.10110000000000001         0.28964361153747409     
  0.10140000000000000        -0.27857450253778476     
  0.10170000000000000        -0.82173782318617783     
  0.10200000000000001         -1.3190985502077281     
  0.10230000000000002         -1.7545119331404986     
  0.10260000000000000         -2.1166126399245280     
  0.10290000000000001         -2.3986044785055878     
  0.10320000000000000         -2.5979504761942205     
  0.10350000000000001         -2.7149638871661033     
  0.10380000000000000         -2.7526758853643498     
  0.10410000000000001         -2.7156056054336086     
  0.10440000000000001         -2.6090583271798193     
  0.10470000000000000         -2.4393951405585916     
  0.10500000000000000         -2.2131895322788786     
  0.10530000000000000         -1.9379118346539488     
  0.10560000000000000         -1.6220792164843691     
  0.10590000000000001         -1.2752994208876514     
  0.10620000000000000        -0.90852066347562022     
  0.10650000000000001        -0.53419711574833117     
  0.10679999999999999        -0.16577396859000232     
  0.10710000000000000         0.18287418020053794     
  0.10740000000000001         0.49768258110849040     
  0.10770000000000000         0.76603130934711916     
  0.10800000000000000         0.97700753346357561     
  0.10830000000000001          1.1223854689689909     
  0.10859999999999999          1.1975935866373226     
  0.10890000000000000          1.2015034956479695     
  0.10920000000000001          1.1369045859782272     
  0.10950000000000001          1.0101513855713322     
  0.10979999999999999         0.83068609396946591     
  0.11009999999999999         0.61031598585148217     
  0.11040000000000001         0.36269446133547656     
  0.11070000000000001         0.10231207185283850     
  0.11100000000000000        -0.15624001289683215     
  0.11130000000000000        -0.39842033437799651     
  0.11160000000000002        -0.61083560574866724     
  0.11190000000000001        -0.78110185139641719     
  0.11220000000000001        -0.89838860204229576     
  0.11250000000000000        -0.95368266827542980     
  0.11280000000000000        -0.94017754320492464     
  0.11309999999999999        -0.85344414273674196     
  0.11340000000000001        -0.69210393146608262     
  0.11369999999999998        -0.45862004814141810     
  0.11400000000000000        -0.15902742212869858     
  0.11430000000000000         0.19598822572150607     
  0.11460000000000002         0.59122539815784558     
  0.11489999999999999          1.0076640722544394     
  0.11520000000000001          1.4221392911326012     
  0.11550000000000001          1.8090256632272776     
  0.11580000000000000          2.1415995017496972     
  0.11609999999999999          2.3937572853957096     
  0.11640000000000002          2.5418006328543132     
  0.11670000000000001          2.5669045806325221     
  0.11700000000000001          2.4564497844579054     
  0.11730000000000000          2.2059197762825851     
  0.11760000000000000          1.8197545220543079     
  0.11789999999999999          1.3113506294990298     
  0.11820000000000001         0.70338978959217902     
  0.11850000000000001          2.5916384261243985E-002
  0.11880000000000000        -0.68500801627210917     
  0.11910000000000000         -1.3895123087830203     
  0.11940000000000002         -2.0471342239698522     
  0.11970000000000001         -2.6189521569716820     
  0.12000000000000001         -3.0708201130813624     
  0.12030000000000000         -3.3753145128080817     
  0.12060000000000000         -3.5140336229522715     
  0.12089999999999999         -3.4784165937253171     
  0.12119999999999999         -3.2705177079727479     
  0.12150000000000001         -2.9025712015137004     
  0.12180000000000001         -2.3962493291965243     
  0.12210000000000000         -1.7809699961257315     
  0.12239999999999999         -1.0914480358314866     
  0.12270000000000002        -0.36609809136863469     
  0.12300000000000001         0.35632882764526308     
  0.12330000000000001          1.0386071209455832     
  0.12360000000000000          1.6473024197274579     
  0.12390000000000000          2.1549110161342275     
  0.12419999999999999          2.5406787103062376     
  0.12450000000000001          2.7918836664688387     
  0.12480000000000001          2.9036486275152771     
  0.12509999999999999          2.8790201818366872     
  0.12540000000000001          2.7278393282143747     
  0.12570000000000003          2.4660434404892744     
  0.12600000000000000          2.1141357680963586     
  0.12630000000000002          1.6956912195965141     
  0.12659999999999999          1.2360854645652450     
  0.12690000000000001         0.76053467139290842     
  0.12719999999999998         0.29354354167680707     
  0.12750000000000000        -0.14289041351320630     
  0.12780000000000002        -0.52965811947431307     
  0.12809999999999999        -0.85131916936791496     
  0.12840000000000001         -1.0967068092338574     
  0.12869999999999998         -1.2587430615641746     
  0.12900000000000000         -1.3347837320733480     
  0.12930000000000003         -1.3260857459405915     
  0.12959999999999999         -1.2377601749561171     
  0.12990000000000002         -1.0782823338620457     
  0.13019999999999998        -0.85903966675954324     
  0.13050000000000000        -0.59355862564417339     
  0.13080000000000003        -0.29705465712883694     
  0.13109999999999999          1.4142622419703529E-002
  0.13140000000000002         0.32354607887932030     
  0.13169999999999998         0.61506616239950240     
  0.13200000000000001         0.87366893664902201     
  0.13229999999999997          1.0863125494232053     
  0.13260000000000000          1.2425560136274076     
  0.13290000000000002          1.3348363720151921     
  0.13319999999999999          1.3592378650291517     
  0.13350000000000001          1.3159599464728757     
  0.13380000000000003          1.2088060616495513     
  0.13410000000000000          1.0457271145484683     
  0.13440000000000002         0.83792848125762809     
  0.13469999999999999         0.59936929064583011     
  0.13500000000000001         0.34573598640057690     
  0.13529999999999998          9.3725426784471155E-002
  0.13560000000000000        -0.14065038699029314     
  0.13590000000000002        -0.34314095879932693     
  0.13619999999999999        -0.50217054375577508     
  0.13650000000000001        -0.61021492595367310     
  0.13680000000000003        -0.66433028813140904     
  0.13710000000000000        -0.66614808170734996     
  0.13740000000000002        -0.62229415077561090     
  0.13769999999999999        -0.54393407150615780     
  0.13800000000000001        -0.44499941611287552     
  0.13829999999999998        -0.34191518020959266     
  0.13860000000000000        -0.25197077066660317     
  0.13890000000000002        -0.19100438053645766     
  0.13919999999999999        -0.17328357948929418     
  0.13950000000000001        -0.20933536688353216     
  0.13979999999999998        -0.30503788457843917     
  0.14010000000000000        -0.46159883358195331     
  0.14040000000000002        -0.67511080666268120     
  0.14069999999999999        -0.93661268376466422     
  0.14100000000000001         -1.2334372033515910     
  0.14130000000000004         -1.5498616140545420     
  0.14160000000000000         -1.8678768337595959     
  0.14189999999999997         -2.1695194090655807     
  0.14219999999999999         -2.4372355989059744     
  0.14250000000000002         -2.6552221641864828     
  0.14279999999999998         -2.8105353611074397     
  0.14310000000000000         -2.8938753608107008     
  0.14339999999999997         -2.8993463431699689     
  0.14369999999999999         -2.8248923114267854     
  0.14400000000000002         -2.6726372073794309     
  0.14429999999999998         -2.4475684210594313     
  0.14460000000000001         -2.1575749442683545     
  0.14490000000000003         -1.8134883786850677     
  0.14520000000000000         -1.4273967463179207     
  0.14550000000000002         -1.0126811954417945     
  0.14579999999999999        -0.58409703476666963     
  0.14610000000000001        -0.15613792278256264     
  0.14640000000000003         0.25665513869526391     
  0.14670000000000000         0.63971555162571703     
  0.14699999999999996         0.98026061604239767     
  0.14729999999999999          1.2665365275193010     
  0.14760000000000001          1.4885480752232669     
  0.14789999999999998          1.6399019485304114     
  0.14820000000000000          1.7168540897289630     