  -1.4999999999999999E-002     0.0000000000000000     
  -1.4700000000000000E-002     2.7931077002164207E-006
  -1.4400000000000000E-002     5.9070264368494420E-006
  -1.4100000000000000E-002    -1.8860186707824456E-005
  -1.3800000000000000E-002    -5.0539865183510614E-005
  -1.3500000000000000E-002    -2.5873791051582556E-005
  -1.3200000000000000E-002     3.8847070839425345E-005
  -1.2899999999999998E-002     1.0875364086721720E-004
  -1.2600000000000000E-002     3.9582482963299407E-005
  -1.2299999999999998E-002    -6.9682499471446653E-005
  -1.2000000000000000E-002    -2.7281660238648341E-004
  -1.1699999999999999E-002    -2.7134909401115221E-004
  -1.1399999999999999E-002    -2.0046654279914222E-004
  -1.1099999999999999E-002     9.7324662142743445E-005
  -1.0799999999999999E-002     2.1474272178421359E-004
  -1.0499999999999999E-002     4.3970163153507974E-004
  -1.0199999999999999E-002     5.5319700715132625E-004
  -9.8999999999999991E-003     9.4298074013802460E-004
  -9.5999999999999992E-003     1.3692996452139006E-003
  -9.2999999999999992E-003     2.0802243376075022E-003
  -8.9999999999999993E-003     3.1542479246488022E-003
  -8.6999999999999994E-003     4.7245901286031653E-003
  -8.3999999999999995E-003     7.3910678668232116E-003
  -8.0999999999999996E-003     1.1202146669767286E-002
  -7.7999999999999988E-003     1.7056132854197208E-002
  -7.4999999999999997E-003     2.4540587311939921E-002
  -7.1999999999999998E-003     3.4933176789037651E-002
  -6.8999999999999981E-003     4.7627330920891206E-002
  -6.5999999999999982E-003     6.4424705183308423E-002
  -6.3000000000000000E-003     8.3787028031842292E-002
  -6.0000000000000001E-003    0.10706764643688231     
  -5.6999999999999985E-003    0.13129376707548263     
  -5.3999999999999986E-003    0.15606669298050849     
  -5.1000000000000004E-003    0.17583868749162593     
  -4.7999999999999987E-003    0.18650027755399895     
  -4.5000000000000005E-003    0.17806706390049798     
  -4.1999999999999989E-003    0.14061566875882739     
  -3.8999999999999990E-003     5.7875396785462246E-002
  -3.5999999999999990E-003    -8.7432149238956952E-002
  -3.2999999999999991E-003   -0.31754994220489602     
  -2.9999999999999992E-003   -0.65607802112922631     
  -2.6999999999999993E-003    -1.1283704394635818     
  -2.3999999999999994E-003    -1.7585604207611443     
  -2.0999999999999977E-003    -2.5662186068535657     
  -1.7999999999999995E-003    -3.5643746169399932     
  -1.4999999999999979E-003    -4.7528256474641992     
  -1.1999999999999997E-003    -6.1166658316630720     
  -8.9999999999999976E-004    -7.6185247814563466     
  -5.9999999999999810E-004    -9.1992662884394125     
  -2.9999999999999992E-004    -10.772169645553454     
   0.0000000000000000         -12.227019918427635     
   3.0000000000000165E-004    -13.429900151309454     
   5.9999999999999984E-004    -14.232374270537392     
   9.0000000000000149E-004    -14.477662295521835     
   1.2000000000000031E-003    -14.016560088459515     
   1.5000000000000013E-003    -12.719572409296605     
   1.8000000000000030E-003    -10.493199293537558     
   2.1000000000000012E-003    -7.2941738496911590     
   2.3999999999999994E-003    -3.1435432812030797     
   2.7000000000000010E-003     1.8653488427778653     
   2.9999999999999992E-003     7.5644712588083500     
   3.3000000000000008E-003     13.714799281133004     
   3.6000000000000025E-003     20.015293451769715     
   3.9000000000000007E-003     26.123168908438402     
   4.2000000000000023E-003     31.675662395471655     
   4.5000000000000005E-003     36.318371368870174     
   4.7999999999999987E-003     39.732223248880914     
   5.1000000000000004E-003     41.660981179495046     
   5.4000000000000020E-003     41.934681259101602     
   5.7000000000000037E-003     40.483719951838488     
   5.9999999999999984E-003     37.348176235708792     
   6.3000000000000000E-003     32.671897982410584     
   6.6000000000000017E-003     26.697661659451484     
   6.9000000000000034E-003     19.737751313562022     
   7.2000000000000015E-003     12.163198666128121     
   7.5000000000000032E-003     4.3563050599142326     
   7.8000000000000014E-003    -3.2990403279410785     
   8.0999999999999996E-003    -10.462299900332688     
   8.4000000000000012E-003    -16.842126407910289     
   8.7000000000000029E-003    -22.225968551588888     
   9.0000000000000011E-003    -26.478377066831719     
   9.2999999999999992E-003    -29.546229366670516     
   9.6000000000000009E-003    -31.449693909390923     
   9.8999999999999991E-003    -32.270101854987203     
   1.0200000000000001E-002    -32.136262187516643     
   1.0500000000000002E-002    -31.200946749679154     
   1.0800000000000004E-002    -29.631950597743760     
   1.1099999999999999E-002    -27.586693651973672     
   1.1400000000000000E-002    -25.209494207445406     
   1.1700000000000002E-002    -22.615895212422028     
   1.2000000000000004E-002    -19.896807888796936     
   1.2300000000000002E-002    -17.114099062756182     
   1.2600000000000000E-002    -14.307935752212792     
   1.2900000000000002E-002    -11.502700234610851     
   1.3200000000000000E-002    -8.7135812410899725     
   1.3500000000000002E-002    -5.9573445601893500     
   1.3800000000000003E-002    -3.2536540388124076     
   1.4100000000000001E-002   -0.63424277049663758     
   1.4400000000000000E-002     1.8617574492119573     
   1.4700000000000001E-002     4.1817870549043707     
   1.4999999999999999E-002     6.2713384928931397     
   1.5300000000000001E-002     8.0706805834029112     
   1.5600000000000003E-002     9.5289967494694565     
   1.5899999999999997E-002     10.601719246191871     
   1.6199999999999999E-002     11.264429318789212     
   1.6500000000000001E-002     11.508046153057439     
   1.6800000000000002E-002     11.347168291630787     
   1.7100000000000004E-002     10.814102727659080     
   1.7400000000000006E-002     9.9644044565763679     
   1.7700000000000000E-002     8.8638728423123041     
   1.8000000000000002E-002     7.5939102124376845     
   1.8300000000000004E-002     6.2365647267078623     
   1.8600000000000005E-002     4.8795216283723972     
   1.8900000000000000E-002     3.5978876086460945     
   1.9200000000000002E-002     2.4646993842042519     
   1.9500000000000003E-002     1.5315117146914694     
   1.9799999999999998E-002    0.84059798218708748     
   2.0100000000000000E-002    0.40706522609665463     
   2.0400000000000001E-002    0.23677070946593892     
   2.0700000000000003E-002    0.30775435941953960     
   2.0999999999999998E-002    0.59009597338889475     
   2.1299999999999999E-002     1.0324799222796854     
   2.1600000000000001E-002     1.5819303890174110     
   2.1900000000000003E-002     2.1731853677518549     
   2.2200000000000004E-002     2.7465349714831357     
   2.2500000000000006E-002     3.2416374920542048     
   2.2800000000000001E-002     3.6105687732153933     
   2.3100000000000002E-002     3.8140633207977919     
   2.3400000000000004E-002     3.8290370070428459     
   2.3699999999999999E-002     3.6466776289111813     
   2.4000000000000000E-002     3.2725044363028384     
   2.4300000000000002E-002     2.7275706804213167     
   2.4599999999999997E-002     2.0428143548277289     
   2.4900000000000005E-002     1.2600222264598622     
   2.5200000000000000E-002    0.42377100306257298     
   2.5499999999999995E-002   -0.41542746640814532     
   2.5800000000000003E-002    -1.2119798769594441     
   2.6099999999999998E-002    -1.9194009657795204     
   2.6400000000000007E-002    -2.5030256970331779     
   2.6700000000000002E-002    -2.9311460572618051     
   2.6999999999999996E-002    -3.1880104420252180     
   2.7300000000000005E-002    -3.2628621423957798     
   2.7600000000000000E-002    -3.1628906516433428     
   2.7900000000000008E-002    -2.8995826104174989     
   2.8200000000000003E-002    -2.5020646350484181     
   2.8499999999999998E-002    -2.0000214288275533     
   2.8800000000000006E-002    -1.4374022845285679     
   2.9100000000000001E-002   -0.85318201570802943     
   2.9400000000000003E-002   -0.29411001593292746     
   2.9700000000000004E-002    0.20386314897768515     
   3.0000000000000006E-002    0.60330553347301230     
   3.0300000000000001E-002    0.88215200999917975     
   3.0600000000000002E-002     1.0228857375404861     
   3.0900000000000004E-002     1.0236696677325694     
   3.1199999999999999E-002    0.88847586735809558     
   3.1500000000000007E-002    0.63476345562058811     
   3.1800000000000002E-002    0.28491884933941480     
   3.2099999999999997E-002   -0.13144919912922728     
   3.2400000000000005E-002   -0.58332032143925683     
   3.2700000000000000E-002    -1.0374568756735374     
   3.3000000000000002E-002    -1.4635259654014949     
   3.3300000000000003E-002    -1.8332983633162432     
   3.3599999999999998E-002    -2.1248390294293085     
   3.3900000000000000E-002    -2.3196550654613608     
   3.4200000000000001E-002    -2.4087084287608045     
   3.4500000000000003E-002    -2.3858482693668241     
   3.4799999999999998E-002    -2.2563095962872333     
   3.5099999999999999E-002    -2.0261242188547230     
   3.5400000000000001E-002    -1.7138631326468206     
   3.5699999999999996E-002    -1.3353696702395839     
   3.6000000000000004E-002   -0.91799996745431622     
   3.6299999999999999E-002   -0.48283245631929661     
   3.6600000000000008E-002    -5.8941158843075436E-002
   3.6900000000000002E-002    0.33461877643452848     
   3.7199999999999997E-002    0.67441088535986082     
   3.7500000000000006E-002    0.94951645278105223     
   3.7800000000000000E-002     1.1490589795111426     
   3.8100000000000009E-002     1.2734456712288962     
   3.8400000000000004E-002     1.3247927906313448     
   3.8699999999999998E-002     1.3128635937490274     
   3.9000000000000007E-002     1.2493700135389485     
   3.9300000000000002E-002     1.1470377515317614     
   3.9600000000000003E-002     1.0193048060806225     
   3.9900000000000005E-002    0.87548380875626941     
   4.0200000000000000E-002    0.72557061044996818     
   4.0500000000000001E-002    0.57194871484392662     
   4.0800000000000003E-002    0.41924147421015756     
   4.1100000000000005E-002    0.26445310440170389     
   4.1399999999999999E-002    0.11060958316368638     
   4.1700000000000008E-002    -4.4790074678058150E-002
   4.2000000000000003E-002   -0.19499916904297873     
   4.2299999999999997E-002   -0.33790763781553196     
   4.2600000000000006E-002   -0.46045080458095194     
   4.2900000000000001E-002   -0.55437370368204020     
   4.3200000000000002E-002   -0.60209045345763146     
   4.3500000000000004E-002   -0.59444170033151567     
   4.3799999999999999E-002   -0.51622287661244781     
   4.4100000000000000E-002   -0.36525026444476788     
   4.4400000000000002E-002   -0.13643353269722086     
   4.4700000000000004E-002    0.15889365397366981     
   4.4999999999999998E-002    0.51125949662401182     
   4.5300000000000000E-002    0.89471622777922610     
   4.5600000000000002E-002     1.2863196679989075     
   4.5899999999999996E-002     1.6517819064836317     
   4.6200000000000005E-002     1.9637736364842562     
   4.6500000000000000E-002     2.1905240311656375     
   4.6799999999999994E-002     2.3117212688442028     
   4.7100000000000003E-002     2.3098859290696288     
   4.7399999999999998E-002     2.1806966479068004     
   4.7700000000000006E-002     1.9283685898322762     
   4.8000000000000001E-002     1.5676730246209305     
   4.8300000000000010E-002     1.1231369092948968     
   4.8600000000000004E-002    0.62272170888952483     
   4.8899999999999999E-002    0.10199158719707380     
   4.9200000000000008E-002   -0.40816969085051902     
   4.9500000000000002E-002   -0.87345690696758160     
   4.9800000000000011E-002    -1.2724640110961773     
   5.0100000000000006E-002    -1.5832038338622054     
   5.0400000000000000E-002    -1.8002199537672048     
   5.0700000000000009E-002    -1.9172193456960114     
   5.1000000000000004E-002    -1.9450682265890098     
   5.1299999999999998E-002    -1.8900157049988349     
   5.1600000000000007E-002    -1.7729453610148991     
   5.1900000000000002E-002    -1.6054615262267400     
   5.2200000000000010E-002    -1.4105032481561790     
   5.2500000000000005E-002    -1.1973735260448570     
   5.2800000000000000E-002   -0.98511594016427928     
   5.3099999999999994E-002   -0.77687148730687983     
   5.3400000000000003E-002   -0.58686572453135910     
   5.3699999999999998E-002   -0.41168388908235443     
   5.4000000000000006E-002   -0.26122401087579128     
   5.4300000000000001E-002   -0.12782780314784381     
   5.4599999999999996E-002    -1.9294691850824428E-002
   5.4900000000000004E-002     7.4177123572877868E-002
   5.5199999999999999E-002    0.14607044257046981     
   5.5499999999999994E-002    0.20694976276025123     
   5.5800000000000002E-002    0.25152407682432865     
   5.6099999999999997E-002    0.29016432776091106     
   5.6400000000000006E-002    0.31936421895341804     
   5.6700000000000000E-002    0.34835379095318625     
   5.6999999999999995E-002    0.37414302025722257     
   5.7300000000000004E-002    0.40284026761225805     
   5.7599999999999998E-002    0.43190505326871409     
   5.7900000000000007E-002    0.46355208589519237     
   5.8200000000000002E-002    0.49499913209923563     
   5.8499999999999996E-002    0.52403674083087526     
   5.8800000000000005E-002    0.54832072628872042     
   5.9100000000000000E-002    0.56363311689241935     
   5.9400000000000008E-002    0.56864493677064543     
   5.9700000000000003E-002    0.55920769276224114     
   6.0000000000000012E-002    0.53579918094105572     
   6.0300000000000006E-002    0.49571759576431940     
   6.0600000000000001E-002    0.44158115899848605     
   6.0900000000000010E-002    0.37260075658149189     
   6.1200000000000004E-002    0.29213211741825179     
   6.1500000000000013E-002    0.20158661821650214     
   6.1800000000000008E-002    0.10462031343295547     
   6.2100000000000002E-002     3.7701107403156423E-003
   6.2399999999999997E-002    -9.7557323930710038E-002
   6.2700000000000006E-002   -0.19548818999597795     
   6.3000000000000000E-002   -0.28728597060858130     
   6.3300000000000009E-002   -0.36886882851367586     
   6.3600000000000004E-002   -0.43759109088886350     
   6.3899999999999998E-002   -0.49033618617874752     
   6.4199999999999993E-002   -0.52526968318433376     
   6.4500000000000002E-002   -0.54151308914039675     
   6.4800000000000010E-002   -0.53851995921921036     
   6.5100000000000005E-002   -0.51739807015132655     
   6.5400000000000000E-002   -0.47964522806611576     
   6.5700000000000008E-002   -0.42841723825100608     
   6.5999999999999989E-002   -0.36634231854460347     
   6.6299999999999998E-002   -0.29762971038956654     
   6.6600000000000006E-002   -0.22523036301457797     
   6.6900000000000001E-002   -0.15244260355730399     
   6.7199999999999996E-002    -8.2410179895328534E-002
   6.7500000000000004E-002    -1.7009031318105411E-002
   6.7800000000000013E-002     4.0749020819656645E-002
   6.8099999999999994E-002     9.0990297013514854E-002
   6.8400000000000002E-002    0.13080978484443451     
   6.8700000000000011E-002    0.16193330885948787     
   6.8999999999999992E-002    0.18149024613178844     
   6.9300000000000000E-002    0.19249874637273129     
   6.9600000000000009E-002    0.19299305973467873     
   6.9900000000000004E-002    0.18682583254222140     
   7.0199999999999999E-002    0.17347501295866097     
   7.0500000000000007E-002    0.15683945506333813     
   7.0800000000000016E-002    0.13737260036000937     
   7.1099999999999997E-002    0.11888352554421464     
   7.1400000000000005E-002    0.10229267372567395     
   7.1700000000000000E-002     8.9778469424632135E-002
   7.1999999999999995E-002     8.1825655077681914E-002
   7.2300000000000003E-002     7.8674453147971016E-002
   7.2600000000000012E-002     8.0181977521913514E-002
   7.2900000000000006E-002     8.5168469337561864E-002
   7.3200000000000001E-002     9.2635847389555964E-002
   7.3499999999999996E-002    0.10085681348882221     
   7.3800000000000004E-002    0.10855281518529267     
   7.4099999999999999E-002    0.11525410248512886     
   7.4400000000000008E-002    0.11939022940221489     
   7.4700000000000003E-002    0.12169266659174233     
   7.5000000000000011E-002    0.12110609333962707     
   7.5299999999999992E-002    0.11921358451836858     
   7.5600000000000001E-002    0.11468174809920945     
   7.5900000000000009E-002    0.10955617775768732     
   7.6200000000000004E-002    0.10251274737079230     
   7.6499999999999999E-002     9.4861907361109124E-002
   7.6800000000000007E-002     8.5658540056281929E-002
   7.7099999999999988E-002     7.5189636742875571E-002
   7.7399999999999997E-002     6.3352018040681177E-002
   7.7700000000000005E-002     4.9261309950593239E-002
   7.8000000000000014E-002     3.4510613083984044E-002
   7.8299999999999995E-002     1.6872203664415778E-002
   7.8600000000000003E-002    -1.6478280736598617E-004
   7.8900000000000012E-002    -2.0084362134384245E-002
   7.9199999999999993E-002    -3.8145950669229170E-002
   7.9500000000000001E-002    -5.8674092471232370E-002
   7.9800000000000010E-002    -7.5878758929649529E-002
   8.0100000000000018E-002    -9.4170152855714381E-002
   8.0399999999999999E-002   -0.10792049983432350     
   8.0700000000000008E-002   -0.12132418131546385     
   8.1000000000000003E-002   -0.12916252761414421     
   8.1299999999999997E-002   -0.13445549574086546     
   8.1600000000000006E-002   -0.13367664443770763     
   8.1900000000000014E-002   -0.12924088594649269     
   8.2199999999999995E-002   -0.11913076807301343     
   8.2500000000000004E-002   -0.10470760293545558     
   8.2799999999999999E-002    -8.6224591334676748E-002
   8.3100000000000007E-002    -6.4670634424358664E-002
   8.3400000000000002E-002    -4.1491845389785793E-002
   8.3700000000000011E-002    -1.6837276390880743E-002
   8.4000000000000005E-002     7.0537218680629572E-003
   8.4300000000000000E-002     3.0214628956029076E-002
   8.4599999999999995E-002     5.0844393542438936E-002
   8.4900000000000003E-002     6.9201532011041941E-002
   8.5199999999999998E-002     8.4405660658398371E-002
   8.5500000000000007E-002     9.6328084933033811E-002
   8.5800000000000001E-002    0.10448483330547391     
   8.6100000000000010E-002    0.10865539259670129     
   8.6399999999999991E-002    0.10893313489866353     
   8.6699999999999999E-002    0.10445538786939031     
   8.7000000000000008E-002     9.5630388473130185E-002
   8.7300000000000003E-002     8.1438723572777608E-002
   8.7599999999999997E-002     6.3033079332556585E-002
   8.7900000000000006E-002     3.9718051851612632E-002
   8.8200000000000014E-002     1.2978657487933972E-002
   8.8499999999999995E-002    -1.7184626942345346E-002
   8.8800000000000004E-002    -4.8985681322502868E-002
   8.9100000000000013E-002    -8.1655012438812333E-002
   8.9399999999999993E-002   -0.11369988570014279     
   8.9700000000000002E-002   -0.14435547077107816     
   9.0000000000000011E-002   -0.17223292103080223     
   9.0299999999999991E-002   -0.19675230152161624     
   9.0600000000000000E-002   -0.21700082038062429     
   9.0900000000000009E-002   -0.23251912268206248     
   9.1200000000000017E-002   -0.24240013454782916     
   9.1499999999999998E-002   -0.24631989653223346     
   9.1800000000000007E-002   -0.24392683625411465     
   9.2100000000000001E-002   -0.23505107998065505     
   9.2399999999999996E-002   -0.21925263987092702     
   9.2700000000000005E-002   -0.19747176858125159     
   9.3000000000000013E-002   -0.17018367105718749     
   9.3300000000000008E-002   -0.13892509463327182     
   9.3600000000000003E-002   -0.10495043284669306     
   9.3899999999999997E-002    -7.0632043699435959E-002
   9.4200000000000006E-002    -3.7904027414108178E-002
   9.4500000000000001E-002    -8.3797386827727215E-003
   9.4800000000000009E-002     1.6243499521003742E-002
   9.5100000000000004E-002     3.5691862745459435E-002
   9.5399999999999999E-002     4.9050434747144031E-002
   9.5699999999999993E-002     5.7936511994436363E-002
   9.6000000000000002E-002     6.2678941127235391E-002
   9.6300000000000011E-002     6.6308720478773342E-002
   9.6600000000000005E-002     6.9382626248602142E-002
   9.6900000000000000E-002     7.5746429564967244E-002
   9.7200000000000009E-002     8.5046874324949534E-002
   9.7499999999999989E-002    0.10056580179721410     
   9.7799999999999998E-002    0.12097721550956053     
   9.8100000000000007E-002    0.14836853054515536     
   9.8400000000000015E-002    0.18006631523109518     
   9.8699999999999996E-002    0.21693704854714166     
   9.9000000000000005E-002    0.25525049157833157     
   9.9300000000000013E-002    0.29513632576960119     
   9.9599999999999994E-002    0.33194999539410019     
   9.9900000000000003E-002    0.36599956556586044     
  0.10020000000000001         0.39185929489384508     
  0.10049999999999999         0.41020088021089529     
  0.10080000000000000         0.41516622307355544     
  0.10110000000000001         0.40903401569360376     
  0.10140000000000000         0.38664673172362879     
  0.10170000000000000         0.35204191120841150     
  0.10200000000000001         0.30098300980981529     
  0.10230000000000002         0.24031048741145045     
  0.10260000000000000         0.16731812603759319     
  0.10290000000000001          9.0795005170361792E-002
  0.10320000000000000          9.4749102026561900E-003
  0.10350000000000001         -6.7385421767070769E-002
  0.10380000000000000        -0.14050047661100473     
  0.10410000000000001        -0.20222369986832278     
  0.10440000000000001        -0.25330497968736326     
  0.10470000000000000        -0.28904225763387953     
  0.10500000000000000        -0.31101057884247579     
  0.10530000000000000        -0.31780817325390831     
  0.10560000000000000        -0.31156824070158479     
  0.10590000000000001        -0.29387412935281165     
  0.10620000000000000        -0.26667180656765688     
  0.10650000000000001        -0.23354353589443411     
  0.10679999999999999        -0.19579568770995742     
  0.10710000000000000        -0.15757714365996300     
  0.10740000000000001        -0.11980893690596572     
  0.10770000000000000         -8.6528209939836107E-002
  0.10800000000000000         -5.8262176518491249E-002
  0.10830000000000001         -3.8055340782648626E-002
  0.10859999999999999         -2.6145150853935869E-002
  0.10890000000000000         -2.3534331818522318E-002
  0.10920000000000001         -3.0403921083188866E-002
  0.10950000000000001         -4.5401032145934196E-002
  0.10979999999999999         -6.8231951918592298E-002
  0.11009999999999999         -9.5049942766969278E-002
  0.11040000000000001        -0.12564380967167038     
  0.11070000000000001        -0.15444293742365989     
  0.11100000000000000        -0.18196352406435268     
  0.11130000000000000        -0.20232831227723230     
  0.11160000000000002        -0.21707189254994211     
  0.11190000000000001        -0.22101404105317704     
  0.11220000000000001        -0.21683703044846553     
  0.11250000000000000        -0.20085900221772129     
  0.11280000000000000        -0.17687623278203271     
  0.11309999999999999        -0.14266471323605617     
  0.11340000000000001        -0.10150098765956075     
  0.11369999999999998         -5.3113176596339573E-002
  0.11400000000000000         -5.6112477333976687E-004
  0.11430000000000000          5.5344127282465697E-002
  0.11460000000000002         0.11209419576872467     
  0.11489999999999999         0.16747774863454551     
  0.11520000000000001         0.21951859008933236     
  0.11550000000000001         0.26472584083552969     
  0.11580000000000000         0.30223376019337400     
  0.11609999999999999         0.32806150270585566     
  0.11640000000000002         0.34250697320638201     
  0.11670000000000001         0.34246518330840137     
  0.11700000000000001         0.32970587688850361     
  0.11730000000000000         0.30256138849309877     
  0.11760000000000000         0.26493272748344709     
  0.11789999999999999         0.21654512086350525     
  0.11820000000000001         0.16257179916434369     
  0.11850000000000001         0.10384106793313135     
  0.11880000000000000          4.5658313514953391E-002
  0.11910000000000000         -1.1003406969707152E-002
  0.11940000000000002         -6.1301452093184258E-002
  0.11970000000000001        -0.10456178253670073     
  0.12000000000000001        -0.13759623689264977     
  0.12030000000000000        -0.16060522346324285     
  0.12060000000000000        -0.17156889113138565     
  0.12089999999999999        -0.17141841217649526     
  0.12119999999999999        -0.15964312951623280     
  0.12150000000000001        -0.13837225607592485     
  0.12180000000000001        -0.10786267257425054     
  0.12210000000000000         -7.1180693098043313E-002
  0.12239999999999999         -2.9717876925906078E-002
  0.12270000000000002          1.2892404438713891E-002
  0.12300000000000001          5.5411748567180397E-002
  0.12330000000000001          9.3817065956595169E-002
  0.12360000000000000         0.12733924506216837     
  0.12390000000000000         0.15214383879965679     
  0.12419999999999999         0.16869540573562922     
  0.12450000000000001         0.17442620540011836     
  0.12480000000000001         0.17092627964895160     
  0.12509999999999999         0.15677479028490185     
  0.12540000000000001         0.13455216079505028     
  0.12570000000000003         0.10416567694936732     
  0.12600000000000000          6.8198816086365299E-002
  0.12630000000000002          2.7870750780861459E-002
  0.12659999999999999         -1.4506826940005074E-002
  0.12690000000000001         -5.6737407428058523E-002
  0.12719999999999998         -9.7491112352591419E-002
  0.12750000000000000        -0.13361257208090357     
  0.12780000000000002        -0.16478822229161996     
  0.12809999999999999        -0.18763421889339613     
  0.12840000000000001        -0.20332194309364043     
  0.12869999999999998        -0.20843705846388039     
  0.12900000000000000        -0.20570013009789884     
  0.12930000000000003        -0.19300473128326492     
  0.12959999999999999        -0.17446990843567364     
  0.12990000000000002        -0.14907011261017106     
  0.13019999999999998        -0.12170677347507569     
  0.13050000000000000         -9.2418428974992431E-002
  0.13080000000000003         -6.5546526237035330E-002
  0.13109999999999999         -4.1692014181503069E-002
  0.13140000000000002         -2.3770207487258964E-002
  0.13169999999999998         -1.1684916661303352E-002
  0.13200000000000001         -6.3733609067619761E-003
  0.13229999999999997         -7.0525124667003038E-003
  0.13260000000000000         -1.3408111250259154E-002
  0.13290000000000002         -2.3850276668760068E-002
  0.13319999999999999         -3.6900913158709275E-002
  0.13350000000000001         -5.0969745982567871E-002
  0.13380000000000003         -6.4817770770171437E-002
  0.13410000000000000         -7.6848818133018054E-002
  0.13440000000000002         -8.6909117626199947E-002
  0.13469999999999999         -9.3287023469349362E-002
  0.13500000000000001         -9.6880439166930898E-002
  0.13529999999999998         -9.6377520966926977E-002
  0.13560000000000000         -9.3431986346602033E-002
  0.13590000000000002         -8.7081141583548002E-002
  0.13619999999999999         -7.9504902571024522E-002
  0.13650000000000001         -7.0236425182353179E-002
  0.13680000000000003         -6.0994456097659772E-002
  0.13710000000000000         -5.1986059943057564E-002
  0.13740000000000002         -4.4522348433437192E-002
  0.13769999999999999         -3.8891318735008729E-002
  0.13800000000000001         -3.5035477219054069E-002
  0.13829999999999998         -3.3453483748732221E-002
  0.13860000000000000         -3.2617317251466528E-002
  0.13890000000000002         -3.2804415103697859E-002
  0.13919999999999999         -3.1403545490287135E-002
  0.13950000000000001         -2.8306480104680568E-002
  0.13979999999999998         -2.1033102831506049E-002
  0.14010000000000000         -9.6404605986420630E-003
  0.14040000000000002          7.5594923397031433E-003
  0.14069999999999999          3.0397061199000805E-002
  0.14100000000000001          5.8659295571054065E-002
  0.14130000000000004          9.1458761851047385E-002
  0.14160000000000000         0.12667674297256931     
  0.14189999999999997         0.16329758754358581     
  0.14219999999999999         0.19828337878735666     
  0.14250000000000002         0.22999761954714421     
  0.14279999999999998         0.25558144968342511     
  0.14310000000000000         0.27384054943891922     
  0.14339999999999997         0.28298703585516621     
  0.14369999999999999         0.28238472500939160     
  0.14400000000000002         0.27227880232765012     
  0.14429999999999998         0.25243294239256725     
  0.14460000000000001         0.22549900511223075     
  0.14490000000000003         0.19170548744592877     
  0.14520000000000000         0.15540507363418216     
  0.14550000000000002         0.11688807684382674     
  0.14579999999999999          8.0759695693608607E-002
  0.14610000000000001          4.7589742409399630E-002
  0.14640000000000003          2.0846636565539121E-002
  0.14670000000000000          8.0096899279042798E-004
  0.14699999999999996         -1.1515816745358893E-002
  0.14729999999999999         -1.5733464464966502E-002
  0.14760000000000001         -1.3987554426170751E-002
  0.14789999999999998         -5.5414333561260333E-003
  0.14820000000000000          4.6896066202750334E-003