  -1.4999999999999999E-002     0.0000000000000000     
  -1.4700000000000000E-002     0.0000000000000000     
  -1.4400000000000000E-002     0.0000000000000000     
  -1.4100000000000000E-002     0.0000000000000000     
  -1.3800000000000000E-002     0.0000000000000000     
  -1.3500000000000000E-002     0.0000000000000000     
  -1.3200000000000000E-002     0.0000000000000000     
  -1.2899999999999998E-002     0.0000000000000000     
  -1.2600000000000000E-002     0.0000000000000000     
  -1.2299999999999998E-002     0.0000000000000000     
  -1.2000000000000000E-002     0.0000000000000000     
  -1.1699999999999999E-002     0.0000000000000000     
  -1.1399999999999999E-002     0.0000000000000000     
  -1.1099999999999999E-002     0.0000000000000000     
  -1.0799999999999999E-002     0.0000000000000000     
  -1.0499999999999999E-002     0.0000000000000000     
  -1.0199999999999999E-002     0.0000000000000000     
  -9.8999999999999991E-003     0.0000000000000000     
  -9.5999999999999992E-003     0.0000000000000000     
  -9.2999999999999992E-003     0.0000000000000000     
  -8.9999999999999993E-003     0.0000000000000000     
  -8.6999999999999994E-003     0.0000000000000000     
  -8.3999999999999995E-003     0.0000000000000000     
  -8.0999999999999996E-003     0.0000000000000000     
  -7.7999999999999988E-003     0.0000000000000000     
  -7.4999999999999997E-003     0.0000000000000000     
  -7.1999999999999998E-003     0.0000000000000000     
  -6.8999999999999981E-003     0.0000000000000000     
  -6.5999999999999982E-003     0.0000000000000000     
  -6.3000000000000000E-003     0.0000000000000000     
  -6.0000000000000001E-003     0.0000000000000000     
  -5.6999999999999985E-003     0.0000000000000000     
  -5.3999999999999986E-003     0.0000000000000000     
  -5.1000000000000004E-003     0.0000000000000000     
  -4.7999999999999987E-003     0.0000000000000000     
  -4.5000000000000005E-003     0.0000000000000000     
  -4.1999999999999989E-003     0.0000000000000000     
  -3.8999999999999990E-003     0.0000000000000000     
  -3.5999999999999990E-003     0.0000000000000000     
  -3.2999999999999991E-003     0.0000000000000000     
  -2.9999999999999992E-003     0.0000000000000000     
  -2.6999999999999993E-003     0.0000000000000000     
  -2.3999999999999994E-003     0.0000000000000000     
  -2.0999999999999977E-003     0.0000000000000000     
  -1.7999999999999995E-003     0.0000000000000000     
  -1.4999999999999979E-003     0.0000000000000000     
  -1.1999999999999997E-003     0.0000000000000000     
  -8.9999999999999976E-004     0.0000000000000000     
  -5.9999999999999810E-004     0.0000000000000000     
  -2.9999999999999992E-004     0.0000000000000000     
   0.0000000000000000          0.0000000000000000     
   3.0000000000000165E-004     0.0000000000000000     
   5.9999999999999984E-004     0.0000000000000000     
   9.0000000000000149E-004     0.0000000000000000     
   1.2000000000000031E-003     0.0000000000000000     
   1.5000000000000013E-003     0.0000000000000000     
   1.8000000000000030E-003     0.0000000000000000     
   2.1000000000000012E-003     0.0000000000000000     
   2.3999999999999994E-003     0.0000000000000000     
   2.7000000000000010E-003     0.0000000000000000     
   2.9999999999999992E-003     0.0000000000000000     
   3.3000000000000008E-003     0.0000000000000000     
   3.6000000000000025E-003     0.0000000000000000     
   3.9000000000000007E-003     0.0000000000000000     
   4.2000000000000023E-003     0.0000000000000000     
   4.5000000000000005E-003     0.0000000000000000     
   4.7999999999999987E-003     0.0000000000000000     
   5.1000000000000004E-003     0.0000000000000000     
   5.4000000000000020E-003     0.0000000000000000     
   5.7000000000000037E-003     0.0000000000000000     
   5.9999999999999984E-003     0.0000000000000000     
   6.3000000000000000E-003     0.0000000000000000     
   6.6000000000000017E-003     0.0000000000000000     
   6.9000000000000034E-003     0.0000000000000000     
   7.2000000000000015E-003     0.0000000000000000     
   7.5000000000000032E-003     0.0000000000000000     
   7.8000000000000014E-003     0.0000000000000000     
   8.0999999999999996E-003     0.0000000000000000     
   8.4000000000000012E-003     0.0000000000000000     
   8.7000000000000029E-003     0.0000000000000000     
   9.0000000000000011E-003     0.0000000000000000     
   9.2999999999999992E-003     0.0000000000000000     
   9.6000000000000009E-003     0.0000000000000000     
   9.8999999999999991E-003     0.0000000000000000     
   1.0200000000000001E-002     0.0000000000000000     
   1.0500000000000002E-002     0.0000000000000000     
   1.0800000000000004E-002     0.0000000000000000     
   1.1099999999999999E-002     0.0000000000000000     
   1.1400000000000000E-002     0.0000000000000000     
   1.1700000000000002E-002     0.0000000000000000     
   1.2000000000000004E-002     0.0000000000000000     
   1.2300000000000002E-002     0.0000000000000000     
   1.2600000000000000E-002     0.0000000000000000     
   1.2900000000000002E-002     0.0000000000000000     
   1.3200000000000000E-002     0.0000000000000000     
   1.3500000000000002E-002     0.0000000000000000     
   1.3800000000000003E-002     0.0000000000000000     
   1.4100000000000001E-002     0.0000000000000000     
   1.4400000000000000E-002     0.0000000000000000     
   1.4700000000000001E-002     0.0000000000000000     
   1.4999999999999999E-002     0.0000000000000000     
   1.5300000000000001E-002     0.0000000000000000     
   1.5600000000000003E-002     0.0000000000000000     
   1.5899999999999997E-002     0.0000000000000000     
   1.6199999999999999E-002     0.0000000000000000     
   1.6500000000000001E-002     0.0000000000000000     
   1.6800000000000002E-002     0.0000000000000000     
   1.7100000000000004E-002     0.0000000000000000     
   1.7400000000000006E-002     0.0000000000000000     
   1.7700000000000000E-002     0.0000000000000000     
   1.8000000000000002E-002     0.0000000000000000     
   1.8300000000000004E-002     0.0000000000000000     
   1.8600000000000005E-002     0.0000000000000000     
   1.8900000000000000E-002     0.0000000000000000     
   1.9200000000000002E-002     0.0000000000000000     
   1.9500000000000003E-002     0.0000000000000000     
   1.9799999999999998E-002     0.0000000000000000     
   2.0100000000000000E-002     0.0000000000000000     
   2.0400000000000001E-002     0.0000000000000000     
   2.0700000000000003E-002     0.0000000000000000     
   2.0999999999999998E-002     0.0000000000000000     
   2.1299999999999999E-002     0.0000000000000000     
   2.1600000000000001E-002     0.0000000000000000     
   2.1900000000000003E-002     0.0000000000000000     
   2.2200000000000004E-002     0.0000000000000000     
   2.2500000000000006E-002     0.0000000000000000     
   2.2800000000000001E-002     0.0000000000000000     
   2.3100000000000002E-002     0.0000000000000000     
   2.3400000000000004E-002     0.0000000000000000     
   2.3699999999999999E-002     0.0000000000000000     
   2.4000000000000000E-002     0.0000000000000000     
   2.4300000000000002E-002     0.0000000000000000     
   2.4599999999999997E-002     0.0000000000000000     
   2.4900000000000005E-002     0.0000000000000000     
   2.5200000000000000E-002     0.0000000000000000     
   2.5499999999999995E-002     0.0000000000000000     
   2.5800000000000003E-002     0.0000000000000000     
   2.6099999999999998E-002     1.9300215782727086E-058
   2.6400000000000007E-002     3.9213079473283690E-058
   2.6700000000000002E-002    -7.9316082238670445E-045
   2.6999999999999996E-002     3.9479741191330831E-044
   2.7300000000000005E-002    -1.9439705536817118E-043
   2.7600000000000000E-002     9.8733680829494965E-037
   2.7900000000000008E-002     2.7328602543312535E-036
   2.8200000000000003E-002     3.5312550478637517E-035
   2.8499999999999998E-002    -2.3657929157137174E-034
   2.8800000000000006E-002     8.1044944290978985E-034
   2.9100000000000001E-002    -7.3109865176823084E-033
   2.9400000000000003E-002     4.3463526128379955E-032
   2.9700000000000004E-002    -1.5698987646570563E-031
   3.0000000000000006E-002     2.9973749633527830E-031
   3.0300000000000001E-002     3.5770489280173859E-031
   3.0600000000000002E-002    -5.6483661065432601E-030
   3.0900000000000004E-002     2.6108740892615248E-029
   3.1199999999999999E-002    -7.3284323782330300E-029
   3.1500000000000007E-002     9.2529459813094122E-029
   3.1800000000000002E-002     3.0040659713295296E-028
   3.2099999999999997E-002    -2.3775874872999812E-027
   3.2400000000000005E-002     8.2762158332813990E-027
   3.2700000000000000E-002    -1.5613174635927491E-026
   3.3000000000000002E-002    -5.5500002469510883E-027
   3.3300000000000003E-002     1.6117463126961234E-025
   3.3599999999999998E-002    -6.2986332579186304E-025
   3.3900000000000000E-002     1.2322373555427389E-024
   3.4200000000000001E-002     2.4194410692373806E-025
   3.4500000000000003E-002    -1.1006195631016795E-023
   3.4799999999999998E-002     4.1406157031929140E-023
   3.5099999999999999E-002    -7.5773210635125900E-023
   3.5400000000000001E-002    -1.7353354184510207E-023
   3.5699999999999996E-002     5.9053868495336907E-022
   3.6000000000000004E-002    -1.9629062796394916E-021
   3.6299999999999999E-002     2.9057290802855511E-021
   3.6600000000000008E-002     2.5135243970639373E-021
   3.6900000000000002E-002    -2.5246880832812046E-020
   3.7199999999999997E-002     6.3190161513831793E-020
   3.7500000000000006E-002    -4.6739458746485592E-020
   3.7800000000000000E-002    -2.1145966988914967E-019
   3.8100000000000009E-002     8.4725583716704477E-019
   3.8400000000000004E-002    -1.2042440018339672E-018
   3.8699999999999998E-002    -1.2100560156832111E-018
   3.9000000000000007E-002     9.4374658261410905E-018
   3.9300000000000002E-002    -1.8191194994787589E-017
   3.9600000000000003E-002    -1.6669524688361219E-018
   3.9900000000000005E-002     9.5161886276547926E-017
   4.0200000000000000E-002    -2.2431742631884792E-016
   4.0500000000000001E-002     7.4773683150598766E-017
   4.0800000000000003E-002     8.9850578184451087E-016
   4.1100000000000005E-002    -2.4168320933065684E-015
   4.1399999999999999E-002     1.2539516101226100E-015
   4.1700000000000008E-002     8.3573098412275939E-015
   4.2000000000000003E-002    -2.3761617104161021E-014
   4.2299999999999997E-002     1.2378262660267958E-014
   4.2600000000000006E-002     8.1961985848492985E-014
   4.2900000000000001E-002    -2.2248522317403408E-013
   4.3200000000000002E-002     6.5467123834812916E-014
   4.3500000000000004E-002     8.9922394433604639E-013
   4.3799999999999999E-002    -1.9592841204718999E-012
   4.4100000000000000E-002    -7.7419332669564610E-013
   4.4400000000000002E-002     1.0469279998674366E-011
   4.4700000000000004E-002    -1.2376443286702246E-011
   4.4999999999999998E-002    -3.1550023909337313E-011
   4.5300000000000000E-002     9.7468645323394597E-011
   4.5600000000000002E-002     3.3836621340636173E-011
   4.5899999999999996E-002    -4.7442914321909141E-010
   4.6200000000000005E-002     2.5950204453222046E-010
   4.6500000000000000E-002     1.8874581861316485E-009
   4.6799999999999994E-002    -2.2336813683863036E-009
   4.7100000000000003E-002    -6.9399355545072325E-009
   4.7399999999999998E-002     1.1508258969004333E-008
   4.7700000000000006E-002     2.6099969290094500E-008
   4.8000000000000001E-002    -4.7660758158614981E-008
   4.8300000000000010E-002    -1.0973160841098658E-007
   4.8600000000000004E-002     1.4908070797661698E-007
   4.8899999999999999E-002     4.5621029768368862E-007
   4.9200000000000008E-002    -3.4531932161631435E-007
   4.9500000000000002E-002    -1.9127788824506452E-006
   4.9800000000000011E-002     4.5231659942142178E-007
   5.0100000000000006E-002     1.2839590943255364E-005
   5.0400000000000000E-002     3.4616176258525159E-005
   5.0700000000000009E-002     5.7089947591624283E-005
   5.1000000000000004E-002     7.5338445794718607E-005
   5.1299999999999998E-002     9.9582430731282791E-005
   5.1600000000000007E-002     1.4955853171169236E-004
   5.1900000000000002E-002     2.3895608509544975E-004
   5.2200000000000010E-002     3.7212449011909320E-004
   5.2500000000000005E-002     5.5748556521725574E-004
   5.2800000000000000E-002     8.1886660253319816E-004
   5.3099999999999994E-002     1.1918930199525603E-003
   5.3400000000000003E-002     1.7151206409856243E-003
   5.3699999999999998E-002     2.4305521715846791E-003
   5.4000000000000006E-002     3.3905708978932908E-003
   5.4300000000000001E-002     4.6573034873430355E-003
   5.4599999999999996E-002     6.2916279365239029E-003
   5.4900000000000004E-002     8.3442247244637259E-003
   5.5199999999999999E-002     1.0853458287468653E-002
   5.5499999999999994E-002     1.3837785576799247E-002
   5.5800000000000002E-002     1.7271513265676209E-002
   5.6099999999999997E-002     2.1057052716924506E-002
   5.6400000000000006E-002     2.5007788304745055E-002
   5.6700000000000000E-002     2.8831999994839874E-002
   5.6999999999999995E-002     3.2106258250220801E-002
   5.7300000000000004E-002     3.4246627536689868E-002
   5.7599999999999998E-002     3.4511354118375144E-002
   5.7900000000000007E-002     3.2017004021481568E-002
   5.8200000000000002E-002     2.5772057696702776E-002
   5.8499999999999996E-002     1.4718554110985781E-002
   5.8800000000000005E-002    -2.1661746050260456E-003
   5.9100000000000000E-002    -2.5742523601255091E-002
   5.9400000000000008E-002    -5.6559999046193056E-002
   5.9700000000000003E-002    -9.4702848148293495E-002
   6.0000000000000012E-002   -0.13960848874044232     
   6.0300000000000006E-002   -0.18990083210170497     
   6.0600000000000001E-002   -0.24326457303963292     
   6.0900000000000010E-002   -0.29639938744076028     
   6.1200000000000004E-002   -0.34503791052919719     
   6.1500000000000013E-002   -0.38407397624884126     
   6.1800000000000008E-002   -0.40780413530045495     
   6.2100000000000002E-002   -0.41033196833681412     
   6.2399999999999997E-002   -0.38603368766617696     
   6.2700000000000006E-002   -0.33012435156713255     
   6.3000000000000000E-002   -0.23927256699242139     
   6.3300000000000009E-002   -0.11216507969790289     
   6.3600000000000004E-002     4.9931764940605972E-002
   6.3899999999999998E-002    0.24290840542640799     
   6.4199999999999993E-002    0.45957997863284517     
   6.4500000000000002E-002    0.68993926690802121     
   6.4800000000000010E-002    0.92134714995556843     
   6.5100000000000005E-002     1.1394589055509992     
   6.5400000000000000E-002     1.3288500436337451     
   6.5700000000000008E-002     1.4744627617861219     
   6.5999999999999989E-002     1.5624116811012385     
   6.6299999999999998E-002     1.5815396463585845     
   6.6600000000000006E-002     1.5241294057609653     
   6.6900000000000001E-002     1.3870755572137434     
   6.7199999999999996E-002     1.1720545410252265     
   6.7500000000000004E-002    0.88599497990971632     
   6.7800000000000013E-002    0.54052109107257884     
   6.8099999999999994E-002    0.15161758862545605     
   6.8400000000000002E-002   -0.26166659797896641     
   6.8700000000000011E-002   -0.67821735763028823     
   6.8999999999999992E-002    -1.0764478547187017     
   6.9300000000000000E-002    -1.4355822940426510     
   6.9600000000000009E-002    -1.7370815447572525     
   6.9900000000000004E-002    -1.9658953146527489     
   7.0199999999999999E-002    -2.1112220499177545     
   7.0500000000000007E-002    -2.1672432642438517     
   7.0800000000000016E-002    -2.1331999520638503     
   7.1099999999999997E-002    -2.0133927077442468     
   7.1400000000000005E-002    -1.8167166901018688     
   7.1700000000000000E-002    -1.5557296442582700     
   7.1999999999999995E-002    -1.2460701601492312     
   7.2300000000000003E-002   -0.90502292936583140     
   7.2600000000000012E-002   -0.55093002969929117     
   7.2900000000000006E-002   -0.20151490259333688     
   7.3200000000000001E-002    0.12634858562356083     
   7.3499999999999996E-002    0.41830236113710373     
   7.3800000000000004E-002    0.66214484658264638     
   7.4099999999999999E-002    0.84930921505447288     
   7.4400000000000008E-002    0.97393895270371655     
   7.4700000000000003E-002     1.0342072365205435     
   7.5000000000000011E-002     1.0309357763271003     
   7.5299999999999992E-002    0.96845449174765341     
   7.5600000000000001E-002    0.85319532025488298     
   7.5900000000000009E-002    0.69437641806332306     
   7.6200000000000004E-002    0.50242698898552152     
   7.6499999999999999E-002    0.28954303735021775     
   7.6800000000000007E-002     6.8163099150060469E-002
   7.7099999999999988E-002   -0.14852389723873508     
   7.7399999999999997E-002   -0.34789669781401644     
   7.7700000000000005E-002   -0.51777661328672664     
   7.8000000000000014E-002   -0.64743376430893074     
   7.8299999999999995E-002   -0.72774393137898086     
   7.8600000000000003E-002   -0.75187320346017994     
   7.8900000000000012E-002   -0.71566016298472945     
   7.9199999999999993E-002   -0.61799443505380813     
   7.9500000000000001E-002   -0.46135330785574957     
   7.9800000000000010E-002   -0.25153428694842728     
   8.0100000000000018E-002     1.8377330017141501E-003
   8.0399999999999999E-002    0.28634250342687728     
   8.0700000000000008E-002    0.58625436330339165     
   8.1000000000000003E-002    0.88450563763452794     
   8.1299999999999997E-002     1.1624456755040082     
   8.1600000000000006E-002     1.4023449556403673     
   8.1900000000000014E-002     1.5872055447689961     
   8.2199999999999995E-002     1.7035300898333861     
   8.2500000000000004E-002     1.7409191302584208     
   8.2799999999999999E-002     1.6946331427508610     
   8.3100000000000007E-002     1.5645935687003629     
   8.3400000000000002E-002     1.3572209010316940     
   8.3700000000000011E-002     1.0837059121900856     
   8.4000000000000005E-002    0.76076079083046433     
   8.4300000000000000E-002    0.40830400896674285     
   8.4599999999999995E-002     4.9165382388467890E-002
   8.4900000000000003E-002   -0.29361328885426219     
   8.5199999999999998E-002   -0.59767080060416011     
   8.5500000000000007E-002   -0.84375048631835403     
   8.5800000000000001E-002    -1.0168073288658495     
   8.6100000000000010E-002    -1.1074844718134005     
   8.6399999999999991E-002    -1.1128782152404362     
   8.6699999999999999E-002    -1.0366875042767347     
   8.7000000000000008E-002   -0.88901383614440188     
   8.7300000000000003E-002   -0.68534261699872379     
   8.7599999999999997E-002   -0.44550985548566285     
   8.7900000000000006E-002   -0.19167132855877453     
   8.8200000000000014E-002     5.3265520325750951E-002
   8.8499999999999995E-002    0.26792469943976394     
   8.8800000000000004E-002    0.43378744044583306     
   8.9100000000000013E-002    0.53716201232111560     
   8.9399999999999993E-002    0.56976766096730513     
   8.9700000000000002E-002    0.52953232021481644     
   9.0000000000000011E-002    0.42024490840051015     
   9.0299999999999991E-002    0.25120988942156136     
   9.0600000000000000E-002     3.6023205859165006E-002
   9.0900000000000009E-002   -0.20881448660419022     
   9.1200000000000017E-002   -0.46540418493836361     
   9.1499999999999998E-002   -0.71609896897689185     
   9.1800000000000007E-002   -0.94472206353864097     
   9.2100000000000001E-002    -1.1379333826552334     
   9.2399999999999996E-002    -1.2855943550489648     
   9.2700000000000005E-002    -1.3815168263354241     
   9.3000000000000013E-002    -1.4228831657934748     
   9.3300000000000008E-002    -1.4101789127374238     
   9.3600000000000003E-002    -1.3460936673011321     
   9.3899999999999997E-002    -1.2352547763752320     
   9.4200000000000006E-002    -1.0827839480476285     
   9.4500000000000001E-002   -0.89423699078099406     
   9.4800000000000009E-002   -0.67470718125609619     
   9.5100000000000004E-002   -0.42916512954227609     
   9.5399999999999999E-002   -0.16209557869366903     
   9.5699999999999993E-002    0.12174705468418533     
   9.6000000000000002E-002    0.41712895367375941     
   9.6300000000000011E-002    0.71758849042767570     
   9.6600000000000005E-002     1.0150424331430370     
   9.6900000000000000E-002     1.2998116131718351     
   9.7200000000000009E-002     1.5601010462052338     
   9.7499999999999989E-002     1.7832029024721463     
   9.7799999999999998E-002     1.9552028353451181     
   9.8100000000000007E-002     2.0632159892412516     
   9.8400000000000015E-002     2.0952120012078992     
   9.8699999999999996E-002     2.0426087557535664     
   9.9000000000000005E-002     1.9001419709055134     
   9.9300000000000013E-002     1.6682443760887831     
   9.9599999999999994E-002     1.3520970458264543     
   9.9900000000000003E-002    0.96335930409191006     
  0.10020000000000001         0.51807874825855571     
  0.10049999999999999          3.7754252052525278E-002
  0.10080000000000000        -0.45368382810792174     
  0.10110000000000001        -0.92985696502272108     
  0.10140000000000000         -1.3653373845800534     
  0.10170000000000000         -1.7357523601928224     
  0.10200000000000001         -2.0209696478015982     
  0.10230000000000002         -2.2052583896400741     
  0.10260000000000000         -2.2794640273079221     
  0.10290000000000001         -2.2404377667011395     
  0.10320000000000000         -2.0919869140813359     
  0.10350000000000001         -1.8439852174003015     
  0.10380000000000000         -1.5117244867810409     
  0.10410000000000001         -1.1146856660434772     
  0.10440000000000001        -0.67505330620073434     
  0.10470000000000000        -0.21668288486932943     
  0.10500000000000000         0.23707553759391883     
  0.10530000000000000         0.66395843432032975     
  0.10560000000000000          1.0447244719139219     
  0.10590000000000001          1.3630694257382616     
  0.10620000000000000          1.6072654855533632     
  0.10650000000000001          1.7692247780555301     
  0.10679999999999999          1.8459226056448754     
  0.10710000000000000          1.8377578428520680     
  0.10740000000000001          1.7496200968317113     
  0.10770000000000000          1.5890040559395981     
  0.10800000000000000          1.3668368010599912     
  0.10830000000000001          1.0955387484239487     
  0.10859999999999999         0.78981370809002960     
  0.10890000000000000         0.46462077729601192     
  0.10920000000000001         0.13608140306418468     
  0.10950000000000001        -0.18057156815895720     
  0.10979999999999999        -0.47037273633413051     
  0.11009999999999999        -0.72017270558581647     
  0.11040000000000001        -0.91850907061934572     
  0.11070000000000001         -1.0568511548709900     
  0.11100000000000000         -1.1295209006827220     
  0.11130000000000000         -1.1347050750826624     
  0.11160000000000002         -1.0740530577878251     
  0.11190000000000001        -0.95337260618511155     
  0.11220000000000001        -0.78197849580911583     
  0.11250000000000000        -0.57237721170786493     
  0.11280000000000000        -0.33955476236254434     
  0.11309999999999999         -9.9998448302129520E-002
  0.11340000000000001         0.12962621211120240     
  0.11369999999999998         0.33349585448649471     
  0.11400000000000000         0.49801600036251525     
  0.11430000000000000         0.61266184029099136     
  0.11460000000000002         0.67116242913301194     
  0.11489999999999999         0.67168766587374229     
  0.11520000000000001         0.61705291622678970     
  0.11550000000000001         0.51415616622262739     
  0.11580000000000000         0.37368575049361880     
  0.11609999999999999         0.20838848014048467     
  0.11640000000000002          3.2766440812962018E-002
  0.11670000000000001        -0.13930795988458589     
  0.11700000000000001        -0.29499113555733403     
  0.11730000000000000        -0.42433291754232633     
  0.11760000000000000        -0.51993489436878804     
  0.11789999999999999        -0.57867580892040826     
  0.11820000000000001        -0.60049408987639019     
  0.11850000000000001        -0.58905810481141563     
  0.11880000000000000        -0.54993218597200655     
  0.11910000000000000        -0.49112648213117782     
  0.11940000000000002        -0.42076790802874470     
  0.11970000000000001        -0.34733486652820555     
  0.12000000000000001        -0.27774942407060293     
  0.12030000000000000        -0.21775408561846424     
  0.12060000000000000        -0.17068532567313549     
  0.12089999999999999        -0.13804823586957038     
  0.12119999999999999        -0.11901579440096599     
  0.12150000000000001        -0.11118907074358812     
  0.12180000000000001        -0.11075995395634207     
  0.12210000000000000        -0.11315741603148836     
  0.12239999999999999        -0.11378504476502460     
  0.12270000000000002        -0.10819014974143311     
  0.12300000000000001         -9.3161828718429304E-002
  0.12330000000000001         -6.6382452082268839E-002
  0.12360000000000000         -2.7571486678879698E-002
  0.12390000000000000          2.2546712442098375E-002
  0.12419999999999999          8.1057282835446248E-002
  0.12450000000000001         0.14434922024170482     
  0.12480000000000001         0.20708784772217653     
  0.12509999999999999         0.26428634239645488     
  0.12540000000000001         0.31014973237036569     
  0.12570000000000003         0.34042656703200025     
  0.12600000000000000         0.35111668961280262     
  0.12630000000000002         0.34060389002713976     
  0.12659999999999999         0.30830562263044275     
  0.12690000000000001         0.25633984880317789     
  0.12719999999999998         0.18786616634329140     
  0.12750000000000000         0.10814781422504835     
  0.12780000000000002          2.2762738737311178E-002
  0.12809999999999999         -6.1722727585298780E-002
  0.12840000000000001        -0.13957923892705371     
  0.12869999999999998        -0.20557883662360787     
  0.12900000000000000        -0.25594941079934408     
  0.12930000000000003        -0.28828347025692430     
  0.12959999999999999        -0.30192870175499076     
  0.12990000000000002        -0.29767552244012840     
  0.13019999999999998        -0.27739355128658472     
  0.13050000000000000        -0.24374984275168987     
  0.13080000000000003        -0.19939637152080381     
  0.13109999999999999        -0.14702366137559314     
  0.13140000000000002         -8.8385772912489571E-002
  0.13169999999999998         -2.4896518857716536E-002
  0.13200000000000001          4.3377829459889584E-002
  0.13229999999999997         0.11648516266623728     
  0.13260000000000000         0.19511278720969036     
  0.13290000000000002         0.27935213678061510     
  0.13319999999999999         0.36928228410985542     
  0.13350000000000001         0.46344862270362164     
  0.13380000000000003         0.55966658252401758     
  0.13410000000000000         0.65394956665894666     
  0.13440000000000002         0.74167836401049780     
  0.13469999999999999         0.81708771550824677     
  0.13500000000000001         0.87437159224119676     
  0.13529999999999998         0.90782678355454371     
  0.13560000000000000         0.91293913172347407     
  0.13590000000000002         0.88651960957570453     
  0.13619999999999999         0.82753240770507885     
  0.13650000000000001         0.73708152341630218     
  0.13680000000000003         0.61845278209409837     
  0.13710000000000000         0.47721069456627208     
  0.13740000000000002         0.32040112602062576     
  0.13769999999999999         0.15638782987167182     
  0.13800000000000001         -6.3654254423975137E-003
  0.13829999999999998        -0.15911855221514040     
  0.13860000000000000        -0.29436198159150456     
  0.13890000000000002        -0.40533492112203057     
  0.13919999999999999        -0.48745310291684268     
  0.13950000000000001        -0.53729933345516034     
  0.13979999999999998        -0.55397385067918237     
  0.14010000000000000        -0.53775584305288759     
  0.14040000000000002        -0.49104612591219321     
  0.14069999999999999        -0.41740720949982546     
  0.14100000000000001        -0.32223918508529614     
  0.14130000000000004        -0.21173111596876520     
  0.14160000000000000         -9.3486766583341180E-002
  0.14189999999999997          2.3879706687525839E-002
  0.14219999999999999         0.13093710190331342     
  0.14250000000000002         0.21763353168404842     
  0.14279999999999998         0.27400478693119690     
  0.14310000000000000         0.29004615369352504     
  0.14339999999999997         0.25754183188942570     
  0.14369999999999999         0.16975399353975115     
  0.14400000000000002          2.3555432259949459E-002
  0.14429999999999998        -0.18108389605527142     
  0.14460000000000001        -0.43877370153859047     
  0.14490000000000003        -0.74015648295903325     
  0.14520000000000000         -1.0697134859336033     
  0.14550000000000002         -1.4085354940447063     
  0.14579999999999999         -1.7329316282701692     
  0.14610000000000001         -2.0181117203105003     
  0.14640000000000003         -2.2378387595148928     
  0.14670000000000000         -2.3685727254219211     
  0.14699999999999996         -2.3895805002678401     
  0.14729999999999999         -2.2869887449828967     
  0.14760000000000001         -2.0533428261966016     
  0.14789999999999998         -1.6909016404818977     
  0.14820000000000000         -1.2102426284718912     