  -1.4999999999999999E-002     0.0000000000000000     
  -1.4700000000000000E-002     0.0000000000000000     
  -1.4400000000000000E-002     0.0000000000000000     
  -1.4100000000000000E-002     0.0000000000000000     
  -1.3800000000000000E-002     0.0000000000000000     
  -1.3500000000000000E-002     0.0000000000000000     
  -1.3200000000000000E-002     0.0000000000000000     
  -1.2899999999999998E-002     0.0000000000000000     
  -1.2600000000000000E-002     0.0000000000000000     
  -1.2299999999999998E-002     0.0000000000000000     
  -1.2000000000000000E-002     0.0000000000000000     
  -1.1699999999999999E-002     0.0000000000000000     
  -1.1399999999999999E-002     0.0000000000000000     
  -1.1099999999999999E-002     0.0000000000000000     
  -1.0799999999999999E-002     0.0000000000000000     
  -1.0499999999999999E-002     0.0000000000000000     
  -1.0199999999999999E-002     0.0000000000000000     
  -9.8999999999999991E-003     0.0000000000000000     
  -9.5999999999999992E-003     0.0000000000000000     
  -9.2999999999999992E-003     0.0000000000000000     
  -8.9999999999999993E-003     0.0000000000000000     
  -8.6999999999999994E-003     0.0000000000000000     
  -8.3999999999999995E-003     0.0000000000000000     
  -8.0999999999999996E-003     0.0000000000000000     
  -7.7999999999999988E-003     0.0000000000000000     
  -7.4999999999999997E-003     0.0000000000000000     
  -7.1999999999999998E-003     0.0000000000000000     
  -6.8999999999999981E-003     0.0000000000000000     
  -6.5999999999999982E-003     0.0000000000000000     
  -6.3000000000000000E-003     0.0000000000000000     
  -6.0000000000000001E-003     0.0000000000000000     
  -5.6999999999999985E-003     0.0000000000000000     
  -5.3999999999999986E-003     0.0000000000000000     
  -5.1000000000000004E-003     0.0000000000000000     
  -4.7999999999999987E-003     0.0000000000000000     
  -4.5000000000000005E-003     0.0000000000000000     
  -4.1999999999999989E-003     0.0000000000000000     
  -3.8999999999999990E-003     0.0000000000000000     
  -3.5999999999999990E-003     0.0000000000000000     
  -3.2999999999999991E-003     0.0000000000000000     
  -2.9999999999999992E-003     0.0000000000000000     
  -2.6999999999999993E-003     0.0000000000000000     
  -2.3999999999999994E-003     0.0000000000000000     
  -2.0999999999999977E-003     0.0000000000000000     
  -1.7999999999999995E-003     0.0000000000000000     
  -1.4999999999999979E-003     0.0000000000000000     
  -1.1999999999999997E-003     0.0000000000000000     
  -8.9999999999999976E-004     0.0000000000000000     
  -5.9999999999999810E-004     0.0000000000000000     
  -2.9999999999999992E-004     0.0000000000000000     
   0.0000000000000000          0.0000000000000000     
   3.0000000000000165E-004     0.0000000000000000     
   5.9999999999999984E-004     0.0000000000000000     
   9.0000000000000149E-004     0.0000000000000000     
   1.2000000000000031E-003     3.4186661375415907E-044
   1.5000000000000013E-003    -2.3504471659274529E-043
   1.8000000000000030E-003     1.2661744695930914E-036
   2.1000000000000012E-003    -7.0254115453716435E-036
   2.3999999999999994E-003     4.5894768033935822E-035
   2.7000000000000010E-003    -1.5961731457834948E-034
   2.9999999999999992E-003     3.8581180679825420E-034
   3.3000000000000008E-003    -9.1268193610869653E-034
   3.6000000000000025E-003     2.5420146043402088E-033
   3.9000000000000007E-003    -2.6231445745924038E-033
   4.2000000000000023E-003    -3.2346814286866772E-033
   4.5000000000000005E-003     1.7116286258318638E-032
   4.7999999999999987E-003    -3.8473928997857220E-032
   5.1000000000000004E-003     5.8763175762188581E-032
   5.4000000000000020E-003    -4.8053674860314034E-032
   5.7000000000000037E-003    -3.7210915951708164E-032
   5.9999999999999984E-003     2.2463161853912129E-031
   6.3000000000000000E-003    -4.8166435702226584E-031
   6.6000000000000017E-003     6.6363955859488541E-031
   6.9000000000000034E-003    -5.0676854146258412E-031
   7.2000000000000015E-003    -2.7870607156521365E-031
   7.5000000000000032E-003     1.7987811952045463E-030
   7.8000000000000014E-003    -3.7107421693916839E-030
   8.0999999999999996E-003     5.0402804240617362E-030
   8.4000000000000012E-003    -4.2447617482501976E-030
   8.7000000000000029E-003    -2.8362078240240573E-031
   9.0000000000000011E-003     9.1271671613792108E-030
   9.2999999999999992E-003    -2.0484375064040534E-029
   9.6000000000000009E-003     2.9473512073067678E-029
   9.8999999999999991E-003    -2.8837044708159578E-029
   1.0200000000000001E-002     1.1249461191401017E-029
   1.0500000000000002E-002     2.7314642270196329E-029
   1.0800000000000004E-002    -8.4222703881170769E-029
   1.1099999999999999E-002     1.4391303967164503E-028
   1.1400000000000000E-002    -1.6813219717089508E-028
   1.1700000000000002E-002     1.0626413299266166E-028
   1.2000000000000004E-002     5.8272384289216537E-029
   1.2300000000000002E-002    -2.8157856990224201E-028
   1.2600000000000000E-002     4.9631976188950254E-028
   1.2900000000000002E-002    -6.3922809284880242E-028
   1.3200000000000000E-002     6.3051461929598826E-028
   1.3500000000000002E-002    -3.5350263177542263E-028
   1.3800000000000003E-002    -3.5007035840646681E-028
   1.4100000000000001E-002     1.5917868260924896E-027
   1.4400000000000000E-002    -3.2822146294717431E-027
   1.4700000000000001E-002     4.4632034388403989E-027
   1.4999999999999999E-002    -1.4155009122228671E-027
   1.5300000000000001E-002    -9.1960867939720359E-027
   1.5600000000000003E-002     1.4598698570819119E-026
   1.5899999999999997E-002     1.3166977912178850E-026
   1.6199999999999999E-002    -5.4808267220295374E-026
   1.6500000000000001E-002    -1.5601894176723021E-027
   1.6800000000000002E-002     1.9851369648277371E-025
   1.7100000000000004E-002    -2.3089044846324601E-025
   1.7400000000000006E-002    -3.3130938804327058E-025
   1.7700000000000000E-002     1.0231281444426763E-024
   1.8000000000000002E-002    -1.9239253368836266E-025
   1.8300000000000004E-002    -2.4235051785273865E-024
   1.8600000000000005E-002     2.8089857094815351E-024
   1.8900000000000000E-002     3.1453034274869910E-024
   1.9200000000000002E-002    -9.5594610199545373E-024
   1.9500000000000003E-002     1.8136236695945977E-024
   1.9799999999999998E-002     2.1326495928125111E-023
   2.0100000000000000E-002    -2.9547356128638242E-023
   2.0400000000000001E-002    -2.1306125832071011E-023
   2.0700000000000003E-002     1.4376344434369979E-022
   2.0999999999999998E-002    -2.2874751582485743E-022
   2.1299999999999999E-002    -1.7661860688549331E-022
   2.1600000000000001E-002     1.7488417908259849E-021
   2.1900000000000003E-002    -3.0891359137658846E-021
   2.2200000000000004E-002    -3.2493618726016335E-021
   2.2500000000000006E-002     2.3412593630236363E-020
   2.2800000000000001E-002    -2.7157222204055918E-020
   2.3100000000000002E-002    -6.4946013398112852E-020
   2.3400000000000004E-002     2.2382008026225084E-019
   2.3699999999999999E-002    -7.4038357934873707E-020
   2.4000000000000000E-002    -6.3215158596403973E-019
   2.4300000000000002E-002     7.1428613613878547E-019
   2.4599999999999997E-002     7.5429797522047874E-019
   2.4900000000000005E-002     2.2610109900147259E-018
   2.5200000000000000E-002    -1.3712988690174214E-017
   2.5499999999999995E-002    -1.2001819904344284E-017
   2.5800000000000003E-002     1.4646272046439129E-016
   2.6099999999999998E-002    -1.7776541265313537E-016
   2.6400000000000007E-002    -5.5903514918967951E-016
   2.6700000000000002E-002     1.7692148368922660E-015
   2.6999999999999996E-002    -1.5101424990438383E-016
   2.7300000000000005E-002    -6.3300961882593413E-015
   2.7600000000000000E-002     8.2973260972079769E-015
   2.7900000000000008E-002     4.3566174376859087E-015
   2.8200000000000003E-002    -1.3280933783801977E-014
   2.8499999999999998E-002     3.0432585347604393E-014
   2.8800000000000006E-002    -1.6818466724897361E-013
   2.9100000000000001E-002     1.3509010555684538E-013
   2.9400000000000003E-002     1.2525762441751096E-012
   2.9700000000000004E-002    -2.7828716750920634E-012
   3.0000000000000006E-002    -3.9503447205735653E-012
   3.0300000000000001E-002     1.8830808646076625E-011
   3.0600000000000002E-002     1.2731837876779250E-012
   3.0900000000000004E-002    -8.5126647501153013E-011
   3.1199999999999999E-002     5.7041512193373945E-011
   3.1500000000000007E-002     3.0105557877906043E-010
   3.1800000000000002E-002    -3.8066156700913320E-010
   3.2099999999999997E-002    -9.0700359584045579E-010
   3.2400000000000005E-002     1.6488371863757106E-009
   3.2700000000000000E-002     2.5268044315331827E-009
   3.3000000000000002E-002    -5.6873356816254460E-009
   3.3300000000000003E-002    -7.1760769266522579E-009
   3.3599999999999998E-002     1.5960893598556245E-008
   3.3900000000000000E-002     2.0016868249783664E-008
   3.4200000000000001E-002    -4.0177704435593101E-008
   3.4500000000000003E-002    -6.5849454087292875E-008
   3.4799999999999998E-002     6.7174705311048755E-008
   3.5099999999999999E-002     2.8568430284139789E-007
   3.5400000000000001E-002     7.6082129247318059E-007
   3.5699999999999996E-002     2.6711857811973018E-006
   3.6000000000000004E-002     7.5530626747225052E-006
   3.6299999999999999E-002     1.5337622352769341E-005
   3.6600000000000008E-002     2.4189455824203830E-005
   3.6900000000000002E-002     3.3332254234801646E-005
   3.7199999999999997E-002     4.5065903976098718E-005
   3.7500000000000006E-002     6.3328818050855965E-005
   3.7800000000000000E-002     9.2393579669682583E-005
   3.8100000000000009E-002     1.3839119725954268E-004
   3.8400000000000004E-002     2.0906358119747998E-004
   3.8699999999999998E-002     3.0964926106222669E-004
   3.9000000000000007E-002     4.4321663877203670E-004
   3.9300000000000002E-002     6.1886690569576972E-004
   3.9600000000000003E-002     8.5436271436045545E-004
   3.9900000000000005E-002     1.1650352335042318E-003
   4.0200000000000000E-002     1.5550701117773875E-003
   4.0500000000000001E-002     2.0241533164059365E-003
   4.0800000000000003E-002     2.5733696094247106E-003
   4.1100000000000005E-002     3.1955266208992033E-003
   4.1399999999999999E-002     3.8651591901242323E-003
   4.1700000000000008E-002     4.5401026091155400E-003
   4.2000000000000003E-002     5.1565487037690894E-003
   4.2299999999999997E-002     5.6112431333735207E-003
   4.2600000000000006E-002     5.7575477545602225E-003
   4.2900000000000001E-002     5.4218034969551847E-003
   4.3200000000000002E-002     4.4065112967522219E-003
   4.3500000000000004E-002     2.4769170911059799E-003
   4.3799999999999999E-002    -6.3140022692693867E-004
   4.4100000000000000E-002    -5.1729650523864986E-003
   4.4400000000000002E-002    -1.1358068138797844E-002
   4.4700000000000004E-002    -1.9335666825843239E-002
   4.4999999999999998E-002    -2.9166130810845639E-002
   4.5300000000000000E-002    -4.0781578738116525E-002
   4.5600000000000002E-002    -5.3962281749526830E-002
   4.5899999999999996E-002    -6.8324985644787992E-002
   4.6200000000000005E-002    -8.3316864740016622E-002
   4.6500000000000000E-002    -9.8232971124595198E-002
   4.6799999999999994E-002   -0.11226879851260722     
   4.7100000000000003E-002   -0.12459250446162441     
   4.7399999999999998E-002   -0.13442554801956033     
   4.7700000000000006E-002   -0.14113696937254241     
   4.8000000000000001E-002   -0.14434766072156435     
   4.8300000000000010E-002   -0.14400148952486611     
   4.8600000000000004E-002   -0.14038983325702203     
   4.8899999999999999E-002   -0.13415664580972367     
   4.9200000000000008E-002   -0.12620206184334140     
   4.9500000000000002E-002   -0.11756980359280991     
   4.9800000000000011E-002   -0.10929688774691941     
   5.0100000000000006E-002   -0.10221246720647842     
   5.0400000000000000E-002    -9.6695001727139962E-002
   5.0700000000000009E-002    -9.2466986944166760E-002
   5.1000000000000004E-002    -8.8527750148737372E-002
   5.1299999999999998E-002    -8.3166086477662368E-002
   5.1600000000000007E-002    -7.4079334100831548E-002
   5.1900000000000002E-002    -5.8581252865000016E-002
   5.2200000000000010E-002    -3.3986459390266642E-002
   5.2500000000000005E-002     1.8673341906226661E-003
   5.2800000000000000E-002     5.0147619767873811E-002
   5.3099999999999994E-002    0.11065215117213550     
   5.3400000000000003E-002    0.18135962098142397     
   5.3699999999999998E-002    0.25830367539938298     
   5.4000000000000006E-002    0.33569238199540491     
   5.4300000000000001E-002    0.40618557755344498     
   5.4599999999999996E-002    0.46147446365674782     
   5.4900000000000004E-002    0.49311702542737668     
   5.5199999999999999E-002    0.49344119092030819     
   5.5499999999999994E-002    0.45658901518585582     
   5.5800000000000002E-002    0.37936062243639967     
   5.6099999999999997E-002    0.26193718063798149     
   5.6400000000000006E-002    0.10832301900463859     
   5.6700000000000000E-002    -7.3598008348199032E-002
   5.6999999999999995E-002   -0.27234809567887536     
   5.7300000000000004E-002   -0.47362669524715867     
   5.7599999999999998E-002   -0.66138731995085664     
   5.7900000000000007E-002   -0.81905579519330185     
   5.8200000000000002E-002   -0.93099624264166003     
   5.8499999999999996E-002   -0.98392892577855340     
   5.8800000000000005E-002   -0.96811998841299129     
   5.9100000000000000E-002   -0.87848098166119271     
   5.9400000000000008E-002   -0.71506543020597291     
   5.9700000000000003E-002   -0.48335097097433299     
   6.0000000000000012E-002   -0.19393927354616339     
   6.0300000000000006E-002    0.13819558932986273     
   6.0600000000000001E-002    0.49474585699192747     
   6.0900000000000010E-002    0.85530181083269885     
   6.1200000000000004E-002     1.1989219395390847     
   6.1500000000000013E-002     1.5056351698797528     
   6.1800000000000008E-002     1.7578450777004628     
   6.2100000000000002E-002     1.9414295340275860     
   6.2399999999999997E-002     2.0466454440105379     
   6.2700000000000006E-002     2.0687079849525709     
   6.3000000000000000E-002     2.0077090670760271     
   6.3300000000000009E-002     1.8685225622409978     
   6.3600000000000004E-002     1.6602154100423336     
   6.3899999999999998E-002     1.3949911849362546     
   6.4199999999999993E-002     1.0873592075927114     
   6.4500000000000002E-002    0.75303787898140040     
   6.4800000000000010E-002    0.40781077774314517     
   6.5100000000000005E-002     6.6574282255381714E-002
   6.5400000000000000E-002   -0.25753124162357127     
   6.5700000000000008E-002   -0.55358483683491999     
   6.5999999999999989E-002   -0.81333812928792859     
   6.6299999999999998E-002    -1.0313327639061463     
   6.6600000000000006E-002    -1.2048478482362535     
   6.6900000000000001E-002    -1.3335830345174757     
   6.7199999999999996E-002    -1.4192604202227459     
   6.7500000000000004E-002    -1.4651729236837761     
   6.7800000000000013E-002    -1.4756731146717208     
   6.8099999999999994E-002    -1.4554578393317119     
   6.8400000000000002E-002    -1.4092188177680809     
   6.8700000000000011E-002    -1.3414358160758408     
   6.8999999999999992E-002    -1.2557878714345188     
   6.9300000000000000E-002    -1.1552815614168386     
   6.9600000000000009E-002    -1.0423693788352641     
   6.9900000000000004E-002   -0.91905195366211490     
   7.0199999999999999E-002   -0.78724706539213163     
   7.0500000000000007E-002   -0.64919423940948173     
   7.0800000000000016E-002   -0.50776725411397650     
   7.1099999999999997E-002   -0.36668457511475155     
   7.1400000000000005E-002   -0.23072598838818387     
   7.1700000000000000E-002   -0.10559661220524137     
   7.1999999999999995E-002     2.3059385901193475E-003
   7.2300000000000003E-002     8.6402942244736741E-002
   7.2600000000000012E-002    0.14062416517432885     
   7.2900000000000006E-002    0.15999053550218767     
   7.3200000000000001E-002    0.14128205359471740     
   7.3499999999999996E-002     8.3782375777310833E-002
   7.3800000000000004E-002    -1.0594950601553467E-002
   7.4099999999999999E-002   -0.13707687509618563     
   7.4400000000000008E-002   -0.28822125115340308     
   7.4700000000000003E-002   -0.45448004037288148     
   7.5000000000000011E-002   -0.62502419615722415     
   7.5299999999999992E-002   -0.78843558410024384     
   7.5600000000000001E-002   -0.93384148204473516     
   7.5900000000000009E-002    -1.0516666416370954     
   7.6200000000000004E-002    -1.1343571271754769     
   7.6499999999999999E-002    -1.1769740972128688     
   7.6800000000000007E-002    -1.1771510083609149     
   7.7099999999999988E-002    -1.1350020626485702     
   7.7399999999999997E-002    -1.0528043956856332     
   7.7700000000000005E-002   -0.93426189959750705     
   7.8000000000000014E-002   -0.78395894654552867     
   7.8299999999999995E-002   -0.60656037511019534     
   7.8600000000000003E-002   -0.40632162958311824     
   7.8900000000000012E-002   -0.18663725470843631     
   7.9199999999999993E-002     5.0046909439574593E-002
   7.9500000000000001E-002    0.30210664299512069     
   7.9800000000000010E-002    0.56842092340146300     
   8.0100000000000018E-002    0.84784941624276777     
   8.0399999999999999E-002     1.1384713015602694     
   8.0700000000000008E-002     1.4372050187320444     
   8.1000000000000003E-002     1.7391182830365597     
   8.1299999999999997E-002     2.0370054887107787     
   8.1600000000000006E-002     2.3215263494501093     
   8.1900000000000014E-002     2.5813363133165947     
   8.2199999999999995E-002     2.8035128551637860     
   8.2500000000000004E-002     2.9744301152302262     
   8.2799999999999999E-002     3.0806248352781074     
   8.3100000000000007E-002     3.1102714545713832     
   8.3400000000000002E-002     3.0540180051779973     
   8.3700000000000011E-002     2.9060904667413010     
   8.4000000000000005E-002     2.6656360169855025     
   8.4300000000000000E-002     2.3370379824205370     
   8.4599999999999995E-002     1.9300058411736079     
   8.4900000000000003E-002     1.4598793261054839     
   8.5199999999999998E-002    0.94681464239045565     
   8.5500000000000007E-002    0.41454880343045142     
   8.5800000000000001E-002   -0.11056030166606445     
   8.6100000000000010E-002   -0.60158973213815647     
   8.6399999999999991E-002    -1.0328946499603402     
   8.6699999999999999E-002    -1.3817787397925445     
   8.7000000000000008E-002    -1.6305654109031698     
   8.7300000000000003E-002    -1.7680108443399141     
   8.7599999999999997E-002    -1.7903136953981893     
   8.7900000000000006E-002    -1.7020257334513627     
   8.8200000000000014E-002    -1.5157887468312137     
   8.8499999999999995E-002    -1.2518132405684537     
   8.8800000000000004E-002   -0.93679369151166147     
   8.9100000000000013E-002   -0.60186816195258974     
   8.9399999999999993E-002   -0.28058843382707432     
   8.9700000000000002E-002    -6.3420734057947738E-003
   9.0000000000000011E-002    0.19056815816680259     
   9.0299999999999991E-002    0.28516737825501459     
   9.0600000000000000E-002    0.26031193129444818     
   9.0900000000000009E-002    0.10867411263009129     
   9.1200000000000017E-002   -0.16665390736172317     
   9.1499999999999998E-002   -0.55131211747418241     
   9.1800000000000007E-002    -1.0202437974591025     
   9.2100000000000001E-002    -1.5395169616720301     
   9.2399999999999996E-002    -2.0683403369989506     
   9.2700000000000005E-002    -2.5617497291687381     
   9.3000000000000013E-002    -2.9744656356302523     
   9.3300000000000008E-002    -3.2640583711091895     
   9.3600000000000003E-002    -3.3943407640589589     
   9.3899999999999997E-002    -3.3386478427181419     
   9.4200000000000006E-002    -3.0821394816432828     
   9.4500000000000001E-002    -2.6232287673858949     
   9.4800000000000009E-002    -1.9742321660148441     
   9.5100000000000004E-002    -1.1608485784408513     
   9.5399999999999999E-002   -0.22070288604094590     
   9.5699999999999993E-002    0.79914187285426208     
   9.6000000000000002E-002     1.8449843416511360     
   9.6300000000000011E-002     2.8602247689329077     
   9.6600000000000005E-002     3.7888954064375557     
   9.6900000000000000E-002     4.5791297228921053     
   9.7200000000000009E-002     5.1866140495391733     
   9.7499999999999989E-002     5.5770187342787176     
   9.7799999999999998E-002     5.7279557965521652     
   9.8100000000000007E-002     5.6303786829510249     
   9.8400000000000015E-002     5.2885612861360238     
   9.8699999999999996E-002     4.7195748544382292     
   9.9000000000000005E-002     3.9520923227041456     
   9.9300000000000013E-002     3.0241114146161863     
   9.9599999999999994E-002     1.9807162499800510     
   9.9900000000000003E-002    0.87112703383609169     
  0.10020000000000001        -0.25445681436639472     
  0.10049999999999999         -1.3471362101606179     
  0.10080000000000000         -2.3626564038937286     
  0.10110000000000001         -3.2635610330197915     
  0.10140000000000000         -4.0199685018484965     
  0.10170000000000000         -4.6117677278945646     
  0.10200000000000001         -5.0284694875358653     
  0.10230000000000002         -5.2684201112022881     
  0.10260000000000000         -5.3388165041606213     
  0.10290000000000001         -5.2538722303834113     
  0.10320000000000000         -5.0332191543099398     
  0.10350000000000001         -4.7001765218595501     
  0.10380000000000000         -4.2800333928357190     
  0.10410000000000001         -3.7985065495482555     
  0.10440000000000001         -3.2798550823015216     
  0.10470000000000000         -2.7463880553235804     
  0.10500000000000000         -2.2175661455283078     
  0.10530000000000000         -1.7088108605705268     
  0.10560000000000000         -1.2321065463874774     
  0.10590000000000001        -0.79584809738707352     
  0.10620000000000000        -0.40416983769394776     
  0.10650000000000001         -5.8337610907921604E-002
  0.10679999999999999         0.24352803154108288     
  0.10710000000000000         0.50596107539019874     
  0.10740000000000001         0.73500871829256265     
  0.10770000000000000         0.93851023816788204     
  0.10800000000000000          1.1243887606696805     
  0.10830000000000001          1.3004781826184280     
  0.10859999999999999          1.4739280794532532     
  0.10890000000000000          1.6494555601502841     
  0.10920000000000001          1.8303857271097468     
  0.10950000000000001          2.0171160215658004     
  0.10979999999999999          2.2068846001436602     
  0.11009999999999999          2.3951084601413544     
  0.11040000000000001          2.5745751999305879     
  0.11070000000000001          2.7357936134156158     
  0.11100000000000000          2.8695462004204124     
  0.11130000000000000          2.9658458457748575     
  0.11160000000000002          3.0150656850971482     
  0.11190000000000001          3.0096595337437702     
  0.11220000000000001          2.9437296329590223     
  0.11250000000000000          2.8133926222083394     
  0.11280000000000000          2.6177649235133797     
  0.11309999999999999          2.3585543300516174     
  0.11340000000000001          2.0394794565593086     
  0.11369999999999998          1.6665340265773572     
  0.11400000000000000          1.2485217650405191     
  0.11430000000000000         0.79520758069414998     
  0.11460000000000002         0.31799574850762136     
  0.11489999999999999        -0.16986183131491855     
  0.11520000000000001        -0.65477005517546749     
  0.11550000000000001         -1.1222668098148465     
  0.11580000000000000         -1.5571906994185283     
  0.11609999999999999         -1.9453658313807034     
  0.11640000000000002         -2.2735367277232599     
  0.11670000000000001         -2.5297697025675050     
  0.11700000000000001         -2.7052562611677273     
  0.11730000000000000         -2.7945628433672218     
  0.11760000000000000         -2.7958929646316109     
  0.11789999999999999         -2.7117845909420346     
  0.11820000000000001         -2.5494761114973823     
  0.11850000000000001         -2.3199352592644051     
  0.11880000000000000         -2.0371719885989417     
  0.11910000000000000         -1.7185976533968508     
  0.11940000000000002         -1.3822074940894449     
  0.11970000000000001         -1.0460689917331301     
  0.12000000000000001        -0.72793610685175347     
  0.12030000000000000        -0.44277210942716472     
  0.12060000000000000        -0.20240521336979239     
  0.12089999999999999         -1.5483272609337189E-002
  0.12119999999999999         0.11387852120665758     
  0.12150000000000001         0.18589392626209567     
  0.12180000000000001         0.20491770021702374     
  0.12210000000000000         0.17910617483312438     
  0.12239999999999999         0.12031201918323914     
  0.12270000000000002          4.3123937665038789E-002
  0.12300000000000001         -3.5835770808033969E-002
  0.12330000000000001         -9.8552674175549249E-002
  0.12360000000000000        -0.12691309167918768     
  0.12390000000000000        -0.10453057057059337     
  0.12419999999999999         -1.6646816637316569E-002
  0.12450000000000001         0.14753776913947070     
  0.12480000000000001         0.39367367794859309     
  0.12509999999999999         0.72231279021412798     
  0.12540000000000001          1.1267461846594489     
  0.12570000000000003          1.5935943459400708     
  0.12600000000000000          2.1029227381232589     
  0.12630000000000002          2.6280792622827502     
  0.12659999999999999          3.1377183116198020     
  0.12690000000000001          3.5966080562364979     
  0.12719999999999998          3.9680122449542812     
  0.12750000000000000          4.2159134583561091     
  0.12780000000000002          4.3073083643418588     
  0.12809999999999999          4.2154990868718469     
  0.12840000000000001          3.9226366555060981     
  0.12869999999999998          3.4214915013540010     
  0.12900000000000000          2.7195854908393393     
  0.12930000000000003          1.8396735308317020     
  0.12959999999999999         0.82041340587202016     
  0.12990000000000002        -0.28176334972855432     
  0.13019999999999998         -1.3961304566491211     
  0.13050000000000000         -2.4396835533026566     
  0.13080000000000003         -3.3217346411835962     
  0.13109999999999999         -3.9510357943166108     
  0.13140000000000002         -4.2427335909254644     
  0.13169999999999998         -4.1279641514517165     
  0.13200000000000001         -3.5625697228205460     
  0.13229999999999997         -2.5350005865919303     
  0.13260000000000000         -1.0736432134662004     
  0.13290000000000002         0.75066173816127102     
  0.13319999999999999          2.8232100687434958     
  0.13350000000000001          4.9909313745648927     
  0.13380000000000003          7.0706860144472126     
  0.13410000000000000          8.8622111800226921     
  0.13440000000000002          10.164802747481739     
  0.13469999999999999          10.796697995855947     
  0.13500000000000001          10.611947537381285     
  0.13529999999999998          9.5200266802406297     
  0.13560000000000000          7.4982584685396310     
  0.13590000000000002          4.6005460030428118     
  0.13619999999999999         0.96025802286631579     
  0.13650000000000001         -3.2165669784380571     
  0.13680000000000003         -7.6632153538443086     
  0.13710000000000000         -12.070957896061625     
  0.13740000000000002         -16.115010525487513     
  0.13769999999999999         -19.479146718939532     
  0.13800000000000001         -21.884782912173467     
  0.13829999999999998         -23.114620565889641     
  0.13860000000000000         -23.032412022685737     
  0.13890000000000002         -21.597311400944122     
  0.13919999999999999         -18.866897742623326     
  0.13950000000000001         -14.993909632520543     
  0.13979999999999998         -10.215229305613219     
  0.14010000000000000         -4.8313338234362151     
  0.14040000000000002         0.81755834999043719     
  0.14069999999999999          6.3773422962738477     
  0.14100000000000001          11.507805033922262     
  0.14130000000000004          15.906930626471148     
  0.14160000000000000          19.331337068185245     
  0.14189999999999997          21.609903695463284     
  0.14219999999999999          22.651987569105291     
  0.14250000000000002          22.448439137464089     
  0.14279999999999998          21.064958939653724     
  0.14310000000000000          18.633535517016689     
  0.14339999999999997          15.336657331844476     
  0.14369999999999999          11.391164198185962     
  0.14400000000000002          7.0334891709694221     
  0.14429999999999998          2.5004412893948817     
  0.14460000000000001         -1.9821697310069080     
  0.14490000000000003         -6.2110432759190823     
  0.14520000000000000         -10.014526178910517     
  0.14550000000000002         -13.257063996292336     
  0.14579999999999999         -15.840218934524964     
  0.14610000000000001         -17.703487030239568     
  0.14640000000000003         -18.821794277801011     
  0.14670000000000000         -19.199954826283719     
  0.14699999999999996         -18.869661183724869     
  0.14729999999999999         -17.884164621119712     
  0.14760000000000001         -16.311996179663449     
  0.14789999999999998         -14.233446659169980     
  0.14820000000000000         -11.737320310772368     