  -1.4999999999999999E-002     0.0000000000000000     
  -1.4700000000000000E-002     0.0000000000000000     
  -1.4400000000000000E-002     0.0000000000000000     
  -1.4100000000000000E-002     0.0000000000000000     
  -1.3800000000000000E-002     0.0000000000000000     
  -1.3500000000000000E-002     0.0000000000000000     
  -1.3200000000000000E-002     0.0000000000000000     
  -1.2899999999999998E-002     0.0000000000000000     
  -1.2600000000000000E-002     0.0000000000000000     
  -1.2299999999999998E-002     0.0000000000000000     
  -1.2000000000000000E-002     0.0000000000000000     
  -1.1699999999999999E-002     0.0000000000000000     
  -1.1399999999999999E-002     0.0000000000000000     
  -1.1099999999999999E-002     0.0000000000000000     
  -1.0799999999999999E-002     0.0000000000000000     
  -1.0499999999999999E-002     0.0000000000000000     
  -1.0199999999999999E-002     0.0000000000000000     
  -9.8999999999999991E-003     0.0000000000000000     
  -9.5999999999999992E-003     0.0000000000000000     
  -9.2999999999999992E-003     0.0000000000000000     
  -8.9999999999999993E-003     0.0000000000000000     
  -8.6999999999999994E-003     0.0000000000000000     
  -8.3999999999999995E-003     0.0000000000000000     
  -8.0999999999999996E-003     0.0000000000000000     
  -7.7999999999999988E-003     0.0000000000000000     
  -7.4999999999999997E-003     0.0000000000000000     
  -7.1999999999999998E-003     0.0000000000000000     
  -6.8999999999999981E-003     0.0000000000000000     
  -6.5999999999999982E-003     0.0000000000000000     
  -6.3000000000000000E-003     0.0000000000000000     
  -6.0000000000000001E-003     0.0000000000000000     
  -5.6999999999999985E-003     0.0000000000000000     
  -5.3999999999999986E-003     0.0000000000000000     
  -5.1000000000000004E-003     0.0000000000000000     
  -4.7999999999999987E-003     0.0000000000000000     
  -4.5000000000000005E-003     0.0000000000000000     
  -4.1999999999999989E-003     0.0000000000000000     
  -3.8999999999999990E-003     0.0000000000000000     
  -3.5999999999999990E-003     0.0000000000000000     
  -3.2999999999999991E-003     0.0000000000000000     
  -2.9999999999999992E-003     0.0000000000000000     
  -2.6999999999999993E-003     0.0000000000000000     
  -2.3999999999999994E-003     0.0000000000000000     
  -2.0999999999999977E-003     0.0000000000000000     
  -1.7999999999999995E-003     0.0000000000000000     
  -1.4999999999999979E-003     0.0000000000000000     
  -1.1999999999999997E-003     0.0000000000000000     
  -8.9999999999999976E-004     0.0000000000000000     
  -5.9999999999999810E-004     0.0000000000000000     
  -2.9999999999999992E-004     0.0000000000000000     
   0.0000000000000000          0.0000000000000000     
   3.0000000000000165E-004     0.0000000000000000     
   5.9999999999999984E-004     0.0000000000000000     
   9.0000000000000149E-004     0.0000000000000000     
   1.2000000000000031E-003     0.0000000000000000     
   1.5000000000000013E-003     0.0000000000000000     
   1.8000000000000030E-003     0.0000000000000000     
   2.1000000000000012E-003     0.0000000000000000     
   2.3999999999999994E-003     0.0000000000000000     
   2.7000000000000010E-003     0.0000000000000000     
   2.9999999999999992E-003     0.0000000000000000     
   3.3000000000000008E-003     0.0000000000000000     
   3.6000000000000025E-003     0.0000000000000000     
   3.9000000000000007E-003     0.0000000000000000     
   4.2000000000000023E-003     0.0000000000000000     
   4.5000000000000005E-003     0.0000000000000000     
   4.7999999999999987E-003     0.0000000000000000     
   5.1000000000000004E-003     0.0000000000000000     
   5.4000000000000020E-003     0.0000000000000000     
   5.7000000000000037E-003     0.0000000000000000     
   5.9999999999999984E-003     0.0000000000000000     
   6.3000000000000000E-003     0.0000000000000000     
   6.6000000000000017E-003     0.0000000000000000     
   6.9000000000000034E-003     0.0000000000000000     
   7.2000000000000015E-003     0.0000000000000000     
   7.5000000000000032E-003     0.0000000000000000     
   7.8000000000000014E-003     0.0000000000000000     
   8.0999999999999996E-003     0.0000000000000000     
   8.4000000000000012E-003     0.0000000000000000     
   8.7000000000000029E-003     0.0000000000000000     
   9.0000000000000011E-003     0.0000000000000000     
   9.2999999999999992E-003     0.0000000000000000     
   9.6000000000000009E-003     0.0000000000000000     
   9.8999999999999991E-003     0.0000000000000000     
   1.0200000000000001E-002     0.0000000000000000     
   1.0500000000000002E-002     0.0000000000000000     
   1.0800000000000004E-002     0.0000000000000000     
   1.1099999999999999E-002     0.0000000000000000     
   1.1400000000000000E-002     0.0000000000000000     
   1.1700000000000002E-002     0.0000000000000000     
   1.2000000000000004E-002     0.0000000000000000     
   1.2300000000000002E-002     0.0000000000000000     
   1.2600000000000000E-002     0.0000000000000000     
   1.2900000000000002E-002     0.0000000000000000     
   1.3200000000000000E-002     0.0000000000000000     
   1.3500000000000002E-002     0.0000000000000000     
   1.3800000000000003E-002     0.0000000000000000     
   1.4100000000000001E-002     0.0000000000000000     
   1.4400000000000000E-002     0.0000000000000000     
   1.4700000000000001E-002     0.0000000000000000     
   1.4999999999999999E-002     0.0000000000000000     
   1.5300000000000001E-002     0.0000000000000000     
   1.5600000000000003E-002     0.0000000000000000     
   1.5899999999999997E-002     0.0000000000000000     
   1.6199999999999999E-002     0.0000000000000000     
   1.6500000000000001E-002     0.0000000000000000     
   1.6800000000000002E-002     0.0000000000000000     
   1.7100000000000004E-002     0.0000000000000000     
   1.7400000000000006E-002     0.0000000000000000     
   1.7700000000000000E-002     0.0000000000000000     
   1.8000000000000002E-002     0.0000000000000000     
   1.8300000000000004E-002     0.0000000000000000     
   1.8600000000000005E-002     0.0000000000000000     
   1.8900000000000000E-002     0.0000000000000000     
   1.9200000000000002E-002     0.0000000000000000     
   1.9500000000000003E-002     0.0000000000000000     
   1.9799999999999998E-002     0.0000000000000000     
   2.0100000000000000E-002     0.0000000000000000     
   2.0400000000000001E-002     0.0000000000000000     
   2.0700000000000003E-002     0.0000000000000000     
   2.0999999999999998E-002     0.0000000000000000     
   2.1299999999999999E-002     0.0000000000000000     
   2.1600000000000001E-002     0.0000000000000000     
   2.1900000000000003E-002     0.0000000000000000     
   2.2200000000000004E-002     0.0000000000000000     
   2.2500000000000006E-002     0.0000000000000000     
   2.2800000000000001E-002     0.0000000000000000     
   2.3100000000000002E-002     0.0000000000000000     
   2.3400000000000004E-002     0.0000000000000000     
   2.3699999999999999E-002     0.0000000000000000     
   2.4000000000000000E-002     0.0000000000000000     
   2.4300000000000002E-002     0.0000000000000000     
   2.4599999999999997E-002     0.0000000000000000     
   2.4900000000000005E-002     0.0000000000000000     
   2.5200000000000000E-002     0.0000000000000000     
   2.5499999999999995E-002     0.0000000000000000     
   2.5800000000000003E-002     0.0000000000000000     
   2.6099999999999998E-002     0.0000000000000000     
   2.6400000000000007E-002     0.0000000000000000     
   2.6700000000000002E-002     0.0000000000000000     
   2.6999999999999996E-002     0.0000000000000000     
   2.7300000000000005E-002     0.0000000000000000     
   2.7600000000000000E-002     0.0000000000000000     
   2.7900000000000008E-002     0.0000000000000000     
   2.8200000000000003E-002     0.0000000000000000     
   2.8499999999999998E-002     0.0000000000000000     
   2.8800000000000006E-002     0.0000000000000000     
   2.9100000000000001E-002     0.0000000000000000     
   2.9400000000000003E-002     0.0000000000000000     
   2.9700000000000004E-002     0.0000000000000000     
   3.0000000000000006E-002     0.0000000000000000     
   3.0300000000000001E-002     0.0000000000000000     
   3.0600000000000002E-002     0.0000000000000000     
   3.0900000000000004E-002     0.0000000000000000     
   3.1199999999999999E-002     0.0000000000000000     
   3.1500000000000007E-002     0.0000000000000000     
   3.1800000000000002E-002     2.1129496558539628E-043
   3.2099999999999997E-002     2.0672203205154402E-043
   3.2400000000000005E-002    -2.7135270670096175E-042
   3.2700000000000000E-002    -1.8385058229991583E-040
   3.3000000000000002E-002     4.0154303057873098E-038
   3.3300000000000003E-002     4.3172240382938844E-037
   3.3599999999999998E-002     1.1723889837414816E-036
   3.3900000000000000E-002    -3.2014524200264623E-036
   3.4200000000000001E-002     2.3230361393212679E-034
   3.4500000000000003E-002    -7.8955704029053905E-034
   3.4799999999999998E-002     2.9984905652442692E-033
   3.5099999999999999E-002    -8.9762310355447320E-033
   3.5400000000000001E-002     3.0788086146094412E-032
   3.5699999999999996E-002    -1.0995785033519432E-031
   3.6000000000000004E-002     4.1294657842504592E-031
   3.6299999999999999E-002    -1.5621751048998649E-030
   3.6600000000000008E-002     5.7651689048699222E-030
   3.6900000000000002E-002    -2.0404560350955200E-029
   3.7199999999999997E-002     6.8367671630245505E-029
   3.7500000000000006E-002    -2.1444965730942280E-028
   3.7800000000000000E-002     6.2164147993027801E-028
   3.8100000000000009E-002    -1.6318571853849930E-027
   3.8400000000000004E-002     3.7244619276723276E-027
   3.8699999999999998E-002    -6.6099209093568300E-027
   3.9000000000000007E-002     4.6784486644962679E-027
   3.9300000000000002E-002     3.0128168376431762E-026
   3.9600000000000003E-002    -2.0390295169162392E-025
   3.9900000000000005E-002     8.6278750012000601E-025
   4.0200000000000000E-002    -3.0139542093766182E-024
   4.0500000000000001E-002     9.2289749523379533E-024
   4.0800000000000003E-002    -2.4770851404419788E-023
   4.1100000000000005E-002     5.5173604308794813E-023
   4.1399999999999999E-002    -8.2218157087008560E-023
   4.1700000000000008E-002    -3.9536282520667923E-023
   4.2000000000000003E-002     8.8530389110760711E-022
   4.2299999999999997E-002    -4.0092664981044272E-021
   4.2600000000000006E-002     1.1909518432449521E-020
   4.2900000000000001E-002    -2.3356865699674748E-020
   4.3200000000000002E-002     1.3845816467322802E-020
   4.3500000000000004E-002     1.0791991125803093E-019
   4.3799999999999999E-002    -5.2328697056609425E-019
   4.4100000000000000E-002     1.2727560521523615E-018
   4.4400000000000002E-002    -1.2585823247241686E-018
   4.4700000000000004E-002    -3.5944451592743196E-018
   4.4999999999999998E-002     1.9640767241996940E-017
   4.5300000000000000E-002    -4.1004760089260197E-017
   4.5600000000000002E-002     9.8813296816207529E-018
   4.5899999999999996E-002     2.0614782334587613E-016
   4.6200000000000005E-002    -6.2646719297268192E-016
   4.6500000000000000E-002     5.1422395331611110E-016
   4.6799999999999994E-002     2.1178675450308582E-015
   4.7100000000000003E-002    -7.8323288513007577E-015
   4.7399999999999998E-002     6.6250680318546835E-015
   4.7700000000000006E-002     2.6560479046943489E-014
   4.8000000000000001E-002    -8.8440553103729423E-014
   4.8300000000000010E-002     3.6056758996807079E-014
   4.8600000000000004E-002     3.7744564061710309E-013
   4.8899999999999999E-002    -8.2404291292768212E-013
   4.9200000000000008E-002    -5.2009179022978678E-013
   4.9500000000000002E-002     4.7363233771672642E-012
   4.9800000000000011E-002    -4.0890210835935649E-012
   5.0100000000000006E-002    -1.6894919087057831E-011
   5.0400000000000000E-002     3.8494186075368426E-011
   5.0700000000000009E-002     3.5824418459704937E-011
   5.1000000000000004E-002    -2.0542639207405334E-010
   5.1299999999999998E-002     1.4468155110200779E-011
   5.1600000000000007E-002     8.7547084532799078E-010
   5.1900000000000002E-002    -5.9359137392441078E-010
   5.2200000000000010E-002    -3.3541147457674210E-009
   5.2500000000000005E-002     3.6850346986243472E-009
   5.2800000000000000E-002     1.2555832522801334E-008
   5.3099999999999994E-002    -1.6169548479518123E-008
   5.3400000000000003E-002    -4.9168556287040208E-008
   5.3699999999999998E-002     5.2301082737376935E-008
   5.4000000000000006E-002     1.9191070458528154E-007
   5.4300000000000001E-002    -1.1996488413140406E-007
   5.4599999999999996E-002    -7.6797098689969552E-007
   5.4900000000000004E-002    -1.2006529683772186E-008
   5.5199999999999999E-002     3.8854165255651758E-006
   5.5499999999999994E-002     9.7917511609554022E-006
   5.5800000000000002E-002     1.5227953658221553E-005
   5.6099999999999997E-002     2.1789659097505527E-005
   5.6400000000000006E-002     3.5255014918550438E-005
   5.6700000000000000E-002     5.8538478415885034E-005
   5.6999999999999995E-002     9.0042716933894551E-005
   5.7300000000000004E-002     1.3258956899267428E-004
   5.7599999999999998E-002     1.9791050292203755E-004
   5.7900000000000007E-002     2.9794789151265549E-004
   5.8200000000000002E-002     4.3949200936590029E-004
   5.8499999999999996E-002     6.3428120585031845E-004
   5.8800000000000005E-002     9.0760865033124661E-004
   5.9100000000000000E-002     1.2898168331722960E-003
   5.9400000000000008E-002     1.8053408600161745E-003
   5.9700000000000003E-002     2.4769537571875003E-003
   6.0000000000000012E-002     3.3355500464611132E-003
   6.0300000000000006E-002     4.4182440808529944E-003
   6.0600000000000001E-002     5.7547255908742320E-003
   6.0900000000000010E-002     7.3534653071237379E-003
   6.1200000000000004E-002     9.1957534599617953E-003
   6.1500000000000013E-002     1.1236558115174393E-002
   6.1800000000000008E-002     1.3396172454196095E-002
   6.2100000000000002E-002     1.5533838709071983E-002
   6.2399999999999997E-002     1.7420936159287779E-002
   6.2700000000000006E-002     1.8745348812624615E-002
   6.3000000000000000E-002     1.9123482178872265E-002
   6.3300000000000009E-002     1.8095004965958495E-002
   6.3600000000000004E-002     1.5109164189067097E-002
   6.3899999999999998E-002     9.5564284981131051E-003
   6.4199999999999993E-002     8.2772304768436366E-004
   6.4500000000000002E-002    -1.1618942907779425E-002
   6.4800000000000010E-002    -2.8203939208244173E-002
   6.5100000000000005E-002    -4.9137380198821683E-002
   6.5400000000000000E-002    -7.4324005407063409E-002
   6.5700000000000008E-002   -0.10325732261743714     
   6.5999999999999989E-002   -0.13494178308802252     
   6.6299999999999998E-002   -0.16782850125531812     
   6.6600000000000006E-002   -0.19980958636535545     
   6.6900000000000001E-002   -0.22824999947983815     
   6.7199999999999996E-002   -0.25008519801866858     
   6.7500000000000004E-002   -0.26196691316371967     
   6.7800000000000013E-002   -0.26050477420675300     
   6.8099999999999994E-002   -0.24253739519555095     
   6.8400000000000002E-002   -0.20546216469112169     
   6.8700000000000011E-002   -0.14755283427784172     
   6.8999999999999992E-002    -6.8302844707722146E-002
   6.9300000000000000E-002     3.1352189881741724E-002
   6.9600000000000009E-002    0.14883365470845111     
   6.9900000000000004E-002    0.27990691449576832     
   7.0199999999999999E-002    0.41875552295415674     
   7.0500000000000007E-002    0.55819937022225019     
   7.0800000000000016E-002    0.69013143120602560     
   7.1099999999999997E-002    0.80598932768039933     
   7.1400000000000005E-002    0.89740045105171973     
   7.1700000000000000E-002    0.95676131781466389     
   7.1999999999999995E-002    0.97790647299903388     
   7.2300000000000003E-002    0.95662780527725078     
   7.2600000000000012E-002    0.89111113591663016     
   7.2900000000000006E-002    0.78215866922716348     
   7.3200000000000001E-002    0.63322395249549768     
   7.3499999999999996E-002    0.45027752772554852     
   7.3800000000000004E-002    0.24144765096400500     
   7.4099999999999999E-002     1.6435404915954001E-002
   7.4400000000000008E-002   -0.21406751286800069     
   7.4700000000000003E-002   -0.43915676594949071     
   7.5000000000000011E-002   -0.64835002831765454     
   7.5299999999999992E-002   -0.83227787344371373     
   7.5600000000000001E-002   -0.98321985392039757     
   7.5900000000000009E-002    -1.0955148879716379     
   7.6200000000000004E-002    -1.1657236748315665     
   7.6499999999999999E-002    -1.1927052451881415     
   7.6800000000000007E-002    -1.1775178940275870     
   7.7099999999999988E-002    -1.1232039819326096     
   7.7399999999999997E-002    -1.0344119989209690     
   7.7700000000000005E-002   -0.91700213878269277     
   7.8000000000000014E-002   -0.77771300795097065     
   7.8299999999999995E-002   -0.62374677180226634     
   7.8600000000000003E-002   -0.46242692903745430     
   7.8900000000000012E-002   -0.30092426916103804     
   7.9199999999999993E-002   -0.14595132025017529     
   7.9500000000000001E-002    -3.6988870424136695E-003
   7.9800000000000010E-002    0.12050114999704439     
   8.0100000000000018E-002    0.22211447491556541     
   8.0399999999999999E-002    0.29782315430247919     
   8.0700000000000008E-002    0.34538838681459616     
   8.1000000000000003E-002    0.36409917489543098     
   8.1299999999999997E-002    0.35450967277784307     
   8.1600000000000006E-002    0.31888655939277788     
   8.1900000000000014E-002    0.26086937881613559     
   8.2199999999999995E-002    0.18566243603497851     
   8.2500000000000004E-002     9.9510373237524763E-002
   8.2799999999999999E-002     9.7147440937634215E-003
   8.3100000000000007E-002    -7.6078199376516026E-002
   8.3400000000000002E-002   -0.15017416278570039     
   8.3700000000000011E-002   -0.20559743318939736     
   8.4000000000000005E-002   -0.23642105059978402     
   8.4300000000000000E-002   -0.23845520081257521     
   8.4599999999999995E-002   -0.20943110090960004     
   8.4900000000000003E-002   -0.14944866377149713     
   8.5199999999999998E-002    -6.0830726334766938E-002
   8.5500000000000007E-002     5.1859649042866107E-002
   8.5800000000000001E-002    0.18227250849341819     
   8.6100000000000010E-002    0.32261370982636195     
   8.6399999999999991E-002    0.46438203266087064     
   8.6699999999999999E-002    0.59890698865401237     
   8.7000000000000008E-002    0.71806836285205089     
   8.7300000000000003E-002    0.81477892246388961     
   8.7599999999999997E-002    0.88355656386153514     
   8.7900000000000006E-002    0.92077012226378230     
   8.8200000000000014E-002    0.92486519666125333     
   8.8499999999999995E-002    0.89619509489500082     
   8.8800000000000004E-002    0.83703446081137489     
   8.9100000000000013E-002    0.75106281335340819     
   8.9399999999999993E-002    0.64320237134451619     
   8.9700000000000002E-002    0.51896085340086218     
   9.0000000000000011E-002    0.38428346404436448     
   9.0299999999999991E-002    0.24488655511707969     
   9.0600000000000000E-002    0.10627032464038980     
   9.0900000000000009E-002    -2.6769822027636857E-002
   9.1200000000000017E-002   -0.14994591219718878     
   9.1499999999999998E-002   -0.25984718075327884     
   9.1800000000000007E-002   -0.35358643318507632     
   9.2100000000000001E-002   -0.42897322987843395     
   9.2399999999999996E-002   -0.48427314782384545     
   9.2700000000000005E-002   -0.51836705401410466     
   9.3000000000000013E-002   -0.53059707337203821     
   9.3300000000000008E-002   -0.52089191445537197     
   9.3600000000000003E-002   -0.48981521907809755     
   9.3899999999999997E-002   -0.43871918822914946     
   9.4200000000000006E-002   -0.36978510322704827     
   9.4500000000000001E-002   -0.28616158512338608     
   9.4800000000000009E-002   -0.19194278442896065     
   9.5100000000000004E-002    -9.2102463633241316E-002
   9.5399999999999999E-002     7.6868499076155079E-003
   9.5699999999999993E-002    0.10126880176665624     
   9.6000000000000002E-002    0.18239539277714847     
   9.6300000000000011E-002    0.24511378549652718     
   9.6600000000000005E-002    0.28417198255079446     
   9.6900000000000000E-002    0.29540194446682350     
   9.7200000000000009E-002    0.27617022077996317     
   9.7499999999999989E-002    0.22563307969275276     
   9.7799999999999998E-002    0.14485679125505160     
   9.8100000000000007E-002     3.6850187611819886E-002
   9.8400000000000015E-002    -9.3585943569924668E-002
   9.8699999999999996E-002   -0.24002755386106756     
   9.9000000000000005E-002   -0.39487637785118029     
   9.9300000000000013E-002   -0.54974099486835815     
   9.9599999999999994E-002   -0.69612787958012834     
   9.9900000000000003E-002   -0.82578888896365366     
  0.10020000000000001        -0.93141162527252397     
  0.10049999999999999         -1.0068995866197459     
  0.10080000000000000         -1.0479396977012323     
  0.10110000000000001         -1.0520347795549618     
  0.10140000000000000         -1.0186886386037832     
  0.10170000000000000        -0.94929842231615558     
  0.10200000000000001        -0.84704345658240832     
  0.10230000000000002        -0.71647685473989586     
  0.10260000000000000        -0.56313962509394200     
  0.10290000000000001        -0.39317455243889143     
  0.10320000000000000        -0.21288102416076032     
  0.10350000000000001         -2.8255553141746541E-002
  0.10380000000000000         0.15525614263551235     
  0.10410000000000001         0.33293044411618672     
  0.10440000000000001         0.50090153964302941     
  0.10470000000000000         0.65610169129952411     
  0.10500000000000000         0.79622195542578500     
  0.10530000000000000         0.91936247158319984     
  0.10560000000000000          1.0240842056545623     
  0.10590000000000001          1.1090447869861841     
  0.10620000000000000          1.1729906697333490     
  0.10650000000000001          1.2146941175454928     
  0.10679999999999999          1.2331197457020251     
  0.10710000000000000          1.2274360394882611     
  0.10740000000000001          1.1972405107920103     
  0.10770000000000000          1.1428717230471714     
  0.10800000000000000          1.0654795473833576     
  0.10830000000000001         0.96719384278755149     
  0.10859999999999999         0.85100351349393288     
  0.10890000000000000         0.72079810346172357     
  0.10920000000000001         0.58102631550278772     
  0.10950000000000001         0.43633416063563912     
  0.10979999999999999         0.29105985441560156     
  0.11009999999999999         0.14900521452968565     
  0.11040000000000001          1.2898418733508388E-002
  0.11070000000000001        -0.11572103078678214     
  0.11100000000000000        -0.23672858193700441     
  0.11130000000000000        -0.35121559995493445     
  0.11160000000000002        -0.46119041742954547     
  0.11190000000000001        -0.56908242397400677     
  0.11220000000000001        -0.67722422714234898     
  0.11250000000000000        -0.78725390965167308     
  0.11280000000000000        -0.89942331265017605     
  0.11309999999999999         -1.0122391574714216     
  0.11340000000000001         -1.1222971763831573     
  0.11369999999999998         -1.2242437158817201     
  0.11400000000000000         -1.3111036208343634     
  0.11430000000000000         -1.3747683713089962     
  0.11460000000000002         -1.4069823156749617     
  0.11489999999999999         -1.4000209853585677     
  0.11520000000000001         -1.3478211980687600     
  0.11550000000000001         -1.2464831753762162     
  0.11580000000000000         -1.0951935163842244     
  0.11609999999999999        -0.89632297387072835     
  0.11640000000000002        -0.65576714540999548     
  0.11670000000000001        -0.38224804239048482     
  0.11700000000000001         -8.7026169911883666E-002
  0.11730000000000000         0.21716192280470720     
  0.11760000000000000         0.51674750327124830     
  0.11789999999999999         0.79875879299207253     
  0.11820000000000001          1.0513710096282560     
  0.11850000000000001          1.2649243058178756     
  0.11880000000000000          1.4322354500608920     
  0.11910000000000000          1.5490653425401266     
  0.11940000000000002          1.6140940536069919     
  0.11970000000000001          1.6286754027180443     
  0.12000000000000001          1.5964405760837455     
  0.12030000000000000          1.5227187458213289     
  0.12060000000000000          1.4141177574959647     
  0.12089999999999999          1.2777262810543926     
  0.12119999999999999          1.1208667464020543     
  0.12150000000000001         0.95028605663759791     
  0.12180000000000001         0.77218483947801431     
  0.12210000000000000         0.59183878528891376     
  0.12239999999999999         0.41358660790969148     
  0.12270000000000002         0.24077970315445885     
  0.12300000000000001          7.5822096914681378E-002
  0.12330000000000001         -7.9466950439149669E-002
  0.12360000000000000        -0.22390706985368808     
  0.12390000000000000        -0.35646879329953796     
  0.12419999999999999        -0.47643538928843410     
  0.12450000000000001        -0.58281976409037561     
  0.12480000000000001        -0.67470545130224269     
  0.12509999999999999        -0.75066734384921274     
  0.12540000000000001        -0.80933187364831594     
  0.12570000000000003        -0.84899881890097939     
  0.12600000000000000        -0.86818271262772362     
  0.12630000000000002        -0.86561011979619917     
  0.12659999999999999        -0.84068155625206575     
  0.12690000000000001        -0.79365129222867281     
  0.12719999999999998        -0.72593418505312557     
  0.12750000000000000        -0.64023630115006869     
  0.12780000000000002        -0.54062435365662387     
  0.12809999999999999        -0.43260406364573317     
  0.12840000000000001        -0.32265741819552207     
  0.12869999999999998        -0.21829350659999119     
  0.12900000000000000        -0.12707552254684779     
  0.12930000000000003         -5.6538603114622055E-002
  0.12959999999999999         -1.3105110788023230E-002
  0.12990000000000002         -2.0504222722638413E-003
  0.13019999999999998         -2.6366477459830479E-002
  0.13050000000000000         -8.6861290511315720E-002
  0.13080000000000003        -0.18151631432149085     
  0.13109999999999999        -0.30577390831623541     
  0.13140000000000002        -0.45242634414378324     
  0.13169999999999998        -0.61230589217723774     
  0.13200000000000001        -0.77466045165394104     
  0.13229999999999997        -0.92788018248306914     
  0.13260000000000000         -1.0602960230042799     
  0.13290000000000002         -1.1610562598633429     
  0.13319999999999999         -1.2209274540813584     
  0.13350000000000001         -1.2328052451760401     
  0.13380000000000003         -1.1922157490831149     
  0.13410000000000000         -1.0978116812601839     
  0.13440000000000002        -0.95112543760363022     
  0.13469999999999999        -0.75685321275266992     
  0.13500000000000001        -0.52213970597838433     
  0.13529999999999998        -0.25650255979082431     
  0.13560000000000000          2.9135003000230725E-002
  0.13590000000000002         0.32263817401964412     
  0.13619999999999999         0.61166876647070967     
  0.13650000000000001         0.88403666966772965     
  0.13680000000000003          1.1286485389837178     
  0.13710000000000000          1.3355379234128730     
  0.13740000000000002          1.4968020384690770     
  0.13769999999999999          1.6063923447537953     
  0.13800000000000001          1.6610415636311886     
  0.13829999999999998          1.6595729471963916     
  0.13860000000000000          1.6036834720454456     
  0.13890000000000002          1.4973394549927841     
  0.13919999999999999          1.3470058553254567     
  0.13950000000000001          1.1609289559088927     
  0.13979999999999998         0.94916346014013575     
  0.14010000000000000         0.72288931744721241     
  0.14040000000000002         0.49392439309505398     
  0.14069999999999999         0.27418610258390408     
  0.14100000000000001          7.4917449415184495E-002
  0.14130000000000004         -9.3547203872699256E-002
  0.14160000000000000        -0.22282033488298963     
  0.14189999999999997        -0.30646508034907144     
  0.14219999999999999        -0.34084777277106826     
  0.14250000000000002        -0.32494806520431291     
  0.14279999999999998        -0.26085803060179463     
  0.14310000000000000        -0.15334076082204096     
  0.14339999999999997         -9.9799525865430262E-003
  0.14369999999999999         0.15944293198924306     
  0.14400000000000002         0.34335945088433978     
  0.14429999999999998         0.52916779278658588     
  0.14460000000000001         0.70394271915398765     
  0.14490000000000003         0.85492057707697677     
  0.14520000000000000         0.97070094098694870     
  0.14550000000000002          1.0415412061966722     
  0.14579999999999999          1.0602846856897645     
  0.14610000000000001          1.0223647564171947     
  0.14640000000000003         0.92666288206035796     
  0.14670000000000000         0.77505721675168804     
  0.14699999999999996         0.57285461676180249     
  0.14729999999999999         0.32786866458636316     
  0.14760000000000001          5.0723784137283262E-002
  0.14789999999999998        -0.24626219551582748     
  0.14820000000000000        -0.54935520708983132     