  -1.4999999999999999E-002     0.0000000000000000     
  -1.4700000000000000E-002     0.0000000000000000     
  -1.4400000000000000E-002     0.0000000000000000     
  -1.4100000000000000E-002    -2.1813663365052273E-033
  -1.3800000000000000E-002    -2.9771530051880942E-030
  -1.3500000000000000E-002    -2.3318220329099543E-028
  -1.3200000000000000E-002     1.0480636147941246E-026
  -1.2899999999999998E-002     2.4636470374678923E-025
  -1.2600000000000000E-002    -3.6149942051531192E-024
  -1.2299999999999998E-002    -2.1993082494720151E-023
  -1.2000000000000000E-002     3.1277781005836346E-022
  -1.1699999999999999E-002     2.1682796905815510E-022
  -1.1399999999999999E-002    -8.9827660834558200E-021
  -1.1099999999999999E-002     8.9935581217569823E-021
  -1.0799999999999999E-002     1.1245860813811260E-019
  -1.0499999999999999E-002    -1.7642919428671157E-019
  -1.0199999999999999E-002    -7.9974784649435249E-019
  -9.8999999999999991E-003     1.1353112888952491E-018
  -9.5999999999999992E-003     4.6618813659951006E-018
  -9.2999999999999992E-003    -3.0119095729135700E-018
  -8.9999999999999993E-003    -2.5793758686159561E-017
  -8.6999999999999994E-003    -2.8237997091596325E-019
  -8.3999999999999995E-003     1.0779194999434928E-016
  -8.0999999999999996E-003     5.1239510760433252E-017
  -7.7999999999999988E-003    -2.8564620510273544E-016
  -7.4999999999999997E-003    -3.5064604757087768E-016
  -7.1999999999999998E-003     3.0188714808434860E-016
  -6.8999999999999981E-003     1.2626894018785229E-015
  -6.5999999999999982E-003     1.4011714180715974E-015
  -6.3000000000000000E-003    -1.9711538490356939E-015
  -6.0000000000000001E-003    -9.8482839147795821E-015
  -5.6999999999999985E-003    -3.1769447336304482E-015
  -5.3999999999999986E-003     3.1812989173700107E-014
  -5.1000000000000004E-003     2.7969365316962009E-014
  -4.7999999999999987E-003    -5.7076911848071507E-014
  -4.5000000000000005E-003    -8.1624097480075489E-014
  -4.1999999999999989E-003     4.1517249436890739E-014
  -3.8999999999999990E-003     4.9944456248880799E-014
  -3.5999999999999990E-003     7.6576282293585643E-014
  -3.2999999999999991E-003     6.1709282147559996E-013
  -2.9999999999999992E-003    -5.2681905571884850E-013
  -2.6999999999999993E-003    -2.6486111790534082E-012
  -2.3999999999999994E-003     2.0491477378432564E-012
  -2.0999999999999977E-003     4.2264713024011605E-012
  -1.7999999999999995E-003    -4.7692192221164590E-012
  -1.4999999999999979E-003     2.8186569342219397E-012
  -1.1999999999999997E-003     3.7503241970429922E-012
  -8.9999999999999976E-004    -2.6987272069049920E-011
  -5.9999999999999810E-004     1.3911839356614896E-011
  -2.9999999999999992E-004     4.9098587243134156E-011
   0.0000000000000000         -5.6314886853903225E-011
   3.0000000000000165E-004     8.5318316361001743E-012
   5.9999999999999984E-004     9.0436922118226256E-011
   9.0000000000000149E-004    -2.4261999208917708E-010
   1.2000000000000031E-003    -8.2686981160576523E-012
   1.5000000000000013E-003     6.0225852499878445E-010
   1.8000000000000030E-003    -3.4599576329129978E-010
   2.1000000000000012E-003    -7.1897233718961895E-010
   2.3999999999999994E-003     1.0519015782628836E-009
   2.7000000000000010E-003     6.0849000374432733E-011
   2.9999999999999992E-003    -1.9344646752345096E-009
   3.3000000000000008E-003     1.4454456369700414E-009
   3.6000000000000025E-003     2.4681422683598395E-009
   3.9000000000000007E-003    -2.8880481640056182E-009
   4.2000000000000023E-003    -1.9832870990187103E-009
   4.5000000000000005E-003     2.9289418800163167E-009
   4.7999999999999987E-003     3.0642800217940329E-010
   5.1000000000000004E-003    -1.4185571824419655E-009
   5.4000000000000020E-003     1.5896961274242217E-009
   5.7000000000000037E-003     1.7100814671952933E-010
   5.9999999999999984E-003    -2.0184727536905255E-009
   6.3000000000000000E-003    -1.1512423694225819E-009
   6.6000000000000017E-003     4.4447989154775794E-010
   6.9000000000000034E-003     3.5785876621175973E-009
   7.2000000000000015E-003     1.4070408021258690E-009
   7.5000000000000032E-003    -3.7537144169554936E-009
   7.8000000000000014E-003    -1.8493908442723031E-009
   8.0999999999999996E-003    -1.3428366727585536E-009
   8.4000000000000012E-003     2.9241688578415195E-009
   8.7000000000000029E-003     1.0490791024108865E-008
   9.0000000000000011E-003    -1.0877742552537384E-008
   9.2999999999999992E-003    -2.2357432828387358E-008
   9.6000000000000009E-003     3.1693807322015609E-008
   9.8999999999999991E-003     5.4845876679437493E-008
   1.0200000000000001E-002    -5.7504028507605635E-008
   1.0500000000000002E-002    -1.8855708197653983E-007
   1.0800000000000004E-002     1.5283456190156969E-008
   1.1099999999999999E-002     9.3484815287391047E-007
   1.1400000000000000E-002     2.4454314098551647E-006
   1.1700000000000002E-002     3.8820129651946064E-006
   1.2000000000000004E-002     5.2557968315084228E-006
   1.2300000000000002E-002     7.9719650908357812E-006
   1.2600000000000000E-002     1.3311739366515864E-005
   1.2900000000000002E-002     2.1195862901226834E-005
   1.3200000000000000E-002     3.2566308854314980E-005
   1.3500000000000002E-002     5.1281504621767128E-005
   1.3800000000000003E-002     7.8903390352236483E-005
   1.4100000000000001E-002     1.0980976575147508E-004
   1.4400000000000000E-002     1.3948534966723292E-004
   1.4700000000000001E-002     1.7491429231788360E-004
   1.4999999999999999E-002     2.2502593387441254E-004
   1.5300000000000001E-002     2.8202640750624300E-004
   1.5600000000000003E-002     3.2446125041271932E-004
   1.5899999999999997E-002     3.3616114664475609E-004
   1.6199999999999999E-002     3.0274289568636372E-004
   1.6500000000000001E-002     1.8098513369608081E-004
   1.6800000000000002E-002    -1.1971529399916648E-004
   1.7100000000000004E-002    -7.2972270088356769E-004
   1.7400000000000006E-002    -1.8178335895005313E-003
   1.7700000000000000E-002    -3.6171450723687824E-003
   1.8000000000000002E-002    -6.4645802279017540E-003
   1.8300000000000004E-002    -1.0835511851082594E-002
   1.8600000000000005E-002    -1.7361575219094601E-002
   1.8900000000000000E-002    -2.6838385142469799E-002
   1.9200000000000002E-002    -4.0246815682383488E-002
   1.9500000000000003E-002    -5.8785908627238433E-002
   1.9799999999999998E-002    -8.3887471464685878E-002
   2.0100000000000000E-002   -0.11720279750424001     
   2.0400000000000001E-002   -0.16056012833113081     
   2.0700000000000003E-002   -0.21588162612896619     
   2.0999999999999998E-002   -0.28507464838205060     
   2.1299999999999999E-002   -0.36989072282709035     
   2.1600000000000001E-002   -0.47173728722226554     
   2.1900000000000003E-002   -0.59143213029157682     
   2.2200000000000004E-002   -0.72896638970379302     
   2.2500000000000006E-002   -0.88320240299080710     
   2.2800000000000001E-002    -1.0515560359226739     
   2.3100000000000002E-002    -1.2297941493696622     
   2.3400000000000004E-002    -1.4118755262560216     
   2.3699999999999999E-002    -1.5899102796982172     
   2.4000000000000000E-002    -1.7542564912098555     
   2.4300000000000002E-002    -1.8937235830125285     
   2.4599999999999997E-002    -1.9961465471768038     
   2.4900000000000005E-002    -2.0489266214104136     
   2.5200000000000000E-002    -2.0400105967350197     
   2.5499999999999995E-002    -1.9587682945131979     
   2.5800000000000003E-002    -1.7971905790491274     
   2.6099999999999998E-002    -1.5508600165394681     
   2.6400000000000007E-002    -1.2199170696186401     
   2.6700000000000002E-002   -0.80957501622069317     
   2.6999999999999996E-002   -0.33050898503242510     
   2.7300000000000005E-002    0.20116507369643272     
   2.7600000000000000E-002    0.76478955038083396     
   2.7900000000000008E-002     1.3359877392531381     
   2.8200000000000003E-002     1.8885158018860402     
   2.8499999999999998E-002     2.3961489419749529     
   2.8800000000000006E-002     2.8349353383941627     
   2.9100000000000001E-002     3.1851751776911561     
   2.9400000000000003E-002     3.4334678210812624     
   2.9700000000000004E-002     3.5741396813716522     
   3.0000000000000006E-002     3.6101321286851058     
   3.0300000000000001E-002     3.5528595801445251     
   3.0600000000000002E-002     3.4215568517172135     
   3.0900000000000004E-002     3.2417109293124011     
   3.1199999999999999E-002     3.0423562678959097     
   3.1500000000000007E-002     2.8532449297052889     
   3.1800000000000002E-002     2.7020269222694453     
   3.2099999999999997E-002     2.6106141616515761     
   3.2400000000000005E-002     2.5930581781931750     
   3.2700000000000000E-002     2.6536442360047796     
   3.3000000000000002E-002     2.7853652174282204     
   3.3300000000000003E-002     2.9707861200727099     
   3.3599999999999998E-002     3.1828945496751375     
   3.3900000000000000E-002     3.3874411906749895     
   3.4200000000000001E-002     3.5465700298172256     
   3.4500000000000003E-002     3.6217460335226002     
   3.4799999999999998E-002     3.5778495468885172     
   3.5099999999999999E-002     3.3872760279867915     
   3.5400000000000001E-002     3.0318799613868044     
   3.5699999999999996E-002     2.5054067896831520     
   3.6000000000000004E-002     1.8155912395656366     
   3.6299999999999999E-002    0.98196748701845959     
   3.6600000000000008E-002     3.6092978812686749E-002
   3.6900000000000002E-002   -0.98086069044312829     
   3.7199999999999997E-002    -2.0226005630712507     
   3.7500000000000006E-002    -3.0393397739776220     
   3.7800000000000000E-002    -3.9821986445472142     
   3.8100000000000009E-002    -4.8079447197906182     
   3.8400000000000004E-002    -5.4798362181431433     
   3.8699999999999998E-002    -5.9712343844064248     
   3.9000000000000007E-002    -6.2673428008283460     
   3.9300000000000002E-002    -6.3653434854685820     
   3.9600000000000003E-002    -6.2744059848528781     
   3.9900000000000005E-002    -6.0156811282281515     
   4.0200000000000000E-002    -5.6194499657774095     
   4.0500000000000001E-002    -5.1236005678082028     
   4.0800000000000003E-002    -4.5716594271222366     
   4.1100000000000005E-002    -4.0083109788007096     
   4.1399999999999999E-002    -3.4777075738430780     
   4.1700000000000008E-002    -3.0184794277170961     
   4.2000000000000003E-002    -2.6611833087585897     
   4.2299999999999997E-002    -2.4241209625830740     
   4.2600000000000006E-002    -2.3106455317848180     
   4.2900000000000001E-002    -2.3069835653137849     
   4.3200000000000002E-002    -2.3805024528675487     
   4.3500000000000004E-002    -2.4807855742556852     
   4.3799999999999999E-002    -2.5413814679896789     
   4.4100000000000000E-002    -2.4849089278506344     
   4.4400000000000002E-002    -2.2281682544541876     
   4.4700000000000004E-002    -1.6929693654851248     
   4.4999999999999998E-002   -0.81352279778099812     
   4.5300000000000000E-002    0.45170644225043566     
   4.5600000000000002E-002     2.1098813483551093     
   4.5899999999999996E-002     4.1273082757969330     
   4.6200000000000005E-002     6.4231236316640565     
   4.6500000000000000E-002     8.8688507976401461     
   4.6799999999999994E-002     11.293276191282146     
   4.7100000000000003E-002     13.492025679597164     
   4.7399999999999998E-002     15.241735982447194     
   4.7700000000000006E-002     16.320296416912598     
   4.8000000000000001E-002     16.527311513966335     
   4.8300000000000010E-002     15.705432901068892     
   4.8600000000000004E-002     13.762404180597022     
   4.8899999999999999E-002     10.684282794520177     
   4.9200000000000008E-002     6.5460689092639530     
   4.9500000000000002E-002     1.5128777567357754     
   4.9800000000000011E-002    -4.1669944349440566     
   5.0100000000000006E-002    -10.177677770746802     
   5.0400000000000000E-002    -16.157995749836687     
   5.0700000000000009E-002    -21.727843220288932     
   5.1000000000000004E-002    -26.519899449477801     
   5.1299999999999998E-002    -30.207773452434846     
   5.1600000000000007E-002    -32.530962167603455     
   5.1900000000000002E-002    -33.317262044942467     
   5.2200000000000010E-002    -32.494266835441032     
   5.2500000000000005E-002    -30.091468500637149     
   5.2800000000000000E-002    -26.238747721084092     
   5.3099999999999994E-002    -21.152072160526103     
   5.3400000000000003E-002    -15.112940405827416     
   5.3699999999999998E-002    -8.4481163570862847     
   5.4000000000000006E-002    -1.5059753286741415     
   5.4300000000000001E-002     5.3732068786885332     
   5.4599999999999996E-002     11.871055055610515     
   5.4900000000000004E-002     17.712619594522508     
   5.5199999999999999E-002     22.680477648576328     
   5.5499999999999994E-002     26.615916666902674     
   5.5800000000000002E-002     29.425115546629055     
   5.6099999999999997E-002     31.076533582137259     
   5.6400000000000006E-002     31.592097736941156     
   5.6700000000000000E-002     31.042121579482519     
   5.6999999999999995E-002     29.537565260862706     
   5.7300000000000004E-002     27.213040315427438     
   5.7599999999999998E-002     24.228186292251294     
   5.7900000000000007E-002     20.750682334463640     
   5.8200000000000002E-002     16.950685153164962     
   5.8499999999999996E-002     12.997629110582405     
   5.8800000000000005E-002     9.0481085366359011     
   5.9100000000000000E-002     5.2454212939300700     
   5.9400000000000008E-002     1.7116126562909182     
   5.9700000000000003E-002    -1.4538238927306297     
   6.0000000000000012E-002    -4.1796735894128663     
   6.0300000000000006E-002    -6.4222031514400957     
   6.0600000000000001E-002    -8.1658157552782153     
   6.0900000000000010E-002    -9.4241650056352828     
   6.1200000000000004E-002    -10.232812912726096     
   6.1500000000000013E-002    -10.650531165207736     
   6.1800000000000008E-002    -10.748415053539146     
   6.2100000000000002E-002    -10.606715343069546     
   6.2399999999999997E-002    -10.306820472038249     
   6.2700000000000006E-002    -9.9270630617318858     
   6.3000000000000000E-002    -9.5320716035358224     
   6.3300000000000009E-002    -9.1745793351520391     
   6.3600000000000004E-002    -8.8889781494724875     
   6.3899999999999998E-002    -8.6876490278136806     
   6.4199999999999993E-002    -8.5688042994883702     
   6.4500000000000002E-002    -8.5100894272735346     
   6.4800000000000010E-002    -8.4779304266218354     
   6.5100000000000005E-002    -8.4288079585468445     
   6.5400000000000000E-002    -8.3146573866265214     
   6.5700000000000008E-002    -8.0892988828574843     
   6.5999999999999989E-002    -7.7106563856891555     
   6.6299999999999998E-002    -7.1478344545062811     
   6.6600000000000006E-002    -6.3819303581785682     
   6.6900000000000001E-002    -5.4113873605550324     
   6.7199999999999996E-002    -4.2487098312634801     
   6.7500000000000004E-002    -2.9248476686743139     
   6.7800000000000013E-002    -1.4839700088478986     
   6.8099999999999994E-002     1.8009074934298153E-002
   6.8400000000000002E-002     1.5170594565015727     
   6.8700000000000011E-002     2.9464602643497386     
   6.8999999999999992E-002     4.2400400340435818     
   6.9300000000000000E-002     5.3401769761625069     
   6.9600000000000009E-002     6.1976781099330358     
   6.9900000000000004E-002     6.7802152104578219     
   7.0199999999999999E-002     7.0706089556037224     
   7.0500000000000007E-002     7.0708648330042658     
   7.0800000000000016E-002     6.8015616278796447     
   7.1099999999999997E-002     6.2967367992401018     
   7.1400000000000005E-002     5.6082200097083970     
   7.1700000000000000E-002     4.7932969836902490     
   7.1999999999999995E-002     3.9166956331696063     
   7.2300000000000003E-002     3.0428135272069490     
   7.2600000000000012E-002     2.2321965480203039     
   7.2900000000000006E-002     1.5353600836476344     
   7.3200000000000001E-002    0.99255318654512892     
   7.3499999999999996E-002    0.62873664518815797     
   7.3800000000000004E-002    0.45239568309696843     
   7.4099999999999999E-002    0.45803998710270577     
   7.4400000000000008E-002    0.62254260320770538     
   7.4700000000000003E-002    0.91341110933177783     
   7.5000000000000011E-002     1.2860052729990066     
   7.5299999999999992E-002     1.6913888580368792     
   7.5600000000000001E-002     2.0785738968185759     
   7.5900000000000009E-002     2.3983799044709517     
   7.6200000000000004E-002     2.6089806572964420     
   7.6499999999999999E-002     2.6765145638723218     
   7.6800000000000007E-002     2.5807357368682320     
   7.7099999999999988E-002     2.3127837177480188     
   7.7399999999999997E-002     1.8787621604668061     
   7.7700000000000005E-002     1.2975178875837998     
   7.8000000000000014E-002    0.59840473968365471     
   7.8299999999999995E-002   -0.17988110437079541     
   7.8600000000000003E-002   -0.99309977464262067     
   7.8900000000000012E-002    -1.7939553782692710     
   7.9199999999999993E-002    -2.5382890223853223     
   7.9500000000000001E-002    -3.1827959352456796     
   7.9800000000000010E-002    -3.6951247717718854     
   8.0100000000000018E-002    -4.0480559753486149     
   8.0399999999999999E-002    -4.2265668469413189     
   8.0700000000000008E-002    -4.2268017645707801     
   8.1000000000000003E-002    -4.0543030882918636     
   8.1299999999999997E-002    -3.7255562515292864     
   8.1600000000000006E-002    -3.2655689915808166     
   8.1900000000000014E-002    -2.7055439692856047     
   8.2199999999999995E-002    -2.0815477229645305     
   8.2500000000000004E-002    -1.4333146832559391     
   8.2799999999999999E-002   -0.79869587393981978     
   8.3100000000000007E-002   -0.21500922971638919     
   8.3400000000000002E-002    0.28496880825360327     
   8.3700000000000011E-002    0.67649636599379503     
   8.4000000000000005E-002    0.93964720791554868     
   8.4300000000000000E-002     1.0668471400020039     
   8.4599999999999995E-002     1.0581709100238141     
   8.4900000000000003E-002    0.92463672970876898     
   8.5199999999999998E-002    0.68593052249663522     
   8.5500000000000007E-002    0.37084062485545144     
   8.5800000000000001E-002     1.2846916609650899E-002
   8.6100000000000010E-002   -0.34985685809129785     
   8.6399999999999991E-002   -0.67854027096658309     
   8.6699999999999999E-002   -0.93818545241043505     
   8.7000000000000008E-002    -1.0974353829742542     
   8.7300000000000003E-002    -1.1348302280242373     
   8.7599999999999997E-002    -1.0390668756143338     
   8.7900000000000006E-002   -0.81064347664130265     
   8.8200000000000014E-002   -0.46310616344069089     
   8.8499999999999995E-002    -2.0689971661148360E-002
   8.8800000000000004E-002    0.48236667613040696     
   8.9100000000000013E-002     1.0057518096361555     
   8.9399999999999993E-002     1.5045540314425805     
   8.9700000000000002E-002     1.9367972764398276     
   9.0000000000000011E-002     2.2628562349261916     
   9.0299999999999991E-002     2.4543564182694242     
   9.0600000000000000E-002     2.4918263028971044     
   9.0900000000000009E-002     2.3698382548233585     
   9.1200000000000017E-002     2.0964063815635590     
   9.1499999999999998E-002     1.6913896870453065     
   9.1800000000000007E-002     1.1868719922274371     
   9.2100000000000001E-002    0.62184698643829361     
   9.2399999999999996E-002     3.9663226030453358E-002
   9.2700000000000005E-002   -0.51581788507974247     
   9.3000000000000013E-002    -1.0041410547239620     
   9.3300000000000008E-002    -1.3909568584030381     
   9.3600000000000003E-002    -1.6518082769344073     
   9.3899999999999997E-002    -1.7725994567634651     
   9.4200000000000006E-002    -1.7505024463690377     
   9.4500000000000001E-002    -1.5923348216435445     
   9.4800000000000009E-002    -1.3168791141749761     
   9.5100000000000004E-002   -0.94698783212099902     
   9.5399999999999999E-002   -0.51357679709108128     
   9.5699999999999993E-002    -4.8540989610838525E-002
   9.6000000000000002E-002    0.41621228534033683     
   9.6300000000000011E-002    0.85046048783039940     
   9.6600000000000005E-002     1.2267882517911977     
   9.6900000000000000E-002     1.5244468349731211     
   9.7200000000000009E-002     1.7282464096200303     
   9.7499999999999989E-002     1.8279880606937855     
   9.7799999999999998E-002     1.8226069355066961     
   9.8100000000000007E-002     1.7153516069865244     
   9.8400000000000015E-002     1.5144607913642678     
   9.8699999999999996E-002     1.2358473881038736     
   9.9000000000000005E-002    0.89664139079161531     
   9.9300000000000013E-002    0.51731137687635664     
   9.9599999999999994E-002    0.12020144904953434     
   9.9900000000000003E-002   -0.27198871021859600     
  0.10020000000000001        -0.64053754128137652     
  0.10049999999999999        -0.96554372344270711     
  0.10080000000000000         -1.2331486710746329     
  0.10110000000000001         -1.4337442631080668     
  0.10140000000000000         -1.5612666729140519     
  0.10170000000000000         -1.6151726947184213     
  0.10200000000000001         -1.5999138832431525     
  0.10230000000000002         -1.5225951606189847     
  0.10260000000000000         -1.3937542603359141     
  0.10290000000000001         -1.2274564707004210     
  0.10320000000000000         -1.0357554267658413     
  0.10350000000000001        -0.83335601610660892     
  0.10380000000000000        -0.63347000439087697     
  0.10410000000000001        -0.44594461043081512     
  0.10440000000000001        -0.28142462791194656     
  0.10470000000000000        -0.14522075549965768     
  0.10500000000000000         -4.1648305901326163E-002
  0.10530000000000000          2.8654597850143598E-002
  0.10560000000000000          6.7273115615935714E-002
  0.10590000000000001          7.8743716783444107E-002
  0.10620000000000000          6.8361749874533403E-002
  0.10650000000000001          4.4718982548747191E-002
  0.10679999999999999          1.5478041818804755E-002
  0.10710000000000000         -1.0444405142291790E-002
  0.10740000000000001         -2.4738283072082652E-002
  0.10770000000000000         -2.1731478320620515E-002
  0.10800000000000000          4.2727259513769822E-003
  0.10830000000000001          5.5269647439235653E-002
  0.10859999999999999         0.13002182942704832     
  0.10890000000000000         0.22678253433917561     
  0.10920000000000001         0.33845399951395339     
  0.10950000000000001         0.45779532546132290     
  0.10979999999999999         0.57575988506182063     
  0.11009999999999999         0.68308556528341324     
  0.11040000000000001         0.76972610064094171     
  0.11070000000000001         0.82954236329067466     
  0.11100000000000000         0.85551422370927466     
  0.11130000000000000         0.84521089270788463     
  0.11160000000000002         0.79838618537878303     
  0.11190000000000001         0.71730954332086516     
  0.11220000000000001         0.60760625028716775     
  0.11250000000000000         0.47560568350662824     
  0.11280000000000000         0.33063550049134299     
  0.11309999999999999         0.18122382329317172     
  0.11340000000000001          3.6111746170714679E-002
  0.11369999999999998         -9.5966288154265292E-002
  0.11400000000000000        -0.20880593601203759     
  0.11430000000000000        -0.29692257246223669     
  0.11460000000000002        -0.35741681012872256     
  0.11489999999999999        -0.38929731057740269     
  0.11520000000000001        -0.39360861209619924     
  0.11550000000000001        -0.37237965823560415     
  0.11580000000000000        -0.33097383918114659     
  0.11609999999999999        -0.27350627234232655     
  0.11640000000000002        -0.20645401000913280     
  0.11670000000000001        -0.13652648451906579     
  0.11700000000000001         -6.9100614200721583E-002
  0.11730000000000000         -1.0499569616875579E-002
  0.11760000000000000          3.4828488701595842E-002
  0.11789999999999999          6.3612442706252992E-002
  0.11820000000000001          7.3672072666497307E-002
  0.11850000000000001          6.4534363120834687E-002
  0.11880000000000000          3.8331161854754194E-002
  0.11910000000000000         -2.0826756061753048E-003
  0.11940000000000002         -5.3138442424090167E-002
  0.11970000000000001        -0.10809372189217245     
  0.12000000000000001        -0.16235882014933223     
  0.12030000000000000        -0.20976085629779684     
  0.12060000000000000        -0.24507580334567905     
  0.12089999999999999        -0.26415282050022937     
  0.12119999999999999        -0.26465760977656527     
  0.12150000000000001        -0.24482582543283421     
  0.12180000000000001        -0.20504963320596742     
  0.12210000000000000        -0.14783268079561862     
  0.12239999999999999         -7.6016700811685850E-002
  0.12270000000000002          6.1817334151020274E-003
  0.12300000000000001          9.3531484762144831E-002
  0.12330000000000001         0.18094640827261921     
  0.12360000000000000         0.26311515416151149     
  0.12390000000000000         0.33502553436381804     
  0.12419999999999999         0.39269485945364285     
  0.12450000000000001         0.43274240872893566     
  0.12480000000000001         0.45225347810158251     
  0.12509999999999999         0.45104908615016059     
  0.12540000000000001         0.42791739610356594     
  0.12570000000000003         0.38451925883736487     
  0.12600000000000000         0.32362065981720844     
  0.12630000000000002         0.24846196779652641     
  0.12659999999999999         0.16342487319227345     
  0.12690000000000001          7.3740398591131101E-002
  0.12719999999999998         -1.4944729981208330E-002
  0.12750000000000000         -9.7752844511409601E-002
  0.12780000000000002        -0.16947897856714622     
  0.12809999999999999        -0.22560032180537432     
  0.12840000000000001        -0.26430376826987112     
  0.12869999999999998        -0.28314140527691717     
  0.12900000000000000        -0.28181303208664121     
  0.12930000000000003        -0.26199787711216338     
  0.12959999999999999        -0.22605493538226609     
  0.12990000000000002        -0.17686715147414650     
  0.13019999999999998        -0.11922584732598779     
  0.13050000000000000         -5.6878319706557129E-002
  0.13080000000000003          5.2263119053320185E-003
  0.13109999999999999          6.2645342687309410E-002
  0.13140000000000002         0.11160768182469727     
  0.13169999999999998         0.14882893928795612     
  0.13200000000000001         0.17166060461723981     
  0.13229999999999997         0.17849304750660752     
  0.13260000000000000         0.16843719716336861     
  0.13290000000000002         0.14226314029193898     
  0.13319999999999999         0.10071689691820786     
  0.13350000000000001          4.6791381752434427E-002
  0.13380000000000003         -1.6711236730794145E-002
  0.13410000000000000         -8.5530401606708939E-002
  0.13440000000000002        -0.15558330035636089     
  0.13469999999999999        -0.22200217441472042     
  0.13500000000000001        -0.28117863059719839     
  0.13529999999999998        -0.32884248194279053     
  0.13560000000000000        -0.36236748135234614     
  0.13590000000000002        -0.38033315700816522     
  0.13619999999999999        -0.38201411077110697     
  0.13650000000000001        -0.36796823840221132     
  0.13680000000000003        -0.34022951516580269     
  0.13710000000000000        -0.30047411436715910     
  0.13740000000000002        -0.25221835597662678     
  0.13769999999999999        -0.19824510228844155     
  0.13800000000000001        -0.14181273718815146     
  0.13829999999999998         -8.5134490567416427E-002
  0.13860000000000000         -3.0938275627749090E-002
  0.13890000000000002          1.9378742548211182E-002
  0.13919999999999999          6.4179732646727355E-002
  0.13950000000000001         0.10280536745634733     
  0.13979999999999998         0.13475813238593828     
  0.14010000000000000         0.15950608898793409     
  0.14040000000000002         0.17732523767728184     
  0.14069999999999999         0.18785786847026467     
  0.14100000000000001         0.19215582961387248     
  0.14130000000000004         0.19027628901984905     
  0.14160000000000000         0.18318650088800531     
  0.14189999999999997         0.17210296341856146     
  0.14219999999999999         0.15795855442884049     
  0.14250000000000002         0.14254266909580016     
  0.14279999999999998         0.12700614077274616     
  0.14310000000000000         0.11268132121590815     
  0.14339999999999997         0.10054159356621313     
  0.14369999999999999          9.1235608556719014E-002
  0.14400000000000002          8.5061929230874578E-002
  0.14429999999999998          8.2101851037780088E-002
  0.14460000000000001          8.1771804765763470E-002
  0.14490000000000003          8.3213106764373129E-002
  0.14520000000000000          8.6257813909558390E-002
  0.14550000000000002          8.8631492556802152E-002
  0.14579999999999999          9.0663281646021138E-002
  0.14610000000000001          9.1150732261004716E-002
  0.14640000000000003          8.8827956766504276E-002
  0.14670000000000000          8.3940472516045139E-002
  0.14699999999999996          7.5679615282390006E-002
  0.14729999999999999          6.3781629717915039E-002
  0.14760000000000001          4.8123201469577305E-002
  0.14789999999999998          3.0003062056825999E-002
  0.14820000000000000          8.3233049774625763E-003