  -1.4999999999999999E-002     0.0000000000000000     
  -1.4700000000000000E-002     0.0000000000000000     
  -1.4400000000000000E-002    -2.0101266253576147E-032
  -1.4100000000000000E-002    -3.6463354684546192E-028
  -1.3800000000000000E-002    -1.4490415325231974E-025
  -1.3500000000000000E-002    -3.0982207509556728E-024
  -1.3200000000000000E-002     1.2690955541914457E-022
  -1.2899999999999998E-002     6.8308990026884084E-022
  -1.2600000000000000E-002    -1.4247807970043328E-020
  -1.2299999999999998E-002    -7.3645217176172023E-021
  -1.2000000000000000E-002     4.3073946042033911E-019
  -1.1699999999999999E-002    -3.7038355963281879E-019
  -1.1399999999999999E-002    -5.1565303889957282E-018
  -1.1099999999999999E-002     5.7404932302833325E-018
  -1.0799999999999999E-002     3.3923679368286838E-017
  -1.0499999999999999E-002    -2.0193890584053722E-017
  -1.0199999999999999E-002    -1.7756064734378540E-016
  -9.8999999999999991E-003    -6.0900830030808087E-017
  -9.5999999999999992E-003     7.9718444902378173E-016
  -9.2999999999999992E-003     7.3314459572815804E-016
  -8.9999999999999993E-003    -2.2081506533850574E-015
  -8.6999999999999994E-003    -3.6468200386664515E-015
  -8.3999999999999995E-003     1.6895739611907804E-015
  -8.0999999999999996E-003     1.1829393122620251E-014
  -7.7999999999999988E-003     1.1878542214197530E-014
  -7.4999999999999997E-003    -1.5395777096699490E-014
  -7.1999999999999998E-003    -6.1873146959743192E-014
  -6.8999999999999981E-003    -4.7632739132736564E-014
  -6.5999999999999982E-003     1.5755007677522457E-013
  -6.3000000000000000E-003     2.7425051420754520E-013
  -6.0000000000000001E-003    -1.2601795386677404E-013
  -5.6999999999999985E-003    -6.1483780158619958E-013
  -5.3999999999999986E-003    -5.0832528047780874E-013
  -5.1000000000000004E-003     5.0792631819222595E-013
  -4.7999999999999987E-003     1.5639175005117540E-012
  -4.5000000000000005E-003     1.5746639090327833E-012
  -4.1999999999999989E-003    -2.0608342646158394E-013
  -3.8999999999999990E-003    -6.9926755615797643E-012
  -3.5999999999999990E-003    -7.7461176909949019E-012
  -3.2999999999999991E-003     1.1388236100533556E-011
  -2.9999999999999992E-003     1.7570564793743161E-011
  -2.6999999999999993E-003    -2.3857047350370149E-013
  -2.3999999999999994E-003    -3.2718656288606641E-012
  -2.0999999999999977E-003    -3.7122464056214177E-011
  -1.7999999999999995E-003    -6.2049515496037381E-011
  -1.4999999999999979E-003     7.5286185778262412E-011
  -1.1999999999999997E-003     1.2110486637335064E-010
  -8.9999999999999976E-004    -5.6883078384914534E-011
  -5.9999999999999810E-004     3.1766227553532370E-011
  -2.9999999999999992E-004    -1.6019834167689008E-011
   0.0000000000000000         -5.5831669818159270E-010
   3.0000000000000165E-004     2.0526801501964720E-011
   5.9999999999999984E-004     1.1021682315119293E-009
   9.0000000000000149E-004     1.0381486337777054E-010
   1.2000000000000031E-003    -7.4451960600220461E-010
   1.5000000000000013E-003    -1.6427880543217884E-010
   1.8000000000000030E-003    -7.0667706180234675E-010
   2.1000000000000012E-003     2.8187453506347538E-010
   2.3999999999999994E-003     1.0922509572180580E-009
   2.7000000000000010E-003    -1.9154080807488617E-009
   2.9999999999999992E-003     2.7971572262095906E-009
   3.3000000000000008E-003     6.8564948973792131E-009
   3.6000000000000025E-003    -1.0436312935917122E-008
   3.9000000000000007E-003    -1.3479865696122294E-008
   4.2000000000000023E-003     1.5700351561692979E-008
   4.5000000000000005E-003     1.6556869946244959E-008
   4.7999999999999987E-003    -1.3164913025927412E-008
   5.1000000000000004E-003    -1.5935360585764654E-008
   5.4000000000000020E-003     4.4760785134107485E-009
   5.7000000000000037E-003     2.1531724597825609E-008
   5.9999999999999984E-003     5.9445692456347169E-009
   6.3000000000000000E-003    -3.6558837303964107E-008
   6.6000000000000017E-003    -1.6819326660522385E-008
   6.9000000000000034E-003     3.4913589833946416E-008
   7.2000000000000015E-003     1.5269867531175745E-008
   7.5000000000000032E-003     1.3442782939270177E-008
   7.8000000000000014E-003     5.1640421271620513E-008
   8.0999999999999996E-003    -3.5598077343026943E-008
   8.4000000000000012E-003    -2.2163084100832044E-007
   8.7000000000000029E-003    -1.8839688310255503E-007
   9.0000000000000011E-003     5.7427286445906643E-007
   9.2999999999999992E-003     2.2647266021993664E-006
   9.6000000000000009E-003     4.1366394699440676E-006
   9.8999999999999991E-003     5.3990454317517752E-006
   1.0200000000000001E-002     6.7474032815883054E-006
   1.0500000000000002E-002     1.0392458377334863E-005
   1.0800000000000004E-002     1.8674056539411263E-005
   1.1099999999999999E-002     3.2351383951173714E-005
   1.1400000000000000E-002     5.1291310617943429E-005
   1.1700000000000002E-002     7.7459274912000260E-005
   1.2000000000000004E-002     1.1300015584990160E-004
   1.2300000000000002E-002     1.5295363232378041E-004
   1.2600000000000000E-002     1.8512444790615552E-004
   1.2900000000000002E-002     2.0025018515808127E-004
   1.3200000000000000E-002     1.9647451193635353E-004
   1.3500000000000002E-002     1.6885159806998324E-004
   1.3800000000000003E-002     9.7355786602202786E-005
   1.4100000000000001E-002    -5.6182850968159841E-005
   1.4400000000000000E-002    -3.5676631040303943E-004
   1.4700000000000001E-002    -9.2107362661545398E-004
   1.4999999999999999E-002    -1.9385128158503789E-003
   1.5300000000000001E-002    -3.6771040059915367E-003
   1.5600000000000003E-002    -6.4976323458443347E-003
   1.5899999999999997E-002    -1.0885270568358005E-002
   1.6199999999999999E-002    -1.7488606955871993E-002
   1.6500000000000001E-002    -2.7175138937352912E-002
   1.6800000000000002E-002    -4.1088015614425287E-002
   1.7100000000000004E-002    -6.0666370498374894E-002
   1.7400000000000006E-002    -8.7639227562799904E-002
   1.7700000000000000E-002   -0.12401935319564644     
   1.8000000000000002E-002   -0.17209244280091712     
   1.8300000000000004E-002   -0.23436902833771744     
   1.8600000000000005E-002   -0.31346566594346570     
   1.8900000000000000E-002   -0.41191633569265540     
   1.9200000000000002E-002   -0.53191309423695454     
   1.9500000000000003E-002   -0.67495772446846569     
   1.9799999999999998E-002   -0.84149615863880833     
   2.0100000000000000E-002    -1.0305329388501154     
   2.0400000000000001E-002    -1.2392473252354197     
   2.0700000000000003E-002    -1.4625400119211531     
   2.0999999999999998E-002    -1.6927619663280076     
   2.1299999999999999E-002    -1.9195902860822294     
   2.1600000000000001E-002    -2.1300916133010253     
   2.1900000000000003E-002    -2.3091523673140970     
   2.2200000000000004E-002    -2.4400194407928071     
   2.2500000000000006E-002    -2.5053411984459393     
   2.2800000000000001E-002    -2.4884329307756419     
   2.3100000000000002E-002    -2.3748149431797096     
   2.3400000000000004E-002    -2.1537121137309794     
   2.3699999999999999E-002    -1.8196600595090566     
   2.4000000000000000E-002    -1.3738239871577429     
   2.4300000000000002E-002   -0.82492189916178082     
   2.4599999999999997E-002   -0.18957387067938497     
   2.4900000000000005E-002    0.50831432478653960     
   2.5200000000000000E-002     1.2383027197701335     
   2.5499999999999995E-002     1.9659530483046752     
   2.5800000000000003E-002     2.6551519995857276     
   2.6099999999999998E-002     3.2708006611494636     
   2.6400000000000007E-002     3.7827682714805562     
   2.6700000000000002E-002     4.1681148855075865     
   2.6999999999999996E-002     4.4136157376836103     
   2.7300000000000005E-002     4.5178074131740917     
   2.7600000000000000E-002     4.4905973390605327     
   2.7900000000000008E-002     4.3527901715220398     
   2.8200000000000003E-002     4.1346599643749435     
   2.8499999999999998E-002     3.8712952891139274     
   2.8800000000000006E-002     3.6005797252225520     
   2.9100000000000001E-002     3.3583959762930355     
   2.9400000000000003E-002     3.1741576488258918     
   2.9700000000000004E-002     3.0687200387149507     
   3.0000000000000006E-002     3.0508226311110018     
   3.0300000000000001E-002     3.1166963355666288     
   3.0600000000000002E-002     3.2501482286385031     
   3.0900000000000004E-002     3.4242372699213028     
   3.1199999999999999E-002     3.6037039831731486     
   3.1500000000000007E-002     3.7487439824975421     
   3.1800000000000002E-002     3.8184639822966853     
   3.2099999999999997E-002     3.7754110190350838     
   3.2400000000000005E-002     3.5884931421911848     
   3.2700000000000000E-002     3.2358073863310617     
   3.3000000000000002E-002     2.7070502432146784     
   3.3300000000000003E-002     2.0036275544095870     
   3.3599999999999998E-002     1.1388171029738965     
   3.3900000000000000E-002    0.13636413776224882     
   3.4200000000000001E-002   -0.97101143986861227     
   3.4500000000000003E-002    -2.1450465817971471     
   3.4799999999999998E-002    -3.3438111641185859     
   3.5099999999999999E-002    -4.5242569599184765     
   3.5400000000000001E-002    -5.6461584858343832     
   3.5699999999999996E-002    -6.6717525139804144     
   3.6000000000000004E-002    -7.5687471368842960     
   3.6299999999999999E-002    -8.3096311671153646     
   3.6600000000000008E-002    -8.8711082589480341     
   3.6900000000000002E-002    -9.2343616974312557     
   3.7199999999999997E-002    -9.3816406565247235     
   3.7500000000000006E-002    -9.2965571349673866     
   3.7800000000000000E-002    -8.9619569345824832     
   3.8100000000000009E-002    -8.3601128258012984     
   3.8400000000000004E-002    -7.4729872653032814     
   3.8699999999999998E-002    -6.2858647513519825     
   3.9000000000000007E-002    -4.7890679517248103     
   3.9300000000000002E-002    -2.9846530465985102     
   3.9600000000000003E-002   -0.89135304550334649     
   3.9900000000000005E-002     1.4501557053416614     
   4.0200000000000000E-002     3.9708868343112851     
   4.0500000000000001E-002     6.5734814804724824     
   4.0800000000000003E-002     9.1298110991726098     
   4.1100000000000005E-002     11.486030884139740     
   4.1399999999999999E-002     13.471495811354826     
   4.1700000000000008E-002     14.908147926312820     
   4.2000000000000003E-002     15.627422792632412     
   4.2299999999999997E-002     15.486778532281019     
   4.2600000000000006E-002     14.386016968547267     
   4.2900000000000001E-002     12.281824099818513     
   4.3200000000000002E-002     9.2013226918318800     
   4.3500000000000004E-002     5.2448715672103603     
   4.3799999999999999E-002    0.58730484705314190     
   4.4100000000000000E-002    -4.5313777832040119     
   4.4400000000000002E-002    -9.8218295362203616     
   4.4700000000000004E-002    -14.965256489157511     
   4.4999999999999998E-002    -19.639433545875317     
   4.5300000000000000E-002    -23.542516484125134     
   4.5600000000000002E-002    -26.420716048198184     
   4.5899999999999996E-002    -28.087447024860118     
   4.6200000000000005E-002    -28.437711575996385     
   4.6500000000000000E-002    -27.455494528703930     
   4.6799999999999994E-002    -25.213730578695632     
   4.7100000000000003E-002    -21.863015361867383     
   4.7399999999999998E-002    -17.617922441460074     
   4.7700000000000006E-002    -12.736101633267703     
   4.8000000000000001E-002    -7.4942139049315184     
   4.8300000000000010E-002    -2.1674617867055552     
   4.8600000000000004E-002     2.9933876618977138     
   4.8899999999999999E-002     7.7754513084160752     
   4.9200000000000008E-002     12.016445377525033     
   4.9500000000000002E-002     15.608126725949305     
   4.9800000000000011E-002     18.494603070708852     
   5.0100000000000006E-002     20.668300834580322     
   5.0400000000000000E-002     22.157045621468733     
   5.0700000000000009E-002     23.017367654689785     
   5.1000000000000004E-002     23.316786996158264     
   5.1299999999999998E-002     23.129135321907889     
   5.1600000000000007E-002     22.523102362260705     
   5.1900000000000002E-002     21.556313271700191     
   5.2200000000000010E-002     20.275965826726079     
   5.2500000000000005E-002     18.716407325852401     
   5.2800000000000000E-002     16.904716089795240     
   5.3099999999999994E-002     14.861349367746843     
   5.3400000000000003E-002     12.608934473695188     
   5.3699999999999998E-002     10.173650934318768     
   5.4000000000000006E-002     7.5906990488818522     
   5.4300000000000001E-002     4.9037747910616494     
   5.4599999999999996E-002     2.1696498947521743     
   5.4900000000000004E-002   -0.54736256331758493     
   5.5199999999999999E-002    -3.1754264991035801     
   5.5499999999999994E-002    -5.6393814161667990     
   5.5800000000000002E-002    -7.8662515579755308     
   5.6099999999999997E-002    -9.7881599811867197     
   5.6400000000000006E-002    -11.349039235803927     
   5.6700000000000000E-002    -12.507301709447862     
   5.6999999999999995E-002    -13.237760793196687     
   5.7300000000000004E-002    -13.538469616454899     
   5.7599999999999998E-002    -13.424057121411188     
   5.7900000000000007E-002    -12.932501426781391     
   5.8200000000000002E-002    -12.116698843639355     
   5.8499999999999996E-002    -11.045446367439087     
   5.8800000000000005E-002    -9.7951106302135340     
   5.9100000000000000E-002    -8.4489101519216980     
   5.9400000000000008E-002    -7.0857587775179471     
   5.9700000000000003E-002    -5.7798798848785777     
   6.0000000000000012E-002    -4.5933855222059954     
   6.0300000000000006E-002    -3.5715402468501516     
   6.0600000000000001E-002    -2.7437670368123501     
   6.0900000000000010E-002    -2.1196293828084691     
   6.1200000000000004E-002    -1.6899545668990652     
   6.1500000000000013E-002    -1.4305165095526617     
   6.1800000000000008E-002    -1.3047489336100049     
   6.2100000000000002E-002    -1.2654501091568018     
   6.2399999999999997E-002    -1.2632590181430032     
   6.2700000000000006E-002    -1.2502373250705232     
   6.3000000000000000E-002    -1.1789478336678052     
   6.3300000000000009E-002    -1.0174402508016389     
   6.3600000000000004E-002   -0.73849837182084521     
   6.3899999999999998E-002   -0.33007313730430599     
   6.4199999999999993E-002    0.20532682599656543     
   6.4500000000000002E-002    0.85503803818787194     
   6.4800000000000010E-002     1.5941442400600321     
   6.5100000000000005E-002     2.3874817474446202     
   6.5400000000000000E-002     3.1950411643138605     
   6.5700000000000008E-002     3.9734882046512361     
   6.5999999999999989E-002     4.6770991957344084     
   6.6299999999999998E-002     5.2658328179343190     
   6.6600000000000006E-002     5.7033644498995519     
   6.6900000000000001E-002     5.9624815397502262     
   6.7199999999999996E-002     6.0265201335927205     
   6.7500000000000004E-002     5.8900432167503185     
   6.7800000000000013E-002     5.5603421065096059     
   6.8099999999999994E-002     5.0544494856391360     
   6.8400000000000002E-002     4.4031046547527666     
   6.8700000000000011E-002     3.6417864423810151     
   6.8999999999999992E-002     2.8148610765547284     
   6.9300000000000000E-002     1.9683632566254761     
   6.9600000000000009E-002     1.1469069197833042     
   6.9900000000000004E-002    0.39411057982614950     
   7.0199999999999999E-002   -0.25537727386504794     
   7.0500000000000007E-002   -0.77355262678199965     
   7.0800000000000016E-002    -1.1436256709574453     
   7.1099999999999997E-002    -1.3594194456403388     
   7.1400000000000005E-002    -1.4265016044921781     
   7.1700000000000000E-002    -1.3589632433572012     
   7.1999999999999995E-002    -1.1817752864035205     
   7.2300000000000003E-002   -0.92471539806442382     
   7.2600000000000012E-002   -0.62139497703452373     
   7.2900000000000006E-002   -0.30911795580241436     
   7.3200000000000001E-002    -2.0203428454907080E-002
   7.3499999999999996E-002    0.21367119349080821     
   7.3800000000000004E-002    0.36890575698320149     
   7.4099999999999999E-002    0.42934469813194787     
   7.4400000000000008E-002    0.38686640383617371     
   7.4700000000000003E-002    0.24382066943187136     
   7.5000000000000011E-002     1.0161960179743537E-002
   7.5299999999999992E-002   -0.29547185469768411     
   7.5600000000000001E-002   -0.64920762761268347     
   7.5900000000000009E-002    -1.0217227355390130     
   7.6200000000000004E-002    -1.3846407224072268     
   7.6499999999999999E-002    -1.7080843456745922     
   7.6800000000000007E-002    -1.9675292363129646     
   7.7099999999999988E-002    -2.1446527773097959     
   7.7399999999999997E-002    -2.2261172505975444     
   7.7700000000000005E-002    -2.2101580947001120     
   7.8000000000000014E-002    -2.1009310916295938     
   7.8299999999999995E-002    -1.9115685862477667     
   7.8600000000000003E-002    -1.6608987586978068     
   7.8900000000000012E-002    -1.3731459761773834     
   7.9199999999999993E-002    -1.0723824301141485     
   7.9500000000000001E-002   -0.78350276195471746     
   7.9800000000000010E-002   -0.52803181163721769     
   8.0100000000000018E-002   -0.32048208807571521     
   8.0399999999999999E-002   -0.17152499990599579     
   8.0700000000000008E-002    -8.1809473196386276E-002
   8.1000000000000003E-002    -4.6871205127434618E-002
   8.1299999999999997E-002    -5.5031276176479432E-002
   8.1600000000000006E-002    -9.1132123088997305E-002
   8.1900000000000014E-002   -0.13731921443792244     
   8.2199999999999995E-002   -0.17612477063121285     
   8.2500000000000004E-002   -0.19258354114219778     
   8.2799999999999999E-002   -0.17472482165357775     
   8.3100000000000007E-002   -0.11800805853432628     
   8.3400000000000002E-002    -2.1110975018500608E-002
   8.3700000000000011E-002    0.11000712820174115     
   8.4000000000000005E-002    0.26526643605529365     
   8.4300000000000000E-002    0.43224528373310189     
   8.4599999999999995E-002    0.59644540170031524     
   8.4900000000000003E-002    0.74402640165240841     
   8.5199999999999998E-002    0.86314457047379234     
   8.5500000000000007E-002    0.94615105770958152     
   8.5800000000000001E-002    0.98758265203371232     
   8.6100000000000010E-002    0.98804076830498277     
   8.6399999999999991E-002    0.95056936343462439     
   8.6699999999999999E-002    0.88110061923473704     
   8.7000000000000008E-002    0.78796877712622582     
   8.7300000000000003E-002    0.67876514679172195     
   8.7599999999999997E-002    0.56192808567573427     
   8.7900000000000006E-002    0.44334362321149345     
   8.8200000000000014E-002    0.32832469141765641     
   8.8499999999999995E-002    0.21941306064621507     
   8.8800000000000004E-002    0.11846915887175372     
   8.9100000000000013E-002     2.6217488652255011E-002
   8.9399999999999993E-002    -5.6680987291026302E-002
   8.9700000000000002E-002   -0.12919980168324796     
   9.0000000000000011E-002   -0.19041013890471289     
   9.0299999999999991E-002   -0.23690943494554079     
   9.0600000000000000E-002   -0.26635765578859844     
   9.0900000000000009E-002   -0.27470658744573850     
   9.1200000000000017E-002   -0.25918088133486156     
   9.1499999999999998E-002   -0.21739263002455250     
   9.1800000000000007E-002   -0.14916801269619109     
   9.2100000000000001E-002    -5.6102370462432161E-002
   9.2399999999999996E-002     5.8566169251080026E-002
   9.2700000000000005E-002    0.18798541590700438     
   9.3000000000000013E-002    0.32447189161977136     
   9.3300000000000008E-002    0.45947668918794748     
   9.3600000000000003E-002    0.58219065849139862     
   9.3899999999999997E-002    0.68429391005747886     
   9.4200000000000006E-002    0.75724404199694695     
   9.4500000000000001E-002    0.79413424535185129     
   9.4800000000000009E-002    0.79104041890039445     
   9.5100000000000004E-002    0.74657466776306036     
   9.5399999999999999E-002    0.66077684928569691     
   9.5699999999999993E-002    0.53871815256570743     
   9.6000000000000002E-002    0.38532761520299630     
   9.6300000000000011E-002    0.20872643528763896     
   9.6600000000000005E-002     1.8907486506467203E-002
   9.6900000000000000E-002   -0.17455194784864897     
   9.7200000000000009E-002   -0.36046954802216946     
   9.7499999999999989E-002   -0.52944503073756777     
   9.7799999999999998E-002   -0.67230301375775470     
   9.8100000000000007E-002   -0.78165587199159892     
   9.8400000000000015E-002   -0.85334131322202644     
   9.8699999999999996E-002   -0.88414284670475063     
   9.9000000000000005E-002   -0.87516537292671437     
   9.9300000000000013E-002   -0.82984911309960585     
   9.9599999999999994E-002   -0.75316474963269475     
   9.9900000000000003E-002   -0.65318824713301193     
  0.10020000000000001        -0.53922542013322805     
  0.10049999999999999        -0.42021280990506260     
  0.10080000000000000        -0.30606440499245136     
  0.10110000000000001        -0.20507631309483892     
  0.10140000000000000        -0.12323934381245738     
  0.10170000000000000         -6.6194894826490533E-002
  0.10200000000000001         -3.5236002010720593E-002
  0.10230000000000002         -3.0203345706318080E-002
  0.10260000000000000         -4.8687937172633221E-002
  0.10290000000000001         -8.5794989566847807E-002
  0.10320000000000000        -0.13593349835708568     
  0.10350000000000001        -0.19197069980182682     
  0.10380000000000000        -0.24716257562027111     
  0.10410000000000001        -0.29440277951950700     
  0.10440000000000001        -0.32787317151804163     
  0.10470000000000000        -0.34256606118868371     
  0.10500000000000000        -0.33523705110401208     
  0.10530000000000000        -0.30365898510449191     
  0.10560000000000000        -0.24763059223448419     
  0.10590000000000001        -0.16902078918397484     
  0.10620000000000000         -7.0147312591245778E-002
  0.10650000000000001          4.3640031059788274E-002
  0.10679999999999999         0.16811540808344327     
  0.10710000000000000         0.29584145271780460     
  0.10740000000000001         0.41978722663453583     
  0.10770000000000000         0.53409610411513686     
  0.10800000000000000         0.63077233554559387     
  0.10830000000000001         0.70445597021059292     
  0.10859999999999999         0.75096235057480454     
  0.10890000000000000         0.76596349393626517     
  0.10920000000000001         0.74860517404433469     
  0.10950000000000001         0.70009445420801097     
  0.10979999999999999         0.62149580659277659     
  0.11009999999999999         0.51767249278259231     
  0.11040000000000001         0.39449413432720187     
  0.11070000000000001         0.25732361775149060     
  0.11100000000000000         0.11513155895964108     
  0.11130000000000000         -2.6338402808136461E-002
  0.11160000000000002        -0.15936625132038273     
  0.11190000000000001        -0.27739715139025090     
  0.11220000000000001        -0.37568963917206710     
  0.11250000000000000        -0.44949210515667787     
  0.11280000000000000        -0.49652522258728282     
  0.11309999999999999        -0.51507681470595434     
  0.11340000000000001        -0.50604544784667693     
  0.11369999999999998        -0.47026056230487912     
  0.11400000000000000        -0.41140195407804792     
  0.11430000000000000        -0.33341462868546495     
  0.11460000000000002        -0.24238064688391625     
  0.11489999999999999        -0.14353920218073365     
  0.11520000000000001         -4.4492289035177060E-002
  0.11550000000000001          4.7881270389678918E-002
  0.11580000000000000         0.12889728744044057     
  0.11609999999999999         0.19074775360076357     
  0.11640000000000002         0.23123181168350943     
  0.11670000000000001         0.24787295281777683     
  0.11700000000000001         0.23892590095240451     
  0.11730000000000000         0.20758571907769641     
  0.11760000000000000         0.15722811975257073     
  0.11789999999999999          9.1929255619654704E-002
  0.11820000000000001          1.8890135600872441E-002
  0.11850000000000001         -5.5268254851100047E-002
  0.11880000000000000        -0.12509451362057994     
  0.11910000000000000        -0.18300630818997218     
  0.11940000000000002        -0.22513903355692555     
  0.11970000000000001        -0.24846875283390529     
  0.12000000000000001        -0.25017303442878958     
  0.12030000000000000        -0.23131621731057589     
  0.12060000000000000        -0.19266461873413596     
  0.12089999999999999        -0.13743601312749340     
  0.12119999999999999         -6.8597684769135386E-002
  0.12150000000000001          7.8960536322212095E-003
  0.12180000000000001          8.8770669304006192E-002
  0.12210000000000000         0.16836523887731092     
  0.12239999999999999         0.24143008501784802     
  0.12270000000000002         0.30499361400056668     
  0.12300000000000001         0.35419499685807310     
  0.12330000000000001         0.38693830681680591     
  0.12360000000000000         0.40205383965985053     
  0.12390000000000000         0.39827003909952291     
  0.12419999999999999         0.37663889301498471     
  0.12450000000000001         0.33954262085425546     
  0.12480000000000001         0.28939858413807390     
  0.12509999999999999         0.23010479371595755     
  0.12540000000000001         0.16687656493517283     
  0.12570000000000003         0.10190035965373570     
  0.12600000000000000          4.1617923708357610E-002
  0.12630000000000002         -1.1640386718884534E-002
  0.12659999999999999         -5.4924426645740099E-002
  0.12690000000000001         -8.6594817386948006E-002
  0.12719999999999998        -0.10523962088336200     
  0.12750000000000000        -0.11207869847401963     
  0.12780000000000002        -0.10775692394847874     
  0.12809999999999999         -9.3350459779915046E-002
  0.12840000000000001         -7.2573369192329165E-002
  0.12869999999999998         -4.6467519422309304E-002
  0.12900000000000000         -1.7958099299791107E-002
  0.12930000000000003          9.9945298006084045E-003
  0.12959999999999999          3.6127055389755559E-002
  0.12990000000000002          5.7616330009125333E-002
  0.13019999999999998          7.2955160614730008E-002
  0.13050000000000000          8.0860776568223436E-002
  0.13080000000000003          8.0796671080933719E-002
  0.13109999999999999          7.0999198977903216E-002
  0.13140000000000002          5.3463845486874897E-002
  0.13169999999999998          2.7615461718657308E-002
  0.13200000000000001         -4.9692369002886103E-003
  0.13229999999999997         -4.1612991434653725E-002
  0.13260000000000000         -8.0723971494750676E-002
  0.13290000000000002        -0.11966913467557666     
  0.13319999999999999        -0.15556710235121649     
  0.13350000000000001        -0.18579790691806258     
  0.13380000000000003        -0.20944776893503775     
  0.13410000000000000        -0.22379651038631052     
  0.13440000000000002        -0.22918751201597737     
  0.13469999999999999        -0.22597482633740018     
  0.13500000000000001        -0.21389404252878585     
  0.13529999999999998        -0.19570371904477046     
  0.13560000000000000        -0.17248305109814568     
  0.13590000000000002        -0.14620490423519100     
  0.13619999999999999        -0.11937128207222936     
  0.13650000000000001         -9.4470045470028130E-002
  0.13680000000000003         -7.1866371380666635E-002
  0.13710000000000000         -5.4599199690642281E-002
  0.13740000000000002         -4.3101637553318674E-002
  0.13769999999999999         -3.6855644749460778E-002
  0.13800000000000001         -3.7911490335581041E-002
  0.13829999999999998         -4.4366666968257647E-002
  0.13860000000000000         -5.5320152263603664E-002
  0.13890000000000002         -7.0050186064109843E-002
  0.13919999999999999         -8.6104641160812512E-002
  0.13950000000000001        -0.10076700626136786     
  0.13979999999999998        -0.11282419613310884     
  0.14010000000000000        -0.11914205289507984     
  0.14040000000000002        -0.11759856120769299     
  0.14069999999999999        -0.10789474581460301     
  0.14100000000000001         -8.7883469608393924E-002
  0.14130000000000004         -5.8600244550661262E-002
  0.14160000000000000         -2.1352945667074928E-002
  0.14189999999999997          2.2557990148492309E-002
  0.14219999999999999          7.0078566524738942E-002
  0.14250000000000002         0.11787998048726123     
  0.14279999999999998         0.16319069433109554     
  0.14310000000000000         0.20323667492531750     
  0.14339999999999997         0.23398669525681187     
  0.14369999999999999         0.25527367931692135     
  0.14400000000000002         0.26521783396449028     
  0.14429999999999998         0.26328483772991773     
  0.14460000000000001         0.25100864032934278     
  0.14490000000000003         0.22972730968295785     
  0.14520000000000000         0.20014212532913911     
  0.14550000000000002         0.16542300969107332     
  0.14579999999999999         0.12829885784384151     
  0.14610000000000001          8.9168310555320596E-002
  0.14640000000000003          5.1770158535214758E-002
  0.14670000000000000          1.7076679105503062E-002
  0.14699999999999996         -1.4210001028992456E-002
  0.14729999999999999         -4.0211859507790965E-002
  0.14760000000000001         -6.0275866252677113E-002
  0.14789999999999998         -7.4801929148568952E-002
  0.14820000000000000         -8.2676202639659579E-002