  -1.4999999999999999E-002     0.0000000000000000     
  -1.4700000000000000E-002     0.0000000000000000     
  -1.4400000000000000E-002     0.0000000000000000     
  -1.4100000000000000E-002     0.0000000000000000     
  -1.3800000000000000E-002     0.0000000000000000     
  -1.3500000000000000E-002     0.0000000000000000     
  -1.3200000000000000E-002     0.0000000000000000     
  -1.2899999999999998E-002     0.0000000000000000     
  -1.2600000000000000E-002     0.0000000000000000     
  -1.2299999999999998E-002     0.0000000000000000     
  -1.2000000000000000E-002     0.0000000000000000     
  -1.1699999999999999E-002     0.0000000000000000     
  -1.1399999999999999E-002     0.0000000000000000     
  -1.1099999999999999E-002     0.0000000000000000     
  -1.0799999999999999E-002     0.0000000000000000     
  -1.0499999999999999E-002     0.0000000000000000     
  -1.0199999999999999E-002     1.9964269985014346E-036
  -9.8999999999999991E-003     7.4252963351529659E-035
  -9.5999999999999992E-003    -2.1421975316268094E-034
  -9.2999999999999992E-003    -4.8954820609149689E-034
  -8.9999999999999993E-003     1.3148527236257415E-032
  -8.6999999999999994E-003    -2.7559933433084833E-032
  -8.3999999999999995E-003    -1.6886526473436552E-031
  -8.0999999999999996E-003     5.4450747304262479E-031
  -7.7999999999999988E-003     1.5733615650953994E-030
  -7.4999999999999997E-003    -6.6239799249663274E-030
  -7.1999999999999998E-003    -9.7598506292369209E-030
  -6.8999999999999981E-003     4.6593814644256092E-029
  -6.5999999999999982E-003     8.9636835096467910E-029
  -6.3000000000000000E-003    -3.4535916984866119E-028
  -6.0000000000000001E-003    -5.3128648784630901E-028
  -5.6999999999999985E-003     1.8855683574714486E-027
  -5.3999999999999986E-003     1.8994092103037061E-027
  -5.1000000000000004E-003    -4.2314719925292428E-028
  -4.7999999999999987E-003    -3.8773082256792797E-026
  -4.5000000000000005E-003     6.6755236512152705E-026
  -4.1999999999999989E-003     2.8664120605814558E-026
  -3.8999999999999990E-003    -1.1903171115662193E-025
  -3.5999999999999990E-003     3.7135562591376202E-025
  -3.2999999999999991E-003    -2.0703955548839254E-024
  -2.9999999999999992E-003     4.6238967994460521E-024
  -2.6999999999999993E-003    -4.0026981079075057E-024
  -2.3999999999999994E-003    -1.2400670387098451E-024
  -2.0999999999999977E-003     2.2543357888606334E-023
  -1.7999999999999995E-003    -8.7030425723343141E-023
  -1.4999999999999979E-003     1.4004613953105960E-022
  -1.1999999999999997E-003    -3.6181202629193811E-023
  -8.9999999999999976E-004    -2.0028038906795256E-022
  -5.9999999999999810E-004     5.0745380089090460E-022
  -2.9999999999999992E-004    -1.0305100372265851E-021
   0.0000000000000000          1.0570753734322267E-021
   3.0000000000000165E-004     3.7247767217193446E-022
   5.9999999999999984E-004    -1.5859708814537295E-021
   9.0000000000000149E-004     2.6311992295943123E-021
   1.2000000000000031E-003    -6.8975388432209452E-021
   1.5000000000000013E-003     7.3838912779590942E-021
   1.8000000000000030E-003    -1.4134582441129335E-021
   2.1000000000000012E-003     4.3426554256444680E-021
   2.3999999999999994E-003     2.3925130018397704E-020
   2.7000000000000010E-003    -1.1377900760199220E-019
   2.9999999999999992E-003     7.0713361086884115E-020
   3.3000000000000008E-003     2.1763136772172917E-019
   3.6000000000000025E-003    -3.7031459441682269E-019
   3.9000000000000007E-003    -2.0256400274105336E-020
   4.2000000000000023E-003     9.9396040310490921E-019
   4.5000000000000005E-003    -1.3005145299303946E-018
   4.7999999999999987E-003    -1.9093952511907636E-018
   5.1000000000000004E-003     5.5848484790485723E-018
   5.4000000000000020E-003     1.0366996220445846E-018
   5.7000000000000037E-003    -1.3135590882630434E-017
   5.9999999999999984E-003     6.4641757102968315E-018
   6.3000000000000000E-003     1.8911428492629221E-017
   6.6000000000000017E-003    -2.7152614401913536E-017
   6.9000000000000034E-003    -1.1306540346385594E-017
   7.2000000000000015E-003     6.6223637293001733E-017
   7.5000000000000032E-003    -2.3575191439728741E-017
   7.8000000000000014E-003    -1.1121791443704984E-016
   8.0999999999999996E-003     7.2145565017098421E-017
   8.4000000000000012E-003     1.2582650243576247E-016
   8.7000000000000029E-003    -6.3773562902997801E-017
   9.0000000000000011E-003    -9.3886459630254550E-017
   9.2999999999999992E-003    -4.9179888209512734E-017
   9.6000000000000009E-003     3.6706122287049283E-017
   9.8999999999999991E-003     1.7359094786485204E-016
   1.0200000000000001E-002     8.3833882768407361E-017
   1.0500000000000002E-002    -4.3853031090212816E-016
   1.0800000000000004E-002    -2.0104297210362746E-016
   1.1099999999999999E-002     2.4941438619101723E-015
   1.1400000000000000E-002    -1.5780174167840563E-015
   1.1700000000000002E-002    -9.9919383217770464E-015
   1.2000000000000004E-002     1.3158555239489366E-014
   1.2300000000000002E-002     2.2129772137293531E-014
   1.2600000000000000E-002    -5.0182493700072351E-014
   1.2900000000000002E-002    -1.5672112742409783E-014
   1.3200000000000000E-002     1.2061907979305451E-013
   1.3500000000000002E-002    -6.9299520798615887E-014
   1.3800000000000003E-002    -1.8138066639776364E-013
   1.4100000000000001E-002     2.9425286321880942E-013
   1.4400000000000000E-002     9.5394685323083695E-014
   1.4700000000000001E-002    -5.9864328747309113E-013
   1.4999999999999999E-002     3.2370018527294795E-013
   1.5300000000000001E-002     6.3631694818967778E-013
   1.5600000000000003E-002    -1.0947570238338102E-012
   1.5899999999999997E-002     3.1622734918947896E-013
   1.6199999999999999E-002     1.6506841512216989E-012
   1.6500000000000001E-002    -3.5406766620326263E-012
   1.6800000000000002E-002     3.0176398819079795E-013
   1.7100000000000004E-002     1.1834022615220280E-011
   1.7400000000000006E-002    -1.3848530164365858E-011
   1.7700000000000000E-002    -3.0614107390102872E-011
   1.8000000000000002E-002     7.4136836371864574E-011
   1.8300000000000004E-002     5.9755568024949612E-011
   1.8600000000000005E-002    -2.9981784301964366E-010
   1.8900000000000000E-002    -4.1544821472118456E-011
   1.9200000000000002E-002     1.0431106093278870E-009
   1.9500000000000003E-002    -3.2346587512831789E-010
   1.9799999999999998E-002    -3.2956237803671161E-009
   2.0100000000000000E-002     2.0852496872980072E-009
   2.0400000000000001E-002     1.0026652252067169E-008
   2.0700000000000003E-002    -8.1583683198111238E-009
   2.0999999999999998E-002    -3.1879729273527110E-008
   2.1299999999999999E-002     2.1242328854866329E-008
   2.1600000000000001E-002     1.0072238426836322E-007
   2.1900000000000003E-002    -4.2205695835716626E-008
   2.2200000000000004E-002    -3.5749848838086491E-007
   2.2500000000000006E-002     4.7683352968748409E-008
   2.2800000000000001E-002     2.4228141308927593E-006
   2.3100000000000002E-002     7.0194425234494512E-006
   2.3400000000000004E-002     1.2582140469992609E-005
   2.3699999999999999E-002     1.7834002419723946E-005
   2.4000000000000000E-002     2.3632223902245221E-005
   2.4300000000000002E-002     3.3051433057617482E-005
   2.4599999999999997E-002     4.9025819230674318E-005
   2.4900000000000005E-002     7.3078089225947561E-005
   2.5200000000000000E-002     1.0743509681378480E-004
   2.5499999999999995E-002     1.5695109049093206E-004
   2.5800000000000003E-002     2.2741375481290558E-004
   2.6099999999999998E-002     3.2379090905519322E-004
   2.6400000000000007E-002     4.5143897974763965E-004
   2.6700000000000002E-002     6.1559873620236748E-004
   2.6999999999999996E-002     8.1744574081150912E-004
   2.7300000000000005E-002     1.0541300891581465E-003
   2.7600000000000000E-002     1.3227030398018616E-003
   2.7900000000000008E-002     1.6158097028184755E-003
   2.8200000000000003E-002     1.9072133159025798E-003
   2.8499999999999998E-002     2.1416107703452667E-003
   2.8800000000000006E-002     2.2342528700655846E-003
   2.9100000000000001E-002     2.0690238240647497E-003
   2.9400000000000003E-002     1.4886262626402195E-003
   2.9700000000000004E-002     2.8012740342994421E-004
   3.0000000000000006E-002    -1.8352824033375057E-003
   3.0300000000000001E-002    -5.2000425082626570E-003
   3.0600000000000002E-002    -1.0207539100635746E-002
   3.0900000000000004E-002    -1.7296800686957693E-002
   3.1199999999999999E-002    -2.6957958137521342E-002
   3.1500000000000007E-002    -3.9722874874265679E-002
   3.1800000000000002E-002    -5.6121439897646307E-002
   3.2099999999999997E-002    -7.6626373890238852E-002
   3.2400000000000005E-002   -0.10160495318064917     
   3.2700000000000000E-002   -0.13128525860893592     
   3.3000000000000002E-002   -0.16571402013321576     
   3.3300000000000003E-002   -0.20471158179983243     
   3.3599999999999998E-002   -0.24784531808728241     
   3.3900000000000000E-002   -0.29439259706161058     
   3.4200000000000001E-002   -0.34337527658157807     
   3.4500000000000003E-002   -0.39360074212006191     
   3.4799999999999998E-002   -0.44370109683913006     
   3.5099999999999999E-002   -0.49214101448054026     
   3.5400000000000001E-002   -0.53732449131415205     
   3.5699999999999996E-002   -0.57766663993966538     
   3.6000000000000004E-002   -0.61169343771161833     
   3.6299999999999999E-002   -0.63794421344280672     
   3.6600000000000008E-002   -0.65510540031030506     
   3.6900000000000002E-002   -0.66190813500535661     
   3.7199999999999997E-002   -0.65706597083059815     
   3.7500000000000006E-002   -0.63930098458989093     
   3.7800000000000000E-002   -0.60710535783143849     
   3.8100000000000009E-002   -0.55886910974692161     
   3.8400000000000004E-002   -0.49263994984288917     
   3.8699999999999998E-002   -0.40639349566047178     
   3.9000000000000007E-002   -0.29825223047820854     
   3.9300000000000002E-002   -0.16634590900429022     
   3.9600000000000003E-002    -9.7315396444117713E-003
   3.9900000000000005E-002    0.17176505529694991     
   4.0200000000000000E-002    0.37677426892514959     
   4.0500000000000001E-002    0.60217059749749946     
   4.0800000000000003E-002    0.84261245226589310     
   4.1100000000000005E-002     1.0905998410227682     
   4.1399999999999999E-002     1.3364926069373353     
   4.1700000000000008E-002     1.5689607417184597     
   4.2000000000000003E-002     1.7754779715516751     
   4.2299999999999997E-002     1.9432660138729745     
   4.2600000000000006E-002     2.0605416259351177     
   4.2900000000000001E-002     2.1174426223576908     
   4.3200000000000002E-002     2.1073038915789124     
   4.3500000000000004E-002     2.0276012950829263     
   4.3799999999999999E-002     1.8806077953981606     
   4.4100000000000000E-002     1.6736105361747815     
   4.4400000000000002E-002     1.4188711457283847     
   4.4700000000000004E-002     1.1326653869461749     
   4.4999999999999998E-002    0.83426129528255688     
   4.5300000000000000E-002    0.54417598136719580     
   4.5600000000000002E-002    0.28247579595134575     
   4.5899999999999996E-002     6.6944962174303818E-002
   4.6200000000000005E-002    -8.8689353859213046E-002
   4.6500000000000000E-002   -0.17616839904524531     
   4.6799999999999994E-002   -0.19363519761861123     
   4.7100000000000003E-002   -0.14575188263699471     
   4.7399999999999998E-002    -4.3918579433334465E-002
   4.7700000000000006E-002     9.5137563226728894E-002
   4.8000000000000001E-002    0.25024977419217226     
   4.8300000000000010E-002    0.39793769844347610     
   4.8600000000000004E-002    0.51380827701073561     
   4.8899999999999999E-002    0.57527382366054147     
   4.9200000000000008E-002    0.56286609085154049     
   4.9500000000000002E-002    0.46206988743430616     
   4.9800000000000011E-002    0.26485956742875072     
   5.0100000000000006E-002    -2.9763880174697561E-002
   5.0400000000000000E-002   -0.41516518442333344     
   5.0700000000000009E-002   -0.87725284625113986     
   5.1000000000000004E-002    -1.3949910083739347     
   5.1299999999999998E-002    -1.9413028604680012     
   5.1600000000000007E-002    -2.4848676521899025     
   5.1900000000000002E-002    -2.9913249748926707     
   5.2200000000000010E-002    -3.4262505243828176     
   5.2500000000000005E-002    -3.7563989756280316     
   5.2800000000000000E-002    -3.9532366320984096     
   5.3099999999999994E-002    -3.9942985035850640     
   5.3400000000000003E-002    -3.8655910886921783     
   5.3699999999999998E-002    -3.5635772096843503     
   5.4000000000000006E-002    -3.0956945728928154     
   5.4300000000000001E-002    -2.4807050515642914     
   5.4599999999999996E-002    -1.7486847920424069     
   5.4900000000000004E-002   -0.93877795263151542     
   5.5199999999999999E-002    -9.6995638155154523E-002
   5.5499999999999994E-002    0.72611543084022190     
   5.5800000000000002E-002     1.4799893711867977     
   5.6099999999999997E-002     2.1176607186262197     
   5.6400000000000006E-002     2.5987226502966165     
   5.6700000000000000E-002     2.8938176143460201     
   5.6999999999999995E-002     2.9861003850931005     
   5.7300000000000004E-002     2.8733336431959806     
   5.7599999999999998E-002     2.5679983632919985     
   5.7900000000000007E-002     2.0962931715107604     
   5.8200000000000002E-002     1.4961167277718248     
   5.8499999999999996E-002    0.81426404291443333     
   5.8800000000000005E-002    0.10212290375409667     
   5.9100000000000000E-002   -0.58794722820251388     
   5.9400000000000008E-002    -1.2067098173861730     
   5.9700000000000003E-002    -1.7120798129623365     
   6.0000000000000012E-002    -2.0716864102179446     
   6.0300000000000006E-002    -2.2648428647622678     
   6.0600000000000001E-002    -2.2835992296324834     
   6.0900000000000010E-002    -2.1322994928328667     
   6.1200000000000004E-002    -1.8264071272951137     
   6.1500000000000013E-002    -1.3904033115667154     
   6.1800000000000008E-002   -0.85535011339962852     
   6.2100000000000002E-002   -0.25536898723868040     
   6.2399999999999997E-002    0.37496332290623879     
   6.2700000000000006E-002     1.0030386957046278     
   6.3000000000000000E-002     1.6005556842214592     
   6.3300000000000009E-002     2.1453546243748280     
   6.3600000000000004E-002     2.6210060934186417     
   6.3899999999999998E-002     3.0179098117344108     
   6.4199999999999993E-002     3.3323590877467559     
   6.4500000000000002E-002     3.5651771829999146     
   6.4800000000000010E-002     3.7200259698627662     
   6.5100000000000005E-002     3.8032995977881972     
   6.5400000000000000E-002     3.8208328851490294     
   6.5700000000000008E-002     3.7783497855163621     
   6.5999999999999989E-002     3.6796998047265927     
   6.6299999999999998E-002     3.5274006421004462     
   6.6600000000000006E-002     3.3223313458280503     
   6.6900000000000001E-002     3.0640382038704059     
   6.7199999999999996E-002     2.7522847037341882     
   6.7500000000000004E-002     2.3873121236769377     
   6.7800000000000013E-002     1.9708941778080842     
   6.8099999999999994E-002     1.5072642256245716     
   6.8400000000000002E-002     1.0043517112437323     
   6.8700000000000011E-002    0.47229514595903060     
   6.8999999999999992E-002    -7.5505302782303690E-002
   6.9300000000000000E-002   -0.62258960329290380     
   6.9600000000000009E-002    -1.1519212877108125     
   6.9900000000000004E-002    -1.6455453799796047     
   7.0199999999999999E-002    -2.0867634005516189     
   7.0500000000000007E-002    -2.4605832310672064     
   7.0800000000000016E-002    -2.7563610316835452     
   7.1099999999999997E-002    -2.9673400197852406     
   7.1400000000000005E-002    -3.0916679215946199     
   7.1700000000000000E-002    -3.1326191776827161     
   7.1999999999999995E-002    -3.0989180010249950     
   7.2300000000000003E-002    -3.0025496933922895     
   7.2600000000000012E-002    -2.8591375858485648     
   7.2900000000000006E-002    -2.6860123244380318     
   7.3200000000000001E-002    -2.5012009761768330     
   7.3499999999999996E-002    -2.3213792511077918     
   7.3800000000000004E-002    -2.1616197328706876     
   7.4099999999999999E-002    -2.0336073149694154     
   7.4400000000000008E-002    -1.9457002373147843     
   7.4700000000000003E-002    -1.9012975129634140     
   7.5000000000000011E-002    -1.9017276102445992     
   7.5299999999999992E-002    -1.9436327602691299     
   7.5600000000000001E-002    -2.0217235280356007     
   7.5900000000000009E-002    -2.1284217788041966     
   7.6200000000000004E-002    -2.2567503136996212     
   7.6499999999999999E-002    -2.3982774606919648     
   7.6800000000000007E-002    -2.5470158165714909     
   7.7099999999999988E-002    -2.6982749756723825     
   7.7399999999999997E-002    -2.8485628245473267     
   7.7700000000000005E-002    -2.9966546111829788     
   7.8000000000000014E-002    -3.1418198252962757     
   7.8299999999999995E-002    -3.2824982594432726     
   7.8600000000000003E-002    -3.4159464347641832     
   7.8900000000000012E-002    -3.5346410544591320     
   7.9199999999999993E-002    -3.6260379634855617     
   7.9500000000000001E-002    -3.6702005970748095     
   7.9800000000000010E-002    -3.6400107438086406     
   8.0100000000000018E-002    -3.4993448793086870     
   8.0399999999999999E-002    -3.2087153915700082     
   8.0700000000000008E-002    -2.7239771574325946     
   8.1000000000000003E-002    -2.0042406585609807     
   8.1299999999999997E-002    -1.0176347977491744     
   8.1600000000000006E-002    0.25287410691404510     
   8.1900000000000014E-002     1.8015815144290370     
   8.2199999999999995E-002     3.5947112961734931     
   8.2500000000000004E-002     5.5653007598936570     
   8.2799999999999999E-002     7.6147968331397200     
   8.3100000000000007E-002     9.6129128009885942     
   8.3400000000000002E-002     11.407096983310623     
   8.3700000000000011E-002     12.831273636753922     
   8.4000000000000005E-002     13.722402560109153     
   8.4300000000000000E-002     13.934822358398922     
   8.4599999999999995E-002     13.357568219328106     
   8.4900000000000003E-002     11.930676887652861     
   8.5199999999999998E-002     9.6560289911105635     
   8.5500000000000007E-002     6.6051920623154308     
   8.5800000000000001E-002     2.9196487054213511     
   8.6100000000000010E-002    -1.1938721157366550     
   8.6399999999999991E-002    -5.4774224364958073     
   8.6699999999999999E-002    -9.6394158037666742     
   8.7000000000000008E-002    -13.377149491524424     
   8.7300000000000003E-002    -16.401898061488481     
   8.7599999999999997E-002    -18.464139246152634     
   8.7900000000000006E-002    -19.375281993927214     
   8.8200000000000014E-002    -19.022146108260248     
   8.8499999999999995E-002    -17.383224308978015     
   8.8800000000000004E-002    -14.525294778569750     
   8.9100000000000013E-002    -10.602178527393223     
   8.9399999999999993E-002    -5.8424484366045553     
   8.9700000000000002E-002   -0.52851195665905415     
   9.0000000000000011E-002     5.0227180849772326     
   9.0299999999999991E-002     10.485939622141778     
   9.0600000000000000E-002     15.552531785776484     
   9.0900000000000009E-002     19.947742858420487     
   9.1200000000000017E-002     23.452006451421429     
   9.1499999999999998E-002     25.910174980671375     
   9.1800000000000007E-002     27.235986679063558     
   9.2100000000000001E-002     27.412426084807326     
   9.2399999999999996E-002     26.486055400922048     
   9.2700000000000005E-002     24.555976666369677     
   9.3000000000000013E-002     21.759501841550442     
   9.3300000000000008E-002     18.264561561561074     
   9.3600000000000003E-002     14.249369931695778     
   9.3899999999999997E-002     9.8940131197790837     
   9.4200000000000006E-002     5.3730564722394352     
   9.4500000000000001E-002    0.84241938618214673     
   9.4800000000000009E-002    -3.5583199523160984     
   9.5100000000000004E-002    -7.7132450966084498     
   9.5399999999999999E-002    -11.526432194357774     
   9.5699999999999993E-002    -14.924306458307177     
   9.6000000000000002E-002    -17.849769495429104     
   9.6300000000000011E-002    -20.265091090451381     
   9.6600000000000005E-002    -22.144821492803988     
   9.6900000000000000E-002    -23.474447689350974     
   9.7200000000000009E-002    -24.256170768435098     
   9.7499999999999989E-002    -24.494007608764051     
   9.7799999999999998E-002    -24.206861949605546     
   9.8100000000000007E-002    -23.419283279212895     
   9.8400000000000015E-002    -22.165746929266689     
   9.8699999999999996E-002    -20.487709125328315     
   9.9000000000000005E-002    -18.436275370641194     
   9.9300000000000013E-002    -16.071021704051198     
   9.9599999999999994E-002    -13.456737900122169     
   9.9900000000000003E-002    -10.668269279253053     
  0.10020000000000001         -7.7808001904120738     
  0.10049999999999999         -4.8767309638807470     
  0.10080000000000000         -2.0326414142503233     
  0.10110000000000001         0.67539831971489428     
  0.10140000000000000          3.1807108393976962     
  0.10170000000000000          5.4280944287219386     
  0.10200000000000001          7.3741419376107009     
  0.10230000000000002          8.9974259724794319     
  0.10260000000000000          10.282337261297895     
  0.10290000000000001          11.242757014250758     
  0.10320000000000000          11.898440593866301     
  0.10350000000000001          12.283692622475186     
  0.10380000000000000          12.443133618899177     
  0.10410000000000001          12.423457389733032     
  0.10440000000000001          12.272771089070774     
  0.10470000000000000          12.030472912818350     
  0.10500000000000000          11.738347156999902     
  0.10530000000000000          11.414187475634774     
  0.10560000000000000          11.075108514453856     
  0.10590000000000001          10.720819402921991     
  0.10620000000000000          10.339830272170115     
  0.10650000000000001          9.9146192645091311     
  0.10679999999999999          9.4182488920601166     
  0.10710000000000000          8.8261782531964670     
  0.10740000000000001          8.1094309020817992     
  0.10770000000000000          7.2526030928712819     
  0.10800000000000000          6.2396411430738130     
  0.10830000000000001          5.0746181977622111     
  0.10859999999999999          3.7689323331119757     
  0.10890000000000000          2.3457027597399618     
  0.10920000000000001         0.84697960677280093     
  0.10950000000000001        -0.68577124770483244     
  0.10979999999999999         -2.1951623246376086     
  0.11009999999999999         -3.6302455991950757     
  0.11040000000000001         -4.9319577467018938     
  0.11070000000000001         -6.0573602955284924     
  0.11100000000000000         -6.9647342790457660     
  0.11130000000000000         -7.6276872348978797     
  0.11160000000000002         -8.0358999299236924     
  0.11190000000000001         -8.1871460074774092     
  0.11220000000000001         -8.1017702065187311     
  0.11250000000000000         -7.8040311393992914     
  0.11280000000000000         -7.3361412986254102     
  0.11309999999999999         -6.7405267953069492     
  0.11340000000000001         -6.0678773331805322     
  0.11369999999999998         -5.3665360981738184     
  0.11400000000000000         -4.6811340987211638     
  0.11430000000000000         -4.0533631218544226     
  0.11460000000000002         -3.5073809297304370     
  0.11489999999999999         -3.0684310504114491     
  0.11520000000000001         -2.7380457976954955     
  0.11550000000000001         -2.5146933357904424     
  0.11580000000000000         -2.3810303794867518     
  0.11609999999999999         -2.3117838426997004     
  0.11640000000000002         -2.2765665611243477     
  0.11670000000000001         -2.2363179360597503     
  0.11700000000000001         -2.1595073488738836     
  0.11730000000000000         -2.0075591425832702     
  0.11760000000000000         -1.7572995082683824     
  0.11789999999999999         -1.3868348193331075     
  0.11820000000000001        -0.89145577246791952     
  0.11850000000000001        -0.27370676806189359     
  0.11880000000000000         0.44967822028175225     
  0.11910000000000000          1.2474631670696563     
  0.11940000000000002          2.0853649414919406     
  0.11970000000000001          2.9133569712490583     
  0.12000000000000001          3.6863944758744047     
  0.12030000000000000          4.3517025412867509     
  0.12060000000000000          4.8674577773033016     
  0.12089999999999999          5.1959318685770199     
  0.12119999999999999          5.3109831663516678     
  0.12150000000000001          5.2051773014177831     
  0.12180000000000001          4.8791680124428067     
  0.12210000000000000          4.3584732439186880     
  0.12239999999999999          3.6739786899114577     
  0.12270000000000002          2.8779302132705116     
  0.12300000000000001          2.0232989415167197     
  0.12330000000000001          1.1716717393595499     
  0.12360000000000000         0.38228338219741903     
  0.12390000000000000        -0.29392432905746591     
  0.12419999999999999        -0.81206446913712205     
  0.12450000000000001         -1.1482974730355351     
  0.12480000000000001         -1.2874476349537711     
  0.12509999999999999         -1.2391309150778189     
  0.12540000000000001         -1.0238703849665749     
  0.12570000000000003        -0.67805396967954912     
  0.12600000000000000        -0.24796824300655992     
  0.12630000000000002         0.21578180487753978     
  0.12659999999999999         0.65928053097263628     
  0.12690000000000001          1.0379551460768235     
  0.12719999999999998          1.3080916552876114     
  0.12750000000000000          1.4447487922229718     
  0.12780000000000002          1.4301312293121284     
  0.12809999999999999          1.2625184192488674     
  0.12840000000000001         0.95416484154267112     
  0.12869999999999998         0.52502219926224558     
  0.12900000000000000          8.3473865828030246E-003
  0.12930000000000003        -0.56160861915409843     
  0.12959999999999999         -1.1432542861603456     
  0.12990000000000002         -1.7000197786768778     
  0.13019999999999998         -2.1930947188468330     
  0.13050000000000000         -2.5932448151435636     
  0.13080000000000003         -2.8762171741968841     
  0.13109999999999999         -3.0234442318721286     
  0.13140000000000002         -3.0296953246261249     
  0.13169999999999998         -2.8936660633218829     
  0.13200000000000001         -2.6253423740190587     
  0.13229999999999997         -2.2404997000534044     
  0.13260000000000000         -1.7629942068784963     
  0.13290000000000002         -1.2199106047046457     
  0.13319999999999999        -0.64253704328358496     
  0.13350000000000001         -6.5133672257797925E-002
  0.13380000000000003         0.48199496334798109     
  0.13410000000000000         0.96635543920655942     
  0.13440000000000002          1.3643328339693368     
  0.13469999999999999          1.6536485671941514     
  0.13500000000000001          1.8215428332449322     
  0.13529999999999998          1.8623825155849649     
  0.13560000000000000          1.7767766530536853     
  0.13590000000000002          1.5754387052268868     
  0.13619999999999999          1.2733924994239034     
  0.13650000000000001         0.89491906312006519     
  0.13680000000000003         0.46548337958138220     
  0.13710000000000000          1.5449760437110839E-002
  0.13740000000000002        -0.42431345152599570     
  0.13769999999999999        -0.82370351188664770     
  0.13800000000000001         -1.1568547175325838     
  0.13829999999999998         -1.4009739222179416     
  0.13860000000000000         -1.5380782223699918     
  0.13890000000000002         -1.5625334290771160     
  0.13919999999999999         -1.4708057002774186     
  0.13950000000000001         -1.2687128069222531     
  0.13979999999999998        -0.97220018509733108     
  0.14010000000000000        -0.59997379936798723     
  0.14040000000000002        -0.17708535081386872     
  0.14069999999999999         0.26888133646521151     
  0.14100000000000001         0.70610755553566751     
  0.14130000000000004          1.1088731705986830     
  0.14160000000000000          1.4496589515848548     
  0.14189999999999997          1.7072232918323174     
  0.14219999999999999          1.8655594809431908     
  0.14250000000000002          1.9160761034321885     
  0.14279999999999998          1.8576988452554468     
  0.14310000000000000          1.6943474259430844     
  0.14339999999999997          1.4408303822344382     
  0.14369999999999999          1.1154049750636370     
  0.14400000000000002         0.74106357870888195     
  0.14429999999999998         0.34440303919683485     
  0.14460000000000001         -4.5285532663426685E-002
  0.14490000000000003        -0.40157350903107480     
  0.14520000000000000        -0.70110383930326770     
  0.14550000000000002        -0.92226332510253539     
  0.14579999999999999         -1.0519704437340889     
  0.14610000000000001         -1.0846926912567612     
  0.14640000000000003         -1.0201092740027085     
  0.14670000000000000        -0.86652973602031613     
  0.14699999999999996        -0.63934131455715482     
  0.14729999999999999        -0.36016395811996393     
  0.14760000000000001         -4.9488253162568045E-002
  0.14789999999999998         0.26364101830686310     
  0.14820000000000000         0.55574460310211138     