  -1.4999999999999999E-002     0.0000000000000000     
  -1.4700000000000000E-002    -6.4201343840776774E-014
  -1.4400000000000000E-002     5.7059705429987781E-013
  -1.4100000000000000E-002     1.5106033666043199E-010
  -1.3800000000000000E-002    -3.1384364370417491E-010
  -1.3500000000000000E-002    -2.7036996243702405E-009
  -1.3200000000000000E-002     2.0268052356504575E-009
  -1.2899999999999998E-002     1.7639142250050984E-008
  -1.2600000000000000E-002     3.7363477524087387E-009
  -1.2299999999999998E-002    -5.1183580031032907E-008
  -1.2000000000000000E-002    -7.6339212729236784E-008
  -1.1699999999999999E-002     5.3948669759422390E-008
  -1.1399999999999999E-002     2.6299284158252572E-007
  -1.1099999999999999E-002     1.7264454533734616E-007
  -1.0799999999999999E-002    -2.7031899034194645E-007
  -1.0499999999999999E-002    -7.2991784243362170E-007
  -1.0199999999999999E-002    -6.5668770362647676E-007
  -9.8999999999999991E-003     7.2521727535356642E-007
  -9.5999999999999992E-003     2.4167100742333631E-006
  -9.2999999999999992E-003     1.6224054826485205E-006
  -8.9999999999999993E-003    -2.1692055635955043E-006
  -8.6999999999999994E-003    -4.9075151763500567E-006
  -8.3999999999999995E-003    -3.0399830912689671E-006
  -8.0999999999999996E-003     2.2387519079758444E-006
  -7.7999999999999988E-003     7.2364417336407647E-006
  -7.4999999999999997E-003     8.4061064931915747E-006
  -7.1999999999999998E-003     1.0788735619224465E-006
  -6.8999999999999981E-003    -1.1700183606184530E-005
  -6.5999999999999982E-003    -1.5113127361681479E-005
  -6.3000000000000000E-003    -3.4747925641748961E-006
  -6.0000000000000001E-003     9.1700672128977979E-006
  -5.6999999999999985E-003     1.2403530098397018E-005
  -5.3999999999999986E-003     8.8212169333033799E-006
  -5.1000000000000004E-003     4.8025849684300158E-006
  -4.7999999999999987E-003     5.2786586493742643E-006
  -4.5000000000000005E-003     6.9544650344285284E-006
  -4.1999999999999989E-003     6.6334797543490497E-006
  -3.8999999999999990E-003     2.3046734986619075E-006
  -3.5999999999999990E-003     1.3555255976414559E-006
  -3.2999999999999991E-003     2.6500662875213230E-005
  -2.9999999999999992E-003     9.9324660476338063E-005
  -2.6999999999999993E-003     2.0649215456928555E-004
  -2.3999999999999994E-003     3.1877423131580464E-004
  -2.0999999999999977E-003     4.2915615464459507E-004
  -1.7999999999999995E-003     5.7595568954900227E-004
  -1.4999999999999979E-003     7.9482809956383995E-004
  -1.1999999999999997E-003     1.1326259214898108E-003
  -8.9999999999999976E-004     1.6453258212019612E-003
  -5.9999999999999810E-004     2.4081390331056173E-003
  -2.9999999999999992E-004     3.5501102357562700E-003
   0.0000000000000000          5.2110140502507861E-003
   3.0000000000000165E-004     7.5122706323573129E-003
   5.9999999999999984E-004     1.0573645028343048E-002
   9.0000000000000149E-004     1.4527335606455563E-002
   1.2000000000000031E-003     1.9589741139985038E-002
   1.5000000000000013E-003     2.6121627442088392E-002
   1.8000000000000030E-003     3.4562262698338800E-002
   2.1000000000000012E-003     4.5420074348690193E-002
   2.3999999999999994E-003     5.9167144583434375E-002
   2.7000000000000010E-003     7.6331006217529862E-002
   2.9999999999999992E-003     9.7489193607955604E-002
   3.3000000000000008E-003    0.12328750537361863     
   3.6000000000000025E-003    0.15430572631376496     
   3.9000000000000007E-003    0.19095108233933455     
   4.2000000000000023E-003    0.23346204700970935     
   4.5000000000000005E-003    0.28197381150977113     
   4.7999999999999987E-003    0.33626720460506193     
   5.1000000000000004E-003    0.39562931095758852     
   5.4000000000000020E-003    0.45846919723243118     
   5.7000000000000037E-003    0.52202152123032775     
   5.9999999999999984E-003    0.58222033026054731     
   6.3000000000000000E-003    0.63327283026132941     
   6.6000000000000017E-003    0.66714315819347569     
   6.9000000000000034E-003    0.67304369106355444     
   7.2000000000000015E-003    0.63714167293880530     
   7.5000000000000032E-003    0.54236334079270032     
   7.8000000000000014E-003    0.36853423516760875     
   8.0999999999999996E-003     9.2578626580754164E-002
   8.4000000000000012E-003   -0.31040337481353719     
   8.7000000000000029E-003   -0.86548103234538820     
   9.0000000000000011E-003    -1.5953896532785687     
   9.2999999999999992E-003    -2.5172498784744919     
   9.6000000000000009E-003    -3.6388060237069668     
   9.8999999999999991E-003    -4.9540367747886567     
   1.0200000000000001E-002    -6.4384870442147584     
   1.0500000000000002E-002    -8.0450102978902827     
   1.0800000000000004E-002    -9.7007618894604306     
   1.1099999999999999E-002    -11.306012492015753     
   1.1400000000000000E-002    -12.735599322956398     
   1.1700000000000002E-002    -13.842844580690954     
   1.2000000000000004E-002    -14.467981621852488     
   1.2300000000000002E-002    -14.448481796379204     
   1.2600000000000000E-002    -13.634202712071021     
   1.2900000000000002E-002    -11.902317856846434     
   1.3200000000000000E-002    -9.1748936484468260     
   1.3500000000000002E-002    -5.4340448446095673     
   1.3800000000000003E-002   -0.73360526573550633     
   1.4100000000000001E-002     4.7912996709649684     
   1.4400000000000000E-002     10.927202087486249     
   1.4700000000000001E-002     17.384742426964550     
   1.4999999999999999E-002     23.817015399220907     
   1.5300000000000001E-002     29.837919294518137     
   1.5600000000000003E-002     35.052745408450761     
   1.5899999999999997E-002     39.086303198352120     
   1.6199999999999999E-002     41.616554489945976     
   1.6500000000000001E-002     42.401241748054090     
   1.6800000000000002E-002     41.301712174157188     
   1.7100000000000004E-002     38.299979379945697     
   1.7400000000000006E-002     33.499931208492413     
   1.7700000000000000E-002     27.126741819217695     
   1.8000000000000002E-002     19.505719616404157     
   1.8300000000000004E-002     11.044343487475132     
   1.8600000000000005E-002     2.1945339329731688     
   1.8900000000000000E-002    -6.5768544287435464     
   1.9200000000000002E-002    -14.823905058047977     
   1.9500000000000003E-002    -22.155781883271469     
   1.9799999999999998E-002    -28.257263510218184     
   2.0100000000000000E-002    -32.914706316364203     
   2.0400000000000001E-002    -36.013881348213161     
   2.0700000000000003E-002    -37.552184649354231     
   2.0999999999999998E-002    -37.615583140444329     
   2.1299999999999999E-002    -36.376638876984885     
   2.1600000000000001E-002    -34.057380991719462     
   2.1900000000000003E-002    -30.922280638328417     
   2.2200000000000004E-002    -27.236652615050559     
   2.2500000000000006E-002    -23.261666929539683     
   2.2800000000000001E-002    -19.219336511457165     
   2.3100000000000002E-002    -15.298029109997429     
   2.3400000000000004E-002    -11.627185985649248     
   2.3699999999999999E-002    -8.2932386454471398     
   2.4000000000000000E-002    -5.3273139653832198     
   2.4300000000000002E-002    -2.7300029381547546     
   2.4599999999999997E-002   -0.46449076680449597     
   2.4900000000000005E-002     1.5153128781412097     
   2.5200000000000000E-002     3.2711794119246473     
   2.5499999999999995E-002     4.8520237413627116     
   2.5800000000000003E-002     6.3053771051182759     
   2.6099999999999998E-002     7.6542726205571920     
   2.6400000000000007E-002     8.9122843263169020     
   2.6700000000000002E-002     10.069604995337899     
   2.6999999999999996E-002     11.107249948924158     
   2.7300000000000005E-002     11.990547539298280     
   2.7600000000000000E-002     12.683176903542817     
   2.7900000000000008E-002     13.145828581825864     
   2.8200000000000003E-002     13.346981537581305     
   2.8499999999999998E-002     13.261381680083664     
   2.8800000000000006E-002     12.879092551970327     
   2.9100000000000001E-002     12.204650386650192     
   2.9400000000000003E-002     11.259464755013076     
   2.9700000000000004E-002     10.081164993386004     
   3.0000000000000006E-002     8.7212673254646997     
   3.0300000000000001E-002     7.2435640725787351     
   3.0600000000000002E-002     5.7178000432782925     
   3.0900000000000004E-002     4.2176144591463007     
   3.1199999999999999E-002     2.8115296251160338     
   3.1500000000000007E-002     1.5625969298444984     
   3.1800000000000002E-002    0.51740462511748375     
   3.2099999999999997E-002   -0.28945405903912269     
   3.2400000000000005E-002   -0.84693552305461073     
   3.2700000000000000E-002    -1.1574507403736476     
   3.3000000000000002E-002    -1.2484925255226604     
   3.3300000000000003E-002    -1.1551910262581868     
   3.3599999999999998E-002   -0.93285105239724730     
   3.3900000000000000E-002   -0.63465064984900121     
   3.4200000000000001E-002   -0.32586358221008643     
   3.4500000000000003E-002    -5.7608335741819006E-002
   3.4799999999999998E-002    0.11497888805007830     
   3.5099999999999999E-002    0.16019539712679703     
   3.5400000000000001E-002     4.7281579901013324E-002
   3.5699999999999996E-002   -0.22585616305673212     
   3.6000000000000004E-002   -0.65950159118419838     
   3.6299999999999999E-002    -1.2260821956524315     
   3.6600000000000008E-002    -1.8988337008292708     
   3.6900000000000002E-002    -2.6288620301763026     
   3.7199999999999997E-002    -3.3730088997979282     
   3.7500000000000006E-002    -4.0742838832833597     
   3.7800000000000000E-002    -4.6878269652836702     
   3.8100000000000009E-002    -5.1641855905787502     
   3.8400000000000004E-002    -5.4715915175449901     
   3.8699999999999998E-002    -5.5810439979937563     
   3.9000000000000007E-002    -5.4842455711911775     
   3.9300000000000002E-002    -5.1799897613105523     
   3.9600000000000003E-002    -4.6872017233959937     
   3.9900000000000005E-002    -4.0310276462113048     
   4.0200000000000000E-002    -3.2526856697991056     
   4.0500000000000001E-002    -2.3952521809298029     
   4.0800000000000003E-002    -1.5105811052515044     
   4.1100000000000005E-002   -0.64525162865182362     
   4.1399999999999999E-002    0.15228344284333989     
   4.1700000000000008E-002    0.84525621364405623     
   4.2000000000000003E-002     1.4004169295791464     
   4.2299999999999997E-002     1.8005386298963142     
   4.2600000000000006E-002     2.0345922279438167     
   4.2900000000000001E-002     2.1074546326006125     
   4.3200000000000002E-002     2.0299127740792970     
   4.3500000000000004E-002     1.8256086521079067     
   4.3799999999999999E-002     1.5220814107994174     
   4.4100000000000000E-002     1.1543925278338909     
   4.4400000000000002E-002    0.75804842298037511     
   4.4700000000000004E-002    0.36985468585166781     
   4.4999999999999998E-002     2.3908881737793403E-002
   4.5300000000000000E-002   -0.25085667832481395     
   4.5600000000000002E-002   -0.43113449224051403     
   4.5899999999999996E-002   -0.50380180702810173     
   4.6200000000000005E-002   -0.46175828152637199     
   4.6500000000000000E-002   -0.31134524413795112     
   4.6799999999999994E-002    -6.3671430085042988E-002
   4.7100000000000003E-002    0.25795046098649943     
   4.7399999999999998E-002    0.62912266703505904     
   4.7700000000000006E-002     1.0166877338325644     
   4.8000000000000001E-002     1.3927524207910222     
   4.8300000000000010E-002     1.7252601113740875     
   4.8600000000000004E-002     1.9927998569994028     
   4.8899999999999999E-002     2.1739668578100457     
   4.9200000000000008E-002     2.2615317338463856     
   4.9500000000000002E-002     2.2486894437396847     
   4.9800000000000011E-002     2.1432680638753583     
   5.0100000000000006E-002     1.9516147208272514     
   5.0400000000000000E-002     1.6923503966293494     
   5.0700000000000009E-002     1.3779328849533121     
   5.1000000000000004E-002     1.0298103405204804     
   5.1299999999999998E-002    0.65980610705590292     
   5.1600000000000007E-002    0.28711831651407482     
   5.1900000000000002E-002    -8.1035283970418787E-002
   5.2200000000000010E-002   -0.42966354086663666     
   5.2500000000000005E-002   -0.75612255529013539     
   5.2800000000000000E-002    -1.0475791588110381     
   5.3099999999999994E-002    -1.3018247860599481     
   5.3400000000000003E-002    -1.5055996865273493     
   5.3699999999999998E-002    -1.6555014336375997     
   5.4000000000000006E-002    -1.7373103069683555     
   5.4300000000000001E-002    -1.7477530444116360     
   5.4599999999999996E-002    -1.6746245228783347     
   5.4900000000000004E-002    -1.5191923158590253     
   5.5199999999999999E-002    -1.2776452354516168     
   5.5499999999999994E-002   -0.96124072227400470     
   5.5800000000000002E-002   -0.57911885158840004     
   5.6099999999999997E-002   -0.15467498685595854     
   5.6400000000000006E-002    0.29031852835785937     
   5.6700000000000000E-002    0.72334748443561159     
   5.6999999999999995E-002     1.1161574235034830     
   5.7300000000000004E-002     1.4366357469178184     
   5.7599999999999998E-002     1.6606458529995261     
   5.7900000000000007E-002     1.7676233108513533     
   5.8200000000000002E-002     1.7478855223647818     
   5.8499999999999996E-002     1.6005607371670982     
   5.8800000000000005E-002     1.3355546456582361     
   5.9100000000000000E-002    0.97309059576149259     
   5.9400000000000008E-002    0.53989470479482782     
   5.9700000000000003E-002     7.0076441559342589E-002
   6.0000000000000012E-002   -0.40299772078584362     
   6.0300000000000006E-002   -0.84404660564022427     
   6.0600000000000001E-002    -1.2251649057599816     
   6.0900000000000010E-002    -1.5215043226430851     
   6.1200000000000004E-002    -1.7203481094948194     
   6.1500000000000013E-002    -1.8143842909034402     
   6.1800000000000008E-002    -1.8087853109824876     
   6.2100000000000002E-002    -1.7126602261239496     
   6.2399999999999997E-002    -1.5438241362258116     
   6.2700000000000006E-002    -1.3216329243600908     
   6.3000000000000000E-002    -1.0683600140693443     
   6.3300000000000009E-002   -0.80442375732566596     
   6.3600000000000004E-002   -0.54830122288135263     
   6.3899999999999998E-002   -0.31521229753091484     
   6.4199999999999993E-002   -0.11531663876427869     
   6.4500000000000002E-002     4.4368478406990181E-002
   6.4800000000000010E-002    0.16261053424685662     
   6.5100000000000005E-002    0.23938426688133552     
   6.5400000000000000E-002    0.28058548738491729     
   6.5700000000000008E-002    0.29098224669075706     
   6.5999999999999989E-002    0.28020829449635598     
   6.6299999999999998E-002    0.25546491121856363     
   6.6600000000000006E-002    0.22746742175818802     
   6.6900000000000001E-002    0.20308318510625975     
   6.7199999999999996E-002    0.19132089303656660     
   6.7500000000000004E-002    0.19652764448886070     
   6.7800000000000013E-002    0.22416497509020453     
   6.8099999999999994E-002    0.27363655637594830     
   6.8400000000000002E-002    0.34548719865128835     
   6.8700000000000011E-002    0.43392097925856676     
   6.8999999999999992E-002    0.53486550063087135     
   6.9300000000000000E-002    0.63825452656104831     
   6.9600000000000009E-002    0.73764414551079982     
   6.9900000000000004E-002    0.82158598053603626     
   7.0199999999999999E-002    0.88495062473930086     
   7.0500000000000007E-002    0.91795083241515218     
   7.0800000000000016E-002    0.91923339412794602     
   7.1099999999999997E-002    0.88298931804077474     
   7.1400000000000005E-002    0.81315596079895114     
   7.1700000000000000E-002    0.70891022985382146     
   7.1999999999999995E-002    0.57833772848124410     
   7.2300000000000003E-002    0.42445225450497959     
   7.2600000000000012E-002    0.25787739949745009     
   7.2900000000000006E-002     8.4148963332365434E-002
   7.3200000000000001E-002    -8.5897173432518556E-002
   7.3499999999999996E-002   -0.24577632022550233     
   7.3800000000000004E-002   -0.38639130474677397     
   7.4099999999999999E-002   -0.50231427720923816     
   7.4400000000000008E-002   -0.58765844283739332     
   7.4700000000000003E-002   -0.63924700534788448     
   7.5000000000000011E-002   -0.65585039923877941     
   7.5299999999999992E-002   -0.63759975957786219     
   7.5600000000000001E-002   -0.58771924539676101     
   7.5900000000000009E-002   -0.51051929384882544     
   7.6200000000000004E-002   -0.41304109760013846     
   7.6499999999999999E-002   -0.30263736420722143     
   7.6800000000000007E-002   -0.18726803523433294     
   7.7099999999999988E-002    -7.5624369653075701E-002
   7.7399999999999997E-002     2.5480522135158529E-002
   7.7700000000000005E-002    0.10845218295598458     
   7.8000000000000014E-002    0.17025983869233777     
   7.8299999999999995E-002    0.20570398385356853     
   7.8600000000000003E-002    0.21654844611446752     
   7.8900000000000012E-002    0.20097710467907579     
   7.9199999999999993E-002    0.16484498176939372     
   7.9500000000000001E-002    0.10868017214320393     
   7.9800000000000010E-002     4.1683559886698099E-002
   8.0100000000000018E-002    -3.4090350707139755E-002
   8.0399999999999999E-002   -0.10871258934408473     
   8.0700000000000008E-002   -0.17965529751067694     
   8.1000000000000003E-002   -0.23775410104089484     
   8.1299999999999997E-002   -0.28148266788718213     
   8.1600000000000006E-002   -0.30430382420547081     
   8.1900000000000014E-002   -0.30658103953221399     
   8.2199999999999995E-002   -0.28519682198922947     
   8.2500000000000004E-002   -0.24319096768526960     
   8.2799999999999999E-002   -0.18142964471819173     
   8.3100000000000007E-002   -0.10490584272891908     
   8.3400000000000002E-002    -1.7618624212381716E-002
   8.3700000000000011E-002     7.4183329512559626E-002
   8.4000000000000005E-002    0.16488687076748046     
   8.4300000000000000E-002    0.24897286333176083     
   8.4599999999999995E-002    0.32075683634846508     
   8.4900000000000003E-002    0.37675661999733823     
   8.5199999999999998E-002    0.41255656016741032     
   8.5500000000000007E-002    0.42727623779909418     
   8.5800000000000001E-002    0.41857807137111780     
   8.6100000000000010E-002    0.38867458157925783     
   8.6399999999999991E-002    0.33666514743589665     
   8.6699999999999999E-002    0.26772362124982868     
   8.7000000000000008E-002    0.18198789411256841     
   8.7300000000000003E-002     8.7188583324519967E-002
   8.7599999999999997E-002    -1.5878657057063143E-002
   8.7900000000000006E-002   -0.11764769463850797     
   8.8200000000000014E-002   -0.21775346257487396     
   8.8499999999999995E-002   -0.30547403485210761     
   8.8800000000000004E-002   -0.38201533463471260     
   8.9100000000000013E-002   -0.43727992253964693     
   8.9399999999999993E-002   -0.47492053582130644     
   8.9700000000000002E-002   -0.48607778939438873     
   9.0000000000000011E-002   -0.47820718606421186     
   9.0299999999999991E-002   -0.44487576230695625     
   9.0600000000000000E-002   -0.39688010129559187     
   9.0900000000000009E-002   -0.32960952691161655     
   9.1200000000000017E-002   -0.25584753220221268     
   9.1499999999999998E-002   -0.17247089268198074     
   9.1800000000000007E-002    -9.2891853685891174E-002
   9.2100000000000001E-002    -1.3563758269404556E-002
   9.2399999999999996E-002     5.3063792615822822E-002
   9.2700000000000005E-002    0.11169583938531333     
   9.3000000000000013E-002    0.15192805978274165     
   9.3300000000000008E-002    0.18019104893212662     
   9.3600000000000003E-002    0.18866998425032150     
   9.3899999999999997E-002    0.18553203646372690     
   9.4200000000000006E-002    0.16575416463283982     
   9.4500000000000001E-002    0.13849887367856367     
   9.4800000000000009E-002    0.10124034630744265     
   9.5100000000000004E-002     6.3719653487593633E-002
   9.5399999999999999E-002     2.5213210345718391E-002
   9.5699999999999993E-002    -5.6264557309649334E-003
   9.6000000000000002E-002    -2.9216133793030438E-002
   9.6300000000000011E-002    -3.8943800479253110E-002
   9.6600000000000005E-002    -3.5890007808988503E-002
   9.6900000000000000E-002    -1.6875728512448975E-002
   9.7200000000000009E-002     1.5954367604510224E-002
   9.7499999999999989E-002     6.1836413189805123E-002
   9.7799999999999998E-002    0.11715020052254241     
   9.8100000000000007E-002    0.17857664742839982     
   9.8400000000000015E-002    0.24222218802029821     
   9.8699999999999996E-002    0.30330638264838894     
   9.9000000000000005E-002    0.35813224189751003     
   9.9300000000000013E-002    0.40213360245600138     
   9.9599999999999994E-002    0.43330031556296694     
   9.9900000000000003E-002    0.44796311591353383     
  0.10020000000000001         0.44588320950896321     
  0.10049999999999999         0.42531552718524779     
  0.10080000000000000         0.38824651983386826     
  0.10110000000000001         0.33438685203872243     
  0.10140000000000000         0.26764062377428344     
  0.10170000000000000         0.18969950630354060     
  0.10200000000000001         0.10628104440143397     
  0.10230000000000002          1.9706089385752881E-002
  0.10260000000000000         -6.3354467992864233E-002
  0.10290000000000001        -0.14095567751277463     
  0.10320000000000000        -0.20622140982515605     
  0.10350000000000001        -0.25915498612305710     
  0.10380000000000000        -0.29422081232384523     
  0.10410000000000001        -0.31479032046240518     
  0.10440000000000001        -0.31663678305124632     
  0.10470000000000000        -0.30622776712675359     
  0.10500000000000000        -0.28116542637263298     
  0.10530000000000000        -0.25028018422162418     
  0.10560000000000000        -0.21121756957016391     
  0.10590000000000001        -0.17360693981630348     
  0.10620000000000000        -0.13448873005938305     
  0.10650000000000001        -0.10294921990111706     
  0.10679999999999999         -7.4828527819681634E-002
  0.10710000000000000         -5.7689357355222633E-002
  0.10740000000000001         -4.6703072502468967E-002
  0.10770000000000000         -4.7532448822638212E-002
  0.10800000000000000         -5.5076332676887677E-002
  0.10830000000000001         -7.3256718436284923E-002
  0.10859999999999999         -9.6910791243439709E-002
  0.10890000000000000        -0.12806009160954818     
  0.10920000000000001        -0.16153717064983408     
  0.10950000000000001        -0.19757924131112753     
  0.10979999999999999        -0.23086551987209614     
  0.11009999999999999        -0.26038655229091012     
  0.11040000000000001        -0.28132788966508065     
  0.11070000000000001        -0.29236523613110837     
  0.11100000000000000        -0.28992563401404237     
  0.11130000000000000        -0.27401076410297265     
  0.11160000000000002        -0.24283165902040915     
  0.11190000000000001        -0.19833100550376029     
  0.11220000000000001        -0.14101336829275629     
  0.11250000000000000         -7.4619121871892624E-002
  0.11280000000000000         -1.3940009198747487E-003
  0.11309999999999999          7.4291604238403600E-002
  0.11340000000000001         0.14932532019037215     
  0.11369999999999998         0.21989620274398000     
  0.11400000000000000         0.28269904152841008     
  0.11430000000000000         0.33558901543786118     
  0.11460000000000002         0.37536720316437444     
  0.11489999999999999         0.40215449090569688     
  0.11520000000000001         0.41283198217847816     
  0.11550000000000001         0.40954729521459304     
  0.11580000000000000         0.38931985124968865     
  0.11609999999999999         0.35696892019379878     
  0.11640000000000002         0.30958092724280040     
  0.11670000000000001         0.25413244793287054     
  0.11700000000000001         0.18843809746761986     
  0.11730000000000000         0.12087672226833754     
  0.11760000000000000          4.9692451155960764E-002
  0.11789999999999999         -1.5898523019288069E-002
  0.11820000000000001         -7.7689606061839736E-002
  0.11850000000000001        -0.12741986702183711     
  0.11880000000000000        -0.16751777770951620     
  0.11910000000000000        -0.19163901876695641     
  0.11940000000000002        -0.20314392137507709     
  0.11970000000000001        -0.19843277185489711     
  0.12000000000000001        -0.18141708487441716     
  0.12030000000000000        -0.15123266620516318     
  0.12060000000000000        -0.11187444322991053     
  0.12089999999999999         -6.4494230014291526E-002
  0.12119999999999999         -1.2661307825761241E-002
  0.12150000000000001          4.0923673175101712E-002
  0.12180000000000001          9.3534444996070221E-002
  0.12210000000000000         0.14153807130292703     
  0.12239999999999999         0.18304666400946337     
  0.12270000000000002         0.21423103529770346     
  0.12300000000000001         0.23452314674314056     
  0.12330000000000001         0.24014718101204724     
  0.12360000000000000         0.23220543225599199     
  0.12390000000000000         0.20848134039738581     
  0.12419999999999999         0.17227456109795392     
  0.12450000000000001         0.12244166867790557     
  0.12480000000000001          6.4181291894603240E-002
  0.12509999999999999         -1.9235459124828571E-003
  0.12540000000000001         -6.9198632853121361E-002
  0.12570000000000003        -0.13709385328449691     
  0.12600000000000000        -0.19830673085154349     
  0.12630000000000002        -0.25314063585788471     
  0.12659999999999999        -0.29465435641037835     
  0.12690000000000001        -0.32519612828403055     
  0.12719999999999998        -0.33877840566936473     
  0.12750000000000000        -0.33982523754409844     
  0.12780000000000002        -0.32403544417605018     
  0.12809999999999999        -0.29751717654055976     
  0.12840000000000001        -0.25714744327173028     
  0.12869999999999998        -0.21102804288632057     
  0.12900000000000000        -0.15661867131183996     
  0.12930000000000003        -0.10286002460290103     
  0.12959999999999999         -4.7662608085574480E-002
  0.12990000000000002          1.0167308558015151E-004
  0.13019999999999998          4.2763487532157973E-002
  0.13050000000000000          7.2778391357464056E-002
  0.13080000000000003          9.3636302807640015E-002
  0.13109999999999999          9.9540184102731258E-002
  0.13140000000000002          9.5690595198842793E-002
  0.13169999999999998          7.8601073905557844E-002
  0.13200000000000001          5.4775732115018974E-002
  0.13229999999999997          2.2365868575915878E-002
  0.13260000000000000         -1.1114947369474756E-002
  0.13290000000000002         -4.6882540024026698E-002
  0.13319999999999999         -7.8391178458281890E-002
  0.13350000000000001        -0.10713580416150664     
  0.13380000000000003        -0.12790468499912483     
  0.13410000000000000        -0.14276981787790322     
  0.13440000000000002        -0.14855325770546343     
  0.13469999999999999        -0.14846876122023905     
  0.13500000000000001        -0.14044050647109185     
  0.13529999999999998        -0.12819119149461553     
  0.13560000000000000        -0.11044919847280715     
  0.13590000000000002         -9.0783549689932477E-002
  0.13619999999999999         -6.8203408898360865E-002
  0.13650000000000001         -4.5761333692109482E-002
  0.13680000000000003         -2.2381464712380394E-002
  0.13710000000000000         -3.9591904000136312E-004
  0.13740000000000002          2.1504655141977570E-002
  0.13769999999999999          4.1391513142850361E-002
  0.13800000000000001          6.1084363690841276E-002
  0.13829999999999998          7.9120200955137845E-002
  0.13860000000000000          9.7385223172301541E-002
  0.13890000000000002         0.11486173859650528     
  0.13919999999999999         0.13285493296065404     
  0.13950000000000001         0.15058672746197091     
  0.13979999999999998         0.16840054529613838     
  0.14010000000000000         0.18549174292699200     
  0.14040000000000002         0.20121180913511874     
  0.14069999999999999         0.21480587957203118     
  0.14100000000000001         0.22445211461346778     
  0.14130000000000004         0.22999867971922933     
  0.14160000000000000         0.22934840560018396     
  0.14189999999999997         0.22361506711014298     
  0.14219999999999999         0.21071562435650520     
  0.14250000000000002         0.19330093745476112     
  0.14279999999999998         0.17007481657420065     
  0.14310000000000000         0.14517022961092196     
  0.14339999999999997         0.11724197380150175     
  0.14369999999999999          9.1410295588957635E-002
  0.14400000000000002          6.6262910500906158E-002
  0.14429999999999998          4.6419078886220280E-002
  0.14460000000000001          2.9778155196075032E-002
  0.14490000000000003          2.0174832264929148E-002
  0.14520000000000000          1.4520299461660797E-002
  0.14550000000000002          1.5668629011528837E-002
  0.14579999999999999          1.9452046217468939E-002
  0.14610000000000001          2.7998958236145281E-002
  0.14640000000000003          3.6784512635493601E-002
  0.14670000000000000          4.7178574124226935E-002
  0.14699999999999996          5.4925724559711842E-002
  0.14729999999999999          6.1255529447085441E-002
  0.14760000000000001          6.2422256995144990E-002
  0.14789999999999998          5.9988376489091048E-002
  0.14820000000000000          5.1468344234053866E-002