  -1.4999999999999999E-002     0.0000000000000000     
  -1.4700000000000000E-002     0.0000000000000000     
  -1.4400000000000000E-002     0.0000000000000000     
  -1.4100000000000000E-002     0.0000000000000000     
  -1.3800000000000000E-002     0.0000000000000000     
  -1.3500000000000000E-002     0.0000000000000000     
  -1.3200000000000000E-002     0.0000000000000000     
  -1.2899999999999998E-002     0.0000000000000000     
  -1.2600000000000000E-002     0.0000000000000000     
  -1.2299999999999998E-002     0.0000000000000000     
  -1.2000000000000000E-002     0.0000000000000000     
  -1.1699999999999999E-002     0.0000000000000000     
  -1.1399999999999999E-002     0.0000000000000000     
  -1.1099999999999999E-002     0.0000000000000000     
  -1.0799999999999999E-002     0.0000000000000000     
  -1.0499999999999999E-002     0.0000000000000000     
  -1.0199999999999999E-002    -3.4612082279792542E-036
  -9.8999999999999991E-003     4.2788501170763127E-036
  -9.5999999999999992E-003     4.0576184395504048E-034
  -9.2999999999999992E-003    -2.3337916454627242E-033
  -8.9999999999999993E-003     7.1291767502142179E-034
  -8.6999999999999994E-003     4.8032558149251577E-032
  -8.3999999999999995E-003    -7.6158766511717111E-032
  -8.0999999999999996E-003    -6.1381500977393022E-031
  -7.7999999999999988E-003     1.4017855021067669E-030
  -7.4999999999999997E-003     5.5126488870033528E-030
  -7.1999999999999998E-003    -1.4968209696747696E-029
  -6.8999999999999981E-003    -3.6072473715377068E-029
  -6.5999999999999982E-003     7.7936964075429115E-029
  -6.3000000000000000E-003     3.6372874453014326E-028
  -6.0000000000000001E-003    -7.2376134003412398E-028
  -5.6999999999999985E-003    -1.6126595707687404E-027
  -5.3999999999999986E-003     2.5416675085893278E-027
  -5.1000000000000004E-003     6.6266095744956108E-027
  -4.7999999999999987E-003     1.2147383096332067E-026
  -4.5000000000000005E-003    -1.1007033481777586E-025
  -4.1999999999999989E-003     1.4175055067382893E-025
  -3.8999999999999990E-003     6.7295994123645123E-027
  -3.5999999999999990E-003    -1.8703095012408170E-026
  -3.2999999999999991E-003     8.1248844057398630E-025
  -2.9999999999999992E-003    -4.7079324987097726E-024
  -2.6999999999999993E-003     8.6211985541218367E-024
  -2.3999999999999994E-003    -6.8978696416920074E-024
  -2.0999999999999977E-003    -5.3885127629141322E-026
  -1.7999999999999995E-003     4.1369945165601524E-023
  -1.4999999999999979E-003    -1.4694412643636107E-022
  -1.1999999999999997E-003     1.6259182404605008E-022
  -8.9999999999999976E-004     7.5095554122695855E-023
  -5.9999999999999810E-004    -3.0903849061189125E-022
  -2.9999999999999992E-004     5.0436708661290779E-022
   0.0000000000000000         -8.9353281850604693E-022
   3.0000000000000165E-004     1.7036998197661111E-022
   5.9999999999999984E-004     1.3694167641630586E-021
   9.0000000000000149E-004     3.7277080013279468E-022
   1.2000000000000031E-003    -9.3629992251155554E-022
   1.5000000000000013E-003    -5.9124888001470746E-021
   1.8000000000000030E-003     5.8722421371202537E-021
   2.1000000000000012E-003    -7.7259974203847279E-021
   2.3999999999999994E-003     2.2780917027961242E-020
   2.7000000000000010E-003     5.8495669408322118E-020
   2.9999999999999992E-003    -1.9009219790186098E-019
   3.3000000000000008E-003    -5.1264989842476136E-020
   3.6000000000000025E-003     5.5712702492400437E-019
   3.9000000000000007E-003    -3.8679347845371607E-019
   4.2000000000000023E-003    -8.7549094455670609E-019
   4.5000000000000005E-003     2.3299074808315328E-018
   4.7999999999999987E-003    -3.1498017449347710E-019
   5.1000000000000004E-003    -7.4545812096978859E-018
   5.4000000000000020E-003     6.9946886349253075E-018
   5.7000000000000037E-003     1.5580044850862176E-017
   5.9999999999999984E-003    -2.5618776293269951E-017
   6.3000000000000000E-003    -1.8622936059602091E-017
   6.6000000000000017E-003     6.2599610167154775E-017
   6.9000000000000034E-003    -8.5920159151140785E-018
   7.2000000000000015E-003    -1.1817993377328330E-016
   7.5000000000000032E-003     1.0924377474833166E-016
   7.8000000000000014E-003     1.8079413312271358E-016
   8.0999999999999996E-003    -3.1416803124917889E-016
   8.4000000000000012E-003    -2.3709055122265697E-016
   8.7000000000000029E-003     5.8981885676520348E-016
   9.0000000000000011E-003     2.8497467822314275E-016
   9.2999999999999992E-003    -8.3658512935871204E-016
   9.6000000000000009E-003    -2.8102945938041243E-016
   9.8999999999999991E-003     9.6834458637963513E-016
   1.0200000000000001E-002     8.6834309663419132E-017
   1.0500000000000002E-002    -8.7157157322324572E-016
   1.0800000000000004E-002    -1.0132380310530492E-016
   1.1099999999999999E-002     9.3870362381711940E-017
   1.1400000000000000E-002     3.9319277867652021E-015
   1.1700000000000002E-002     1.2282125770049766E-015
   1.2000000000000004E-002    -2.2683860459756365E-014
   1.2300000000000002E-002     4.5717127269129496E-015
   1.2600000000000000E-002     7.3308867224147406E-014
   1.2900000000000002E-002    -4.9574854138000039E-014
   1.3200000000000000E-002    -1.5496261133564865E-013
   1.3500000000000002E-002     2.0552034420371635E-013
   1.3800000000000003E-002     1.9448251846581836E-013
   1.4100000000000001E-002    -5.5399860054412456E-013
   1.4400000000000000E-002     3.2376263302445966E-015
   1.4700000000000001E-002     1.0515933456461703E-012
   1.4999999999999999E-002    -6.7852215923571241E-013
   1.5300000000000001E-002    -1.3158948906372448E-012
   1.5600000000000003E-002     1.7206556372308724E-012
   1.5899999999999997E-002     6.6930398800210587E-013
   1.6199999999999999E-002    -1.9057421965572965E-012
   1.6500000000000001E-002     7.3676420714600815E-013
   1.6800000000000002E-002    -1.5077655653378592E-012
   1.7100000000000004E-002     1.0266820214437690E-012
   1.7400000000000006E-002     1.0567290655227882E-011
   1.7700000000000000E-002    -1.6767394771865283E-011
   1.8000000000000002E-002    -1.8363844330210324E-011
   1.8300000000000004E-002     5.8431561664100987E-011
   1.8600000000000005E-002    -8.3032171692325169E-012
   1.8900000000000000E-002    -9.6058051982618068E-011
   1.9200000000000002E-002     1.6710800978716189E-010
   1.9500000000000003E-002    -1.1984750376613323E-010
   1.9799999999999998E-002    -7.9011056040856993E-010
   2.0100000000000000E-002     1.7313942579742646E-009
   2.0400000000000001E-002     3.5437049414947838E-009
   2.0700000000000003E-002    -9.0084698084353773E-009
   2.0999999999999998E-002    -1.8603179871408420E-008
   2.1299999999999999E-002     3.0451397193175760E-008
   2.1600000000000001E-002     8.9971090894915549E-008
   2.1900000000000003E-002    -7.6995847588607110E-008
   2.2200000000000004E-002    -4.3367930339728737E-007
   2.2500000000000006E-002     1.6799256757442217E-007
   2.2800000000000001E-002     3.8297096757801093E-006
   2.3100000000000002E-002     1.1584314592225194E-005
   2.3400000000000004E-002     2.1503254824447551E-005
   2.3699999999999999E-002     3.0351241381254145E-005
   2.4000000000000000E-002     3.8404349844479673E-005
   2.4300000000000002E-002     5.1777022259854024E-005
   2.4599999999999997E-002     7.8204527283833782E-005
   2.4900000000000005E-002     1.2080721020577249E-004
   2.5200000000000000E-002     1.7842285716640886E-004
   2.5499999999999995E-002     2.5311593425598837E-004
   2.5800000000000003E-002     3.5523327537649650E-004
   2.6099999999999998E-002     4.9879758633155757E-004
   2.6400000000000007E-002     6.9217805210769403E-004
   2.6700000000000002E-002     9.3384480072754446E-004
   2.6999999999999996E-002     1.2160543504047300E-003
   2.7300000000000005E-002     1.5311486103207327E-003
   2.7600000000000000E-002     1.8719550580411205E-003
   2.7900000000000008E-002     2.2180055505006875E-003
   2.8200000000000003E-002     2.5105479492928840E-003
   2.8499999999999998E-002     2.6350397019658349E-003
   2.8800000000000006E-002     2.4227337682091450E-003
   2.9100000000000001E-002     1.6550395366259870E-003
   2.9400000000000003E-002     4.8886056078365332E-005
   2.9700000000000004E-002    -2.7671166358850894E-003
   3.0000000000000006E-002    -7.2584857927330765E-003
   3.0300000000000001E-002    -1.3969128497441887E-002
   3.0600000000000002E-002    -2.3503052859124050E-002
   3.0900000000000004E-002    -3.6507626341528820E-002
   3.1199999999999999E-002    -5.3635870935535922E-002
   3.1500000000000007E-002    -7.5463766830897089E-002
   3.1800000000000002E-002   -0.10237332765592197     
   3.2099999999999997E-002   -0.13443610506050335     
   3.2400000000000005E-002   -0.17130730106561698     
   3.2700000000000000E-002   -0.21210039340911144     
   3.3000000000000002E-002   -0.25525764445495153     
   3.3300000000000003E-002   -0.29842905159748589     
   3.3599999999999998E-002   -0.33841032863731696     
   3.3900000000000000E-002   -0.37114746553777977     
   3.4200000000000001E-002   -0.39179660128473465     
   3.4500000000000003E-002   -0.39492831882203272     
   3.4799999999999998E-002   -0.37482113831762004     
   3.5099999999999999E-002   -0.32587877950717237     
   3.5400000000000001E-002   -0.24304919724554624     
   3.5699999999999996E-002   -0.12243914270315680     
   3.6000000000000004E-002     3.8186789361285230E-002
   3.6299999999999999E-002    0.23866232429724332     
   3.6600000000000008E-002    0.47609020692685816     
   3.6900000000000002E-002    0.74433412395026144     
   3.7199999999999997E-002     1.0340142560756629     
   3.7500000000000006E-002     1.3324395819294175     
   3.7800000000000000E-002     1.6241399539508157     
   3.8100000000000009E-002     1.8913983677594037     
   3.8400000000000004E-002     2.1153197928001410     
   3.8699999999999998E-002     2.2768543456004133     
   3.9000000000000007E-002     2.3582571268441934     
   3.9300000000000002E-002     2.3445385216136181     
   3.9600000000000003E-002     2.2246876443044692     
   3.9900000000000005E-002     1.9929128306514370     
   4.0200000000000000E-002     1.6495187795739048     
   4.0500000000000001E-002     1.2013638401056168     
   4.0800000000000003E-002    0.66195406752453290     
   4.1100000000000005E-002     5.0817594273562652E-002
   4.1399999999999999E-002   -0.60715086821139674     
   4.1700000000000008E-002    -1.2833644510291353     
   4.2000000000000003E-002    -1.9467604718915974     
   4.2299999999999997E-002    -2.5660677703626718     
   4.2600000000000006E-002    -3.1111055335263953     
   4.2900000000000001E-002    -3.5550209145015632     
   4.3200000000000002E-002    -3.8755346500086110     
   4.3500000000000004E-002    -4.0561677241389722     
   4.3799999999999999E-002    -4.0872107783953071     
   4.4100000000000000E-002    -3.9657660731226554     
   4.4400000000000002E-002    -3.6963735751295714     
   4.4700000000000004E-002    -3.2898484280806404     
   4.4999999999999998E-002    -2.7638483895440586     
   4.5300000000000000E-002    -2.1406117144420116     
   4.5600000000000002E-002    -1.4474143237944741     
   4.5899999999999996E-002   -0.71403767903647641     
   4.6200000000000005E-002     2.7237512701028976E-002
   4.6500000000000000E-002    0.74389495735275535     
   4.6799999999999994E-002     1.4040556384669447     
   4.7100000000000003E-002     1.9782897841377849     
   4.7399999999999998E-002     2.4408682141896199     
   4.7700000000000006E-002     2.7706690682045325     
   4.8000000000000001E-002     2.9536176628383406     
   4.8300000000000010E-002     2.9819491811439987     
   4.8600000000000004E-002     2.8570717237800536     
   4.8899999999999999E-002     2.5873261260997236     
   4.9200000000000008E-002     2.1905670797524350     
   4.9500000000000002E-002     1.6906292904151143     
   4.9800000000000011E-002     1.1187064927904591     
   5.0100000000000006E-002    0.50965017907006938     
   5.0400000000000000E-002    -9.8257582543077773E-002
   5.0700000000000009E-002   -0.66727408691173495     
   5.1000000000000004E-002    -1.1612432445600878     
   5.1299999999999998E-002    -1.5488608441070109     
   5.1600000000000007E-002    -1.8053196104491869     
   5.1900000000000002E-002    -1.9139145067283807     
   5.2200000000000010E-002    -1.8681231159697220     
   5.2500000000000005E-002    -1.6708118253550537     
   5.2800000000000000E-002    -1.3364984199262606     
   5.3099999999999994E-002   -0.88811268772838514     
   5.3400000000000003E-002   -0.35804790709550394     
   5.3699999999999998E-002    0.21604561906911907     
   5.4000000000000006E-002    0.79131636619704926     
   5.4300000000000001E-002     1.3246774021115775     
   5.4599999999999996E-002     1.7737594337975995     
   5.4900000000000004E-002     2.1017807319905617     
   5.5199999999999999E-002     2.2785893323353044     
   5.5499999999999994E-002     2.2839425431841058     
   5.5800000000000002E-002     2.1086936740370867     
   5.6099999999999997E-002     1.7556599981287240     
   5.6400000000000006E-002     1.2402985504644912     
   5.6700000000000000E-002    0.58854504128054741     
   5.6999999999999995E-002   -0.16268963610318443     
   5.7300000000000004E-002   -0.96994368088924632     
   5.7599999999999998E-002    -1.7837674085660244     
   5.7900000000000007E-002    -2.5540381395770595     
   5.8200000000000002E-002    -3.2306142988289457     
   5.8499999999999996E-002    -3.7686427940110345     
   5.8800000000000005E-002    -4.1291820018258445     
   5.9100000000000000E-002    -4.2832943435085795     
   5.9400000000000008E-002    -4.2121025506606067     
   5.9700000000000003E-002    -3.9089835936683679     
   6.0000000000000012E-002    -3.3794418427038204     
   6.0300000000000006E-002    -2.6408625428627954     
   6.0600000000000001E-002    -1.7223611339999128     
   6.0900000000000010E-002   -0.66217906324151343     
   6.1200000000000004E-002    0.49259504431354073     
   6.1500000000000013E-002     1.6904735031228426     
   6.1800000000000008E-002     2.8758290841059986     
   6.2100000000000002E-002     3.9943765578506687     
   6.2399999999999997E-002     4.9937097305145040     
   6.2700000000000006E-002     5.8285963052443774     
   6.3000000000000000E-002     6.4618312999616032     
   6.3300000000000009E-002     6.8674151681484439     
   6.3600000000000004E-002     7.0317337319061686     
   6.3899999999999998E-002     6.9539177171168722     
   6.4199999999999993E-002     6.6460044018114237     
   6.4500000000000002E-002     6.1311461378459349     
   6.4800000000000010E-002     5.4424306571357892     
   6.5100000000000005E-002     4.6189533622405969     
   6.5400000000000000E-002     3.7044616799741465     
   6.5700000000000008E-002     2.7421794691231067     
   6.5999999999999989E-002     1.7741305091729345     
   6.6299999999999998E-002    0.83697165746915470     
   6.6600000000000006E-002    -3.8855622002752707E-002
   6.6900000000000001E-002   -0.83043989931501061     
   6.7199999999999996E-002    -1.5220790455273061     
   6.7500000000000004E-002    -2.1052613980561024     
   6.7800000000000013E-002    -2.5773228079086143     
   6.8099999999999994E-002    -2.9405742664744188     
   6.8400000000000002E-002    -3.2002616979117948     
   6.8700000000000011E-002    -3.3643339778314392     
   6.8999999999999992E-002    -3.4418598339692874     
   6.9300000000000000E-002    -3.4427841823427943     
   6.9600000000000009E-002    -3.3774393693053875     
   6.9900000000000004E-002    -3.2565938086130348     
   7.0199999999999999E-002    -3.0916367561862810     
   7.0500000000000007E-002    -2.8947974166817767     
   7.0800000000000016E-002    -2.6784287337285124     
   7.1099999999999997E-002    -2.4558614061317718     
   7.1400000000000005E-002    -2.2391956535341833     
   7.1700000000000000E-002    -2.0412271637065009     
   7.1999999999999995E-002    -1.8714311674807484     
   7.2300000000000003E-002    -1.7390388756476147     
   7.2600000000000012E-002    -1.6481262915430439     
   7.2900000000000006E-002    -1.6009241795669005     
   7.3200000000000001E-002    -1.5940705983974071     
   7.3499999999999996E-002    -1.6224168993682073     
   7.3800000000000004E-002    -1.6750468484258061     
   7.4099999999999999E-002    -1.7395319236433235     
   7.4400000000000008E-002    -1.7995481999427896     
   7.4700000000000003E-002    -1.8380382583608734     
   7.5000000000000011E-002    -1.8362017202119556     
   7.5299999999999992E-002    -1.7759914907826653     
   7.5600000000000001E-002    -1.6403650518834034     
   7.5900000000000009E-002    -1.4147124701159486     
   7.6200000000000004E-002    -1.0881636462871218     
   7.6499999999999999E-002   -0.65503426398879938     
   7.6800000000000007E-002   -0.11659937107109708     
   7.7099999999999988E-002    0.51752896361796108     
   7.7399999999999997E-002     1.2280785164452648     
   7.7700000000000005E-002     1.9846743868629713     
   7.8000000000000014E-002     2.7464595568868972     
   7.8299999999999995E-002     3.4610179386152349     
   7.8600000000000003E-002     4.0679741980530579     
   7.8900000000000012E-002     4.4998179665747786     
   7.9199999999999993E-002     4.6893993656106403     
   7.9500000000000001E-002     4.5727235086479503     
   7.9800000000000010E-002     4.0996452460487998     
   8.0100000000000018E-002     3.2387464916624404     
   8.0399999999999999E-002     1.9874863002328704     
   8.0700000000000008E-002    0.37746762133145245     
   8.1000000000000003E-002    -1.5197369111419960     
   8.1299999999999997E-002    -3.5929938085537709     
   8.1600000000000006E-002    -5.6919995544103950     
   8.1900000000000014E-002    -7.6363054931900232     
   8.2199999999999995E-002    -9.2275478397817281     
   8.2500000000000004E-002    -10.265045379966260     
   8.2799999999999999E-002    -10.567110278686849     
   8.3100000000000007E-002    -9.9888641452585656     
   8.3400000000000002E-002    -8.4463559824766055     
   8.3700000000000011E-002    -5.9303442091130547     
   8.4000000000000005E-002    -2.5200770180462202     
   8.4300000000000000E-002     1.6156221067988530     
   8.4599999999999995E-002     6.2206508353831218     
   8.4900000000000003E-002     10.968931461453353     
   8.5199999999999998E-002     15.484220861927826     
   8.5500000000000007E-002     19.374023873545561     
   8.5800000000000001E-002     22.260302081824669     
   8.6100000000000010E-002     23.817150634087714     
   8.6399999999999991E-002     23.802504095687478     
   8.6699999999999999E-002     22.084467398894493     
   8.7000000000000008E-002     18.659922028910149     
   8.7300000000000003E-002     13.659328727892735     
   8.7599999999999997E-002     7.3425837802182699     
   8.7900000000000006E-002     7.9185386535716232E-002
   8.8200000000000014E-002    -7.6767117721696803     
   8.8499999999999995E-002    -15.425757793953847     
   8.8800000000000004E-002    -22.657742092906684     
   8.9100000000000013E-002    -28.898014753994520     
   8.9399999999999993E-002    -33.735684233440367     
   8.9700000000000002E-002    -36.863499549848306     
   9.0000000000000011E-002    -38.087040835562171     
   9.0299999999999991E-002    -37.346508897029075     
   9.0600000000000000E-002    -34.703312729235222     
   9.0900000000000009E-002    -30.342264884371701     
   9.1200000000000017E-002    -24.537104226550941     
   9.1499999999999998E-002    -17.640234407123216     
   9.1800000000000007E-002    -10.038358922864026     
   9.2100000000000001E-002    -2.1392636785715879     
   9.2399999999999996E-002     5.6717230270683299     
   9.2700000000000005E-002     13.039420442441401     
   9.3000000000000013E-002     19.669451235447543     
   9.3300000000000008E-002     25.328558582184080     
   9.3600000000000003E-002     29.857590448149974     
   9.3899999999999997E-002     33.166710709817529     
   9.4200000000000006E-002     35.232247262406318     
   9.4500000000000001E-002     36.086644106829588     
   9.4800000000000009E-002     35.808762480639523     
   9.5100000000000004E-002     34.513501068878604     
   9.5399999999999999E-002     32.336396067612370     
   9.5699999999999993E-002     29.427250642915595     
   9.6000000000000002E-002     25.938288384904823     
   9.6300000000000011E-002     22.018024998682666     
   9.6600000000000005E-002     17.806765053645307     
   9.6900000000000000E-002     13.429289206756001     
   9.7200000000000009E-002     9.0003426027544755     
   9.7499999999999989E-002     4.6140557576819701     
   9.7799999999999998E-002    0.35873122947683950     
   9.8100000000000007E-002    -3.6967087618424581     
   9.8400000000000015E-002    -7.4855448577470032     
   9.8699999999999996E-002    -10.956890369893021     
   9.9000000000000005E-002    -14.058216435683795     
   9.9300000000000013E-002    -16.750626019507433     
   9.9599999999999994E-002    -18.994076240453563     
   9.9900000000000003E-002    -20.763325248758900     
  0.10020000000000001         -22.035582133037003     
  0.10049999999999999         -22.803997605583533     
  0.10080000000000000         -23.072226145713216     
  0.10110000000000001         -22.859303093424238     
  0.10140000000000000         -22.198103510970391     
  0.10170000000000000         -21.135294497111854     
  0.10200000000000001         -19.730789690299506     
  0.10230000000000002         -18.048740853507038     
  0.10260000000000000         -16.163458293761678     
  0.10290000000000001         -14.142613785659393     
  0.10320000000000000         -12.055558529571911     
  0.10350000000000001         -9.9583695279883901     
  0.10380000000000000         -7.9000475241464390     
  0.10410000000000001         -5.9131604951980412     
  0.10440000000000001         -4.0199066430076105     
  0.10470000000000000         -2.2292156967300021     
  0.10500000000000000        -0.54134175156965436     
  0.10530000000000000          1.0517164607958727     
  0.10560000000000000          2.5609694077157474     
  0.10590000000000001          3.9997240065330941     
  0.10620000000000000          5.3745061294008618     
  0.10650000000000001          6.6912500168677589     
  0.10679999999999999          7.9444434290214563     
  0.10710000000000000          9.1264984581476476     
  0.10740000000000001          10.216209675767942     
  0.10770000000000000          11.192309670310141     
  0.10800000000000000          12.019988371296241     
  0.10830000000000001          12.673024506511668     
  0.10859999999999999          13.115133624497714     
  0.10890000000000000          13.321784364250686     
  0.10920000000000001          13.266420706330935     
  0.10950000000000001          12.941817617895058     
  0.10979999999999999          12.340827305827688     
  0.11009999999999999          11.479991255999083     
  0.11040000000000001          10.376790314338830     
  0.11070000000000001          9.0743257978752947     
  0.11100000000000000          7.6131703452536001     
  0.11130000000000000          6.0551954924969680     
  0.11160000000000002          4.4531141523259361     
  0.11190000000000001          2.8759175161668153     
  0.11220000000000001          1.3741530607147525     
  0.11250000000000000          5.7584662437937589E-003
  0.11280000000000000         -1.1932075244104712     
  0.11309999999999999         -2.1891451349964113     
  0.11340000000000001         -2.9701154911197940     
  0.11369999999999998         -3.5317374103064103     
  0.11400000000000000         -3.8887828328077525     
  0.11430000000000000         -4.0636755025982705     
  0.11460000000000002         -4.0904789981611138     
  0.11489999999999999         -4.0086961799835663     
  0.11520000000000001         -3.8608008415963169     
  0.11550000000000001         -3.6904746057259623     
  0.11580000000000000         -3.5366919971333779     
  0.11609999999999999         -3.4336386642363914     
  0.11640000000000002         -3.4059494459506761     
  0.11670000000000001         -3.4681640610517745     
  0.11700000000000001         -3.6253856212566480     
  0.11730000000000000         -3.8691269012487322     
  0.11760000000000000         -4.1827632122836675     
  0.11789999999999999         -4.5370484606503139     
  0.11820000000000001         -4.8972765311960798     
  0.11850000000000001         -5.2227159915764005     
  0.11880000000000000         -5.4712482923806522     
  0.11910000000000000         -5.6015664597854480     
  0.11940000000000002         -5.5791760927580114     
  0.11970000000000001         -5.3767334412967651     
  0.12000000000000001         -4.9787989941218642     
  0.12030000000000000         -4.3847976860831928     
  0.12060000000000000         -3.6083031637920526     
  0.12089999999999999         -2.6794763321987172     
  0.12119999999999999         -1.6398804642999658     
  0.12150000000000001        -0.54418053146372147     
  0.12180000000000001         0.54757858117790870     
  0.12210000000000000          1.5725133747775395     
  0.12239999999999999          2.4718750078880176     
  0.12270000000000002          3.1932779096882573     
  0.12300000000000001          3.7003508491521084     
  0.12330000000000001          3.9708350661477576     
  0.12360000000000000          4.0036474262338588     
  0.12390000000000000          3.8133870131163636     
  0.12419999999999999          3.4362252652662173     
  0.12450000000000001          2.9187012503329477     
  0.12480000000000001          2.3203824226493244     
  0.12509999999999999          1.7021534961812321     
  0.12540000000000001          1.1266333252316347     
  0.12570000000000003         0.64541867067537595     
  0.12600000000000000         0.30255253917474334     
  0.12630000000000002         0.12368856824937480     
  0.12659999999999999         0.11936909257536135     
  0.12690000000000001         0.28092504749558123     
  0.12719999999999998         0.58755661825662853     
  0.12750000000000000          1.0023890989513873     
  0.12780000000000002          1.4820664288415666     
  0.12809999999999999          1.9756341444907923     
  0.12840000000000001          2.4361761191088509     
  0.12869999999999998          2.8171780773000812     
  0.12900000000000000          3.0822349331243419     
  0.12930000000000003          3.2024093447137210     
  0.12959999999999999          3.1625495733702964     
  0.12990000000000002          2.9568787360501951     
  0.13019999999999998          2.5925906368553666     
  0.13050000000000000          2.0868287639228162     
  0.13080000000000003          1.4648645332067272     
  0.13109999999999999         0.75958379548664234     
  0.13140000000000002          6.3299742419968648E-003
  0.13169999999999998        -0.75339509352845990     
  0.13200000000000001         -1.4823315461686124     
  0.13229999999999997         -2.1407614239786894     
  0.13260000000000000         -2.6960185211143282     
  0.13290000000000002         -3.1171372687804930     
  0.13319999999999999         -3.3841815826937145     
  0.13350000000000001         -3.4816552076415248     
  0.13380000000000003         -3.4062834648113776     
  0.13410000000000000         -3.1618765212465707     
  0.13440000000000002         -2.7639444596918707     
  0.13469999999999999         -2.2359305026548633     
  0.13500000000000001         -1.6098773926806327     
  0.13529999999999998        -0.92324605395658910     
  0.13560000000000000        -0.21729437537398377     
  0.13590000000000002         0.46448004922466168     
  0.13619999999999999          1.0816494455819197     
  0.13650000000000001          1.5969858531014358     
  0.13680000000000003          1.9812123051184791     
  0.13710000000000000          2.2106874519957205     
  0.13740000000000002          2.2769408786591896     
  0.13769999999999999          2.1770732942816236     
  0.13800000000000001          1.9232398761580949     
  0.13829999999999998          1.5324697887880359     
  0.13860000000000000          1.0366609376947398     
  0.13890000000000002         0.46685261878553125     
  0.13919999999999999        -0.13508300574723331     
  0.13950000000000001        -0.73314835308299919     
  0.13979999999999998         -1.2844835822214045     
  0.14010000000000000         -1.7583551838951097     
  0.14040000000000002         -2.1213417576091333     
  0.14069999999999999         -2.3557975887791072     
  0.14100000000000001         -2.4453426025580294     
  0.14130000000000004         -2.3902226111904565     
  0.14160000000000000         -2.1927629084047093     
  0.14189999999999997         -1.8707932730560866     
  0.14219999999999999         -1.4446353108187420     
  0.14250000000000002        -0.94613715700489476     
  0.14279999999999998        -0.40583599900863992     
  0.14310000000000000         0.13877996884198010     
  0.14339999999999997         0.65360583302729136     
  0.14369999999999999          1.1062410139489816     
  0.14400000000000002          1.4689132332971928     
  0.14429999999999998          1.7216561272110835     
  0.14460000000000001          1.8505037298587705     
  0.14490000000000003          1.8538650755008803     
  0.14520000000000000          1.7350725388649633     
  0.14550000000000002          1.5102481057235513     
  0.14579999999999999          1.1988424390934911     
  0.14610000000000001         0.82906826765458641     
  0.14640000000000003         0.42914794269481554     
  0.14670000000000000          3.1420953515788816E-002
  0.14699999999999996        -0.33545366539750981     
  0.14729999999999999        -0.64461018116687263     
  0.14760000000000001        -0.87543596944158020     
  0.14789999999999998         -1.0152743119724392     
  0.14820000000000000         -1.0552300486865329     