  -1.4999999999999999E-002     0.0000000000000000     
  -1.4700000000000000E-002     0.0000000000000000     
  -1.4400000000000000E-002     0.0000000000000000     
  -1.4100000000000000E-002     0.0000000000000000     
  -1.3800000000000000E-002     0.0000000000000000     
  -1.3500000000000000E-002     0.0000000000000000     
  -1.3200000000000000E-002     0.0000000000000000     
  -1.2899999999999998E-002     0.0000000000000000     
  -1.2600000000000000E-002     0.0000000000000000     
  -1.2299999999999998E-002     0.0000000000000000     
  -1.2000000000000000E-002     0.0000000000000000     
  -1.1699999999999999E-002     0.0000000000000000     
  -1.1399999999999999E-002     0.0000000000000000     
  -1.1099999999999999E-002     0.0000000000000000     
  -1.0799999999999999E-002     0.0000000000000000     
  -1.0499999999999999E-002     0.0000000000000000     
  -1.0199999999999999E-002     0.0000000000000000     
  -9.8999999999999991E-003     0.0000000000000000     
  -9.5999999999999992E-003     0.0000000000000000     
  -9.2999999999999992E-003     0.0000000000000000     
  -8.9999999999999993E-003     0.0000000000000000     
  -8.6999999999999994E-003     0.0000000000000000     
  -8.3999999999999995E-003     0.0000000000000000     
  -8.0999999999999996E-003     0.0000000000000000     
  -7.7999999999999988E-003     0.0000000000000000     
  -7.4999999999999997E-003     0.0000000000000000     
  -7.1999999999999998E-003     0.0000000000000000     
  -6.8999999999999981E-003     0.0000000000000000     
  -6.5999999999999982E-003     0.0000000000000000     
  -6.3000000000000000E-003     0.0000000000000000     
  -6.0000000000000001E-003     0.0000000000000000     
  -5.6999999999999985E-003     0.0000000000000000     
  -5.3999999999999986E-003     0.0000000000000000     
  -5.1000000000000004E-003     0.0000000000000000     
  -4.7999999999999987E-003     0.0000000000000000     
  -4.5000000000000005E-003     0.0000000000000000     
  -4.1999999999999989E-003     0.0000000000000000     
  -3.8999999999999990E-003     0.0000000000000000     
  -3.5999999999999990E-003     0.0000000000000000     
  -3.2999999999999991E-003     0.0000000000000000     
  -2.9999999999999992E-003     0.0000000000000000     
  -2.6999999999999993E-003     0.0000000000000000     
  -2.3999999999999994E-003     0.0000000000000000     
  -2.0999999999999977E-003     0.0000000000000000     
  -1.7999999999999995E-003     0.0000000000000000     
  -1.4999999999999979E-003     0.0000000000000000     
  -1.1999999999999997E-003     0.0000000000000000     
  -8.9999999999999976E-004     0.0000000000000000     
  -5.9999999999999810E-004     0.0000000000000000     
  -2.9999999999999992E-004     0.0000000000000000     
   0.0000000000000000          0.0000000000000000     
   3.0000000000000165E-004     0.0000000000000000     
   5.9999999999999984E-004     0.0000000000000000     
   9.0000000000000149E-004     0.0000000000000000     
   1.2000000000000031E-003     0.0000000000000000     
   1.5000000000000013E-003     0.0000000000000000     
   1.8000000000000030E-003     0.0000000000000000     
   2.1000000000000012E-003     0.0000000000000000     
   2.3999999999999994E-003     0.0000000000000000     
   2.7000000000000010E-003     0.0000000000000000     
   2.9999999999999992E-003     0.0000000000000000     
   3.3000000000000008E-003     0.0000000000000000     
   3.6000000000000025E-003     0.0000000000000000     
   3.9000000000000007E-003     0.0000000000000000     
   4.2000000000000023E-003     0.0000000000000000     
   4.5000000000000005E-003     0.0000000000000000     
   4.7999999999999987E-003     0.0000000000000000     
   5.1000000000000004E-003     0.0000000000000000     
   5.4000000000000020E-003     0.0000000000000000     
   5.7000000000000037E-003     0.0000000000000000     
   5.9999999999999984E-003     0.0000000000000000     
   6.3000000000000000E-003     0.0000000000000000     
   6.6000000000000017E-003     0.0000000000000000     
   6.9000000000000034E-003     0.0000000000000000     
   7.2000000000000015E-003     0.0000000000000000     
   7.5000000000000032E-003     0.0000000000000000     
   7.8000000000000014E-003     0.0000000000000000     
   8.0999999999999996E-003     0.0000000000000000     
   8.4000000000000012E-003     0.0000000000000000     
   8.7000000000000029E-003     0.0000000000000000     
   9.0000000000000011E-003     0.0000000000000000     
   9.2999999999999992E-003     0.0000000000000000     
   9.6000000000000009E-003     0.0000000000000000     
   9.8999999999999991E-003     0.0000000000000000     
   1.0200000000000001E-002     0.0000000000000000     
   1.0500000000000002E-002     0.0000000000000000     
   1.0800000000000004E-002     0.0000000000000000     
   1.1099999999999999E-002     0.0000000000000000     
   1.1400000000000000E-002     0.0000000000000000     
   1.1700000000000002E-002     0.0000000000000000     
   1.2000000000000004E-002     0.0000000000000000     
   1.2300000000000002E-002     0.0000000000000000     
   1.2600000000000000E-002     0.0000000000000000     
   1.2900000000000002E-002     0.0000000000000000     
   1.3200000000000000E-002     0.0000000000000000     
   1.3500000000000002E-002     0.0000000000000000     
   1.3800000000000003E-002     0.0000000000000000     
   1.4100000000000001E-002     0.0000000000000000     
   1.4400000000000000E-002     0.0000000000000000     
   1.4700000000000001E-002     0.0000000000000000     
   1.4999999999999999E-002     0.0000000000000000     
   1.5300000000000001E-002     0.0000000000000000     
   1.5600000000000003E-002     0.0000000000000000     
   1.5899999999999997E-002     0.0000000000000000     
   1.6199999999999999E-002     0.0000000000000000     
   1.6500000000000001E-002     0.0000000000000000     
   1.6800000000000002E-002     0.0000000000000000     
   1.7100000000000004E-002     0.0000000000000000     
   1.7400000000000006E-002     0.0000000000000000     
   1.7700000000000000E-002     0.0000000000000000     
   1.8000000000000002E-002     0.0000000000000000     
   1.8300000000000004E-002     0.0000000000000000     
   1.8600000000000005E-002     0.0000000000000000     
   1.8900000000000000E-002     0.0000000000000000     
   1.9200000000000002E-002     0.0000000000000000     
   1.9500000000000003E-002     0.0000000000000000     
   1.9799999999999998E-002     0.0000000000000000     
   2.0100000000000000E-002     0.0000000000000000     
   2.0400000000000001E-002     0.0000000000000000     
   2.0700000000000003E-002     0.0000000000000000     
   2.0999999999999998E-002     0.0000000000000000     
   2.1299999999999999E-002     0.0000000000000000     
   2.1600000000000001E-002     0.0000000000000000     
   2.1900000000000003E-002     0.0000000000000000     
   2.2200000000000004E-002     0.0000000000000000     
   2.2500000000000006E-002     0.0000000000000000     
   2.2800000000000001E-002     0.0000000000000000     
   2.3100000000000002E-002     0.0000000000000000     
   2.3400000000000004E-002     0.0000000000000000     
   2.3699999999999999E-002     0.0000000000000000     
   2.4000000000000000E-002     0.0000000000000000     
   2.4300000000000002E-002     0.0000000000000000     
   2.4599999999999997E-002     0.0000000000000000     
   2.4900000000000005E-002     0.0000000000000000     
   2.5200000000000000E-002     0.0000000000000000     
   2.5499999999999995E-002     0.0000000000000000     
   2.5800000000000003E-002     0.0000000000000000     
   2.6099999999999998E-002    -1.5746127744183403E-044
   2.6400000000000007E-002    -3.1992085766302030E-044
   2.6700000000000002E-002    -9.6286081621871757E-039
   2.6999999999999996E-002    -3.1477526908429324E-038
   2.7300000000000005E-002    -1.3775663619172125E-036
   2.7600000000000000E-002    -9.5465152285387682E-036
   2.7900000000000008E-002    -1.1959770441981535E-034
   2.8200000000000003E-002     2.9538879698873059E-034
   2.8499999999999998E-002     2.8462593133598656E-035
   2.8800000000000006E-002    -1.0681227266417974E-032
   2.9100000000000001E-002     6.3954883435500928E-032
   2.9400000000000003E-002    -2.1274636012086054E-031
   2.9700000000000004E-002     3.3515555270814181E-031
   3.0000000000000006E-002     9.4171782026670235E-031
   3.0300000000000001E-002    -9.8099852786143780E-030
   3.0600000000000002E-002     4.4309536425056489E-029
   3.0900000000000004E-002    -1.3286775982821957E-028
   3.1199999999999999E-002     2.3561446317219455E-028
   3.1500000000000007E-002     1.2135135681165524E-028
   3.1800000000000002E-002    -2.8087622939922877E-027
   3.2099999999999997E-002     1.2069369565232045E-026
   3.2400000000000005E-002    -3.0058328754240113E-026
   3.2700000000000000E-002     2.8902821725246183E-026
   3.3000000000000002E-002     1.2773167576022333E-025
   3.3300000000000003E-002    -7.6670156878179739E-025
   3.3599999999999998E-002     2.0736107886622828E-024
   3.3900000000000000E-002    -2.1033694056471911E-024
   3.4200000000000001E-002    -8.2618681281918040E-024
   3.4500000000000003E-002     4.8951677425148617E-023
   3.4799999999999998E-002    -1.2646705634020765E-022
   3.5099999999999999E-002     1.2129794532964528E-022
   3.5400000000000001E-002     4.3368201045065898E-022
   3.5699999999999996E-002    -2.3442104664035277E-021
   3.6000000000000004E-002     5.2933374649604829E-021
   3.6299999999999999E-002    -3.2825035726110530E-021
   3.6600000000000008E-002    -2.0483227022393378E-020
   3.6900000000000002E-002     8.1975547596271717E-020
   3.7199999999999997E-002    -1.3336972287812770E-019
   3.7500000000000006E-002    -4.9732969825144071E-020
   3.7800000000000000E-002     8.3566100045305545E-019
   3.8100000000000009E-002    -2.0497427379343670E-018
   3.8400000000000004E-002     1.3394215050404313E-018
   3.8699999999999998E-002     6.5528018534905341E-018
   3.9000000000000007E-002    -2.3546518205400512E-017
   3.9300000000000002E-002     2.9239606078658923E-017
   3.9600000000000003E-002     3.6145929894517796E-017
   3.9900000000000005E-002    -2.2589656522651693E-016
   4.0200000000000000E-002     3.9942179764763030E-016
   4.0500000000000001E-002     3.0074274025370470E-017
   4.0800000000000003E-002    -1.8925924841579279E-015
   4.1100000000000005E-002     4.5992848865379521E-015
   4.1399999999999999E-002    -2.6390485277038070E-015
   4.1700000000000008E-002    -1.5651030467699556E-014
   4.2000000000000003E-002     5.1758859828296701E-014
   4.2299999999999997E-002    -4.3998581461079384E-014
   4.2600000000000006E-002    -1.6861448193611119E-013
   4.2900000000000001E-002     5.9594823712135413E-013
   4.3200000000000002E-002    -3.1937108709059659E-013
   4.3500000000000004E-002    -2.5019799570639881E-012
   4.3799999999999999E-002     5.9245775026097774E-012
   4.4100000000000000E-002     3.3609163605495611E-012
   4.4400000000000002E-002    -3.4083186503843205E-011
   4.4700000000000004E-002     2.7130295066647060E-011
   4.4999999999999998E-002     1.3115237361111801E-010
   4.5300000000000000E-002    -2.5780959747031272E-010
   4.5600000000000002E-002    -3.7353916283494634E-010
   4.5899999999999996E-002     1.4295268143632230E-009
   4.6200000000000005E-002     7.6086874640612326E-010
   4.6500000000000000E-002    -6.5068956148329959E-009
   4.6799999999999994E-002    -8.7891708508457492E-010
   4.7100000000000003E-002     2.7130566940181743E-008
   4.7399999999999998E-002     8.7213005136700900E-010
   4.7700000000000006E-002    -1.0964648121835525E-007
   4.8000000000000001E-002    -2.8783587683120080E-008
   4.8300000000000010E-002     3.9977810534212799E-007
   4.8600000000000004E-002     2.6776125428935985E-007
   4.8899999999999999E-002    -1.3714518762495753E-006
   4.9200000000000008E-002    -1.7971003908406157E-006
   4.9500000000000002E-002     6.0126268682554680E-006
   4.9800000000000011E-002     2.5909240533934793E-005
   5.0100000000000006E-002     5.1233084539172926E-005
   5.0400000000000000E-002     7.1738844751282282E-005
   5.0700000000000009E-002     9.0420088776656279E-005
   5.1000000000000004E-002     1.2730065609579488E-004
   5.1299999999999998E-002     2.0278652745460375E-004
   5.1600000000000007E-002     3.2380560868435339E-004
   5.1900000000000002E-002     4.9279467552233887E-004
   5.2200000000000010E-002     7.2617329714952481E-004
   5.2500000000000005E-002     1.0579870527101624E-003
   5.2800000000000000E-002     1.5294207379092377E-003
   5.3099999999999994E-002     2.1831064878182868E-003
   5.3400000000000003E-002     3.0678937227892377E-003
   5.3699999999999998E-002     4.2423456093228489E-003
   5.4000000000000006E-002     5.7691410905849469E-003
   5.4300000000000001E-002     7.7064372354667919E-003
   5.4599999999999996E-002     1.0101793286488905E-002
   5.4900000000000004E-002     1.2984278476182599E-002
   5.5199999999999999E-002     1.6345632676483653E-002
   5.5499999999999994E-002     2.0115688999132596E-002
   5.5800000000000002E-002     2.4139921293519495E-002
   5.6099999999999997E-002     2.8161989656306424E-002
   5.6400000000000006E-002     3.1798104475170307E-002
   5.6700000000000000E-002     3.4510753234353687E-002
   5.6999999999999995E-002     3.5596147372031144E-002
   5.7300000000000004E-002     3.4195934315911961E-002
   5.7599999999999998E-002     2.9322061339715044E-002
   5.7900000000000007E-002     1.9900000645945246E-002
   5.8200000000000002E-002     4.8513942710307293E-003
   5.8499999999999996E-002    -1.6785883173195602E-002
   5.8800000000000005E-002    -4.5710721149927025E-002
   5.9100000000000000E-002    -8.2203138748370208E-002
   5.9400000000000008E-002   -0.12594057184999843     
   5.9700000000000003E-002   -0.17581593763338152     
   6.0000000000000012E-002   -0.22978853673848648     
   6.0300000000000006E-002   -0.28480487278751998     
   6.0600000000000001E-002   -0.33679161607849661     
   6.0900000000000010E-002   -0.38074317210936742     
   6.1200000000000004E-002   -0.41093949993124085     
   6.1500000000000013E-002   -0.42129914801576851     
   6.1800000000000008E-002   -0.40583858924323091     
   6.2100000000000002E-002   -0.35924296864000649     
   6.2399999999999997E-002   -0.27747670824443577     
   6.2700000000000006E-002   -0.15845039765638544     
   6.3000000000000000E-002    -2.5529085109400954E-003
   6.3300000000000009E-002    0.18693607797018214     
   6.3600000000000004E-002    0.40359774798952852     
   6.3899999999999998E-002    0.63790275136051044     
   6.4199999999999993E-002    0.87749734620684983     
   6.4500000000000002E-002     1.1078949460414012     
   6.4800000000000010E-002     1.3132976676601851     
   6.5100000000000005E-002     1.4777441900776422     
   6.5400000000000000E-002     1.5862777795280707     
   6.5700000000000008E-002     1.6262929338518555     
   6.5999999999999989E-002     1.5886407710217787     
   6.6299999999999998E-002     1.4686448318502148     
   6.6600000000000006E-002     1.2667197704930468     
   6.6900000000000001E-002    0.98862605329892905     
   6.7199999999999996E-002    0.64542894559719466     
   6.7500000000000004E-002    0.25277043579631298     
   6.7800000000000013E-002   -0.16992398614853876     
   6.8099999999999994E-002   -0.60095505196726340     
   6.8400000000000002E-002    -1.0175059242940638     
   6.8700000000000011E-002    -1.3975196319096210     
   6.8999999999999992E-002    -1.7208868764355465     
   6.9300000000000000E-002    -1.9711456560510943     
   6.9600000000000009E-002    -2.1360883444385754     
   6.9900000000000004E-002    -2.2088505639912537     
   7.0199999999999999E-002    -2.1879110515152713     
   7.0500000000000007E-002    -2.0773164689825716     
   7.0800000000000016E-002    -1.8858499563526365     
   7.1099999999999997E-002    -1.6266036361467557     
   7.1400000000000005E-002    -1.3156449741951335     
   7.1700000000000000E-002   -0.97116558405648501     
   7.1999999999999995E-002   -0.61206659391467233     
   7.2300000000000003E-002   -0.25699063253314441     
   7.2600000000000012E-002     7.6869153888675601E-002
   7.2900000000000006E-002    0.37449256041070544     
   7.3200000000000001E-002    0.62376245079285908     
   7.3499999999999996E-002    0.81576954659271617     
   7.3800000000000004E-002    0.94505188455813727     
   7.4099999999999999E-002     1.0096031402776851     
   7.4400000000000008E-002     1.0105780465417133     
   7.4700000000000003E-002    0.95215948913962412     
   7.5000000000000011E-002    0.84091728355580342     
   7.5299999999999992E-002    0.68569570917466893     
   7.5600000000000001E-002    0.49682015967002813     
   7.5900000000000009E-002    0.28606516241445212     
   7.6200000000000004E-002     6.5724063194021298E-002
   7.6499999999999999E-002   -0.15131350304452107     
   7.6800000000000007E-002   -0.35247889711646918     
   7.7099999999999988E-002   -0.52543480531570930     
   7.7399999999999997E-002   -0.65919742432878314     
   7.7700000000000005E-002   -0.74403862171009705     
   7.8000000000000014E-002   -0.77261907367847193     
   7.8299999999999995E-002   -0.73987090583750126     
   7.8600000000000003E-002   -0.64414304932474842     
   7.8900000000000012E-002   -0.48700550487660887     
   7.9199999999999993E-002   -0.27405736841400469     
   7.9500000000000001E-002    -1.4332088117654365E-002
   7.9800000000000010E-002    0.27935430586252513     
   8.0100000000000018E-002    0.59136455352219019     
   8.0399999999999999E-002    0.90364354418686665     
   8.0700000000000008E-002     1.1971891263109220     
   8.1000000000000003E-002     1.4529153394239207     
   8.1299999999999997E-002     1.6532697438569999     
   8.1600000000000006E-002     1.7833502868836437     
   8.1900000000000014E-002     1.8324071181373633     
   8.2199999999999995E-002     1.7946429676804261     
   8.2500000000000004E-002     1.6700431937044391     
   8.2799999999999999E-002     1.4644836065727211     
   8.3100000000000007E-002     1.1896302242649026     
   8.3400000000000002E-002    0.86219370215719116     
   8.3700000000000011E-002    0.50279113775232687     
   8.4000000000000005E-002    0.13442975521709558     
   8.4300000000000000E-002   -0.21916614127342177     
   8.4599999999999995E-002   -0.53546128166813600     
   8.4900000000000003E-002   -0.79486825244328085     
   8.5199999999999998E-002   -0.98234897161898371     
   8.5500000000000007E-002    -1.0885679187326891     
   8.5800000000000001E-002    -1.1106314350069664     
   8.6100000000000010E-002    -1.0522624058386858     
   8.6399999999999991E-002   -0.92348552327553168     
   8.6699999999999999E-002   -0.73959850472175392     
   8.7000000000000008E-002   -0.51982080398643937     
   8.7300000000000003E-002   -0.28556016334295858     
   8.7599999999999997E-002    -5.8564282904346829E-002
   8.7900000000000006E-002    0.14081725049482557     
   8.8200000000000014E-002    0.29551494725792665     
   8.8499999999999995E-002    0.39289017969717194     
   8.8800000000000004E-002    0.42584025611774745     
   8.9100000000000013E-002    0.39273890674195500     
   8.9399999999999993E-002    0.29771672700232832     
   8.9700000000000002E-002    0.14947802110904795     
   9.0000000000000011E-002    -3.9113343476103374E-002
   9.0299999999999991E-002   -0.25319295815983628     
   9.0600000000000000E-002   -0.47656431587015080     
   9.0900000000000009E-002   -0.69387448054867606     
   9.1200000000000017E-002   -0.89087036003700015     
   9.1499999999999998E-002    -1.0564191665564509     
   9.1800000000000007E-002    -1.1819544805443536     
   9.2100000000000001E-002    -1.2626737524444884     
   9.2399999999999996E-002    -1.2961954751781395     
   9.2700000000000005E-002    -1.2832124699018723     
   9.3000000000000013E-002    -1.2256820427609074     
   9.3300000000000008E-002    -1.1272094315986272     
   9.3600000000000003E-002   -0.99124349410719459     
   9.3899999999999997E-002   -0.82176899768301492     
   9.4200000000000006E-002   -0.62190354951538662     
   9.4500000000000001E-002   -0.39496562471628804     
   9.4800000000000009E-002   -0.14393087366125151     
   9.5100000000000004E-002    0.12731175363178568     
   9.5399999999999999E-002    0.41421196276887795     
   9.5699999999999993E-002    0.71012268838695625     
   9.6000000000000002E-002     1.0066332395495952     
   9.6300000000000011E-002     1.2927945949051072     
   9.6600000000000005E-002     1.5558452275437877     
   9.6900000000000000E-002     1.7812397023902808     
   9.7200000000000009E-002     1.9538994387905744     
   9.7499999999999989E-002     2.0591789742745217     
   9.7799999999999998E-002     2.0844066608888689     
   9.8100000000000007E-002     2.0200539353009344     
   9.8400000000000015E-002     1.8611717250737994     
   9.8699999999999996E-002     1.6082902902085969     
   9.9000000000000005E-002     1.2681097111370625     
   9.9300000000000013E-002    0.85340686898239826     
   9.9599999999999994E-002    0.38272030734696610     
   9.9900000000000003E-002   -0.12072160319417552     
  0.10020000000000001        -0.63034514577458445     
  0.10049999999999999         -1.1180710381127126     
  0.10080000000000000         -1.5563185571401505     
  0.10110000000000001         -1.9197743893385697     
  0.10140000000000000         -2.1874795056764564     
  0.10170000000000000         -2.3440000780078796     
  0.10200000000000001         -2.3807790657367738     
  0.10230000000000002         -2.2963292146683063     
  0.10260000000000000         -2.0966006375175947     
  0.10290000000000001         -1.7940427444013269     
  0.10320000000000000         -1.4069743442175251     
  0.10350000000000001        -0.95783740841173026     
  0.10380000000000000        -0.47212658440158872     
  0.10410000000000001          2.3800794497109451E-002
  0.10440000000000001         0.50389212880960699     
  0.10470000000000000         0.94443146655043730     
  0.10500000000000000          1.3246064106703450     
  0.10530000000000000          1.6282285502856255     
  0.10560000000000000          1.8434484223516958     
  0.10590000000000001          1.9640097400524272     
  0.10620000000000000          1.9882820394246146     
  0.10650000000000001          1.9199865735643717     
  0.10679999999999999          1.7665608894939773     
  0.10710000000000000          1.5396860256467411     
  0.10740000000000001          1.2534795847718403     
  0.10770000000000000         0.92471966199387046     
  0.10800000000000000         0.57098284819027012     
  0.10830000000000001         0.21071339890429652     
  0.10859999999999999        -0.13811685527700857     
  0.10890000000000000        -0.45851103800559734     
  0.10920000000000001        -0.73541544720700891     
  0.10950000000000001        -0.95624720706831978     
  0.10979999999999999         -1.1114216714181777     
  0.11009999999999999         -1.1951173525341257     
  0.11040000000000001         -1.2052911406451257     
  0.11070000000000001         -1.1442692236635543     
  0.11100000000000000         -1.0180691293344490     
  0.11130000000000000        -0.83690547316586228     
  0.11160000000000002        -0.61379347866084411     
  0.11190000000000001        -0.36469489382075826     
  0.11220000000000001        -0.10639750355151639     
  0.11250000000000000         0.14337330612471880     
  0.11280000000000000         0.36853511288988328     
  0.11309999999999999         0.55443091349106144     
  0.11340000000000001         0.69026077316065204     
  0.11369999999999998         0.76841707098341705     
  0.11400000000000000         0.78647749578628945     
  0.11430000000000000         0.74584247563967754     
  0.11460000000000002         0.65277579332976843     
  0.11489999999999999         0.51648245151393990     
  0.11520000000000001         0.34927029950273331     
  0.11550000000000001         0.16452234965730811     
  0.11580000000000000         -2.3710035928671741E-002
  0.11609999999999999        -0.20266079381270624     
  0.11640000000000002        -0.36126781223573295     
  0.11670000000000001        -0.49137682995585263     
  0.11700000000000001        -0.58771489386751963     
  0.11730000000000000        -0.64831481779160161     
  0.11760000000000000        -0.67433883938422001     
  0.11789999999999999        -0.66937286270418217     
  0.11820000000000001        -0.63887162018662358     
  0.11850000000000001        -0.58929032797771119     
  0.11880000000000000        -0.52761920590039835     
  0.11910000000000000        -0.46021676920638516     
  0.11940000000000002        -0.39262774494684882     
  0.11970000000000001        -0.32881573619242732     
  0.12000000000000001        -0.27147950211679361     
  0.12030000000000000        -0.22152648654974780     
  0.12060000000000000        -0.17850042176317049     
  0.12089999999999999        -0.14085631633973750     
  0.12119999999999999        -0.10633429842885929     
  0.12150000000000001         -7.2464002872902666E-002
  0.12180000000000001         -3.6716707899713423E-002
  0.12210000000000000          2.5214960419526304E-003
  0.12239999999999999          4.6271534223917062E-002
  0.12270000000000002          9.4043838081586437E-002
  0.12300000000000001         0.14465884898991871     
  0.12330000000000001         0.19525014933316850     
  0.12360000000000000         0.24261738275084746     
  0.12390000000000000         0.28241460607037400     
  0.12419999999999999         0.31086793291921244     
  0.12450000000000001         0.32383854711621191     
  0.12480000000000001         0.31887995066992791     
  0.12509999999999999         0.29423905784066784     
  0.12540000000000001         0.25048466785443096     
  0.12570000000000003         0.18911762558172732     
  0.12600000000000000         0.11406978935542050     
  0.12630000000000002          3.0031774566064359E-002
  0.12659999999999999         -5.6863464658805804E-002
  0.12690000000000001        -0.14079335226518375     
  0.12719999999999998        -0.21582224245191972     
  0.12750000000000000        -0.27730867390407277     
  0.12780000000000002        -0.32184416439618851     
  0.12809999999999999        -0.34789140652839090     
  0.12840000000000001        -0.35557335497364034     
  0.12869999999999998        -0.34647152725196251     
  0.12900000000000000        -0.32336481149953888     
  0.12930000000000003        -0.28942401656665978     
  0.12959999999999999        -0.24791539750968994     
  0.12990000000000002        -0.20102990647668836     
  0.13019999999999998        -0.15027495421192838     
  0.13050000000000000         -9.5350348043072158E-002
  0.13080000000000003         -3.5165076154055341E-002
  0.13109999999999999          3.2973436960340115E-002
  0.13140000000000002         0.11167503369552281     
  0.13169999999999998         0.20389590429283422     
  0.13200000000000001         0.31096575977330282     
  0.13229999999999997         0.43330707563331133     
  0.13260000000000000         0.56861439846199791     
  0.13290000000000002         0.71277155073640097     
  0.13319999999999999         0.85881646461279437     
  0.13350000000000001         0.99835231410928249     
  0.13380000000000003          1.1213153134741800     
  0.13410000000000000          1.2177241689056664     
  0.13440000000000002          1.2779114252489339     
  0.13469999999999999          1.2941865617865447     
  0.13500000000000001          1.2612231017442930     
  0.13529999999999998          1.1771372756571625     
  0.13560000000000000          1.0434776054066961     
  0.13590000000000002         0.86560863273394317     
  0.13619999999999999         0.65204808055103691     
  0.13650000000000001         0.41401415245256007     
  0.13680000000000003         0.16438908273040059     
  0.13710000000000000         -8.3107398134914634E-002
  0.13740000000000002        -0.31515366219138252     
  0.13769999999999999        -0.51955979291789167     
  0.13800000000000001        -0.68631075172567924     
  0.13829999999999998        -0.80796746505365047     
  0.13860000000000000        -0.87998070703697184     
  0.13890000000000002        -0.90092656990692099     
  0.13919999999999999        -0.87224159993884165     
  0.13950000000000001        -0.79816863057077647     
  0.13979999999999998        -0.68530438864200893     
  0.14010000000000000        -0.54231277611948125     
  0.14040000000000002        -0.37954948501916158     
  0.14069999999999999        -0.20877673703377195     
  0.14100000000000001         -4.2743997327660710E-002
  0.14130000000000004         0.10512865186269965     
  0.14160000000000000         0.22144726610016291     
  0.14189999999999997         0.29333419066985489     
  0.14219999999999999         0.30945657503651725     
  0.14250000000000002         0.26059653329150056     
  0.14279999999999998         0.14126899752968250     
  0.14310000000000000         -4.9808099373773840E-002
  0.14339999999999997        -0.30834027834868355     
  0.14369999999999999        -0.62453984568755982     
  0.14400000000000002        -0.98208537033567000     
  0.14429999999999998         -1.3594144366622092     
  0.14460000000000001         -1.7297081193650101     
  0.14490000000000003         -2.0636327185963963     
  0.14520000000000000         -2.3302030609811606     
  0.14550000000000002         -2.5004196784029209     
  0.14579999999999999         -2.5485649270273312     
  0.14610000000000001         -2.4562313913489908     
  0.14640000000000003         -2.2129814930527845     
  0.14670000000000000         -1.8192764832453694     
  0.14699999999999996         -1.2859975428106007     
  0.14729999999999999        -0.63543449646678341     
  0.14760000000000001         0.10073318002181481     
  0.14789999999999998         0.88234191818221952     
  0.14820000000000000          1.6648201245865251     