  -1.4999999999999999E-002     0.0000000000000000     
  -1.4700000000000000E-002     0.0000000000000000     
  -1.4400000000000000E-002     0.0000000000000000     
  -1.4100000000000000E-002     0.0000000000000000     
  -1.3800000000000000E-002     0.0000000000000000     
  -1.3500000000000000E-002     0.0000000000000000     
  -1.3200000000000000E-002     0.0000000000000000     
  -1.2899999999999998E-002     0.0000000000000000     
  -1.2600000000000000E-002     0.0000000000000000     
  -1.2299999999999998E-002     0.0000000000000000     
  -1.2000000000000000E-002     0.0000000000000000     
  -1.1699999999999999E-002     0.0000000000000000     
  -1.1399999999999999E-002     0.0000000000000000     
  -1.1099999999999999E-002     0.0000000000000000     
  -1.0799999999999999E-002     0.0000000000000000     
  -1.0499999999999999E-002     0.0000000000000000     
  -1.0199999999999999E-002     0.0000000000000000     
  -9.8999999999999991E-003     0.0000000000000000     
  -9.5999999999999992E-003     0.0000000000000000     
  -9.2999999999999992E-003     0.0000000000000000     
  -8.9999999999999993E-003     0.0000000000000000     
  -8.6999999999999994E-003     0.0000000000000000     
  -8.3999999999999995E-003     0.0000000000000000     
  -8.0999999999999996E-003     0.0000000000000000     
  -7.7999999999999988E-003     0.0000000000000000     
  -7.4999999999999997E-003     0.0000000000000000     
  -7.1999999999999998E-003     0.0000000000000000     
  -6.8999999999999981E-003     0.0000000000000000     
  -6.5999999999999982E-003     0.0000000000000000     
  -6.3000000000000000E-003     0.0000000000000000     
  -6.0000000000000001E-003     0.0000000000000000     
  -5.6999999999999985E-003     0.0000000000000000     
  -5.3999999999999986E-003     0.0000000000000000     
  -5.1000000000000004E-003     0.0000000000000000     
  -4.7999999999999987E-003     0.0000000000000000     
  -4.5000000000000005E-003     0.0000000000000000     
  -4.1999999999999989E-003     0.0000000000000000     
  -3.8999999999999990E-003     0.0000000000000000     
  -3.5999999999999990E-003     0.0000000000000000     
  -3.2999999999999991E-003     0.0000000000000000     
  -2.9999999999999992E-003     0.0000000000000000     
  -2.6999999999999993E-003     0.0000000000000000     
  -2.3999999999999994E-003     0.0000000000000000     
  -2.0999999999999977E-003     0.0000000000000000     
  -1.7999999999999995E-003     0.0000000000000000     
  -1.4999999999999979E-003     0.0000000000000000     
  -1.1999999999999997E-003     0.0000000000000000     
  -8.9999999999999976E-004     0.0000000000000000     
  -5.9999999999999810E-004     0.0000000000000000     
  -2.9999999999999992E-004     0.0000000000000000     
   0.0000000000000000          0.0000000000000000     
   3.0000000000000165E-004     0.0000000000000000     
   5.9999999999999984E-004     0.0000000000000000     
   9.0000000000000149E-004     0.0000000000000000     
   1.2000000000000031E-003     0.0000000000000000     
   1.5000000000000013E-003     0.0000000000000000     
   1.8000000000000030E-003     0.0000000000000000     
   2.1000000000000012E-003     0.0000000000000000     
   2.3999999999999994E-003     0.0000000000000000     
   2.7000000000000010E-003     0.0000000000000000     
   2.9999999999999992E-003     0.0000000000000000     
   3.3000000000000008E-003     0.0000000000000000     
   3.6000000000000025E-003     0.0000000000000000     
   3.9000000000000007E-003     0.0000000000000000     
   4.2000000000000023E-003     0.0000000000000000     
   4.5000000000000005E-003     0.0000000000000000     
   4.7999999999999987E-003     0.0000000000000000     
   5.1000000000000004E-003     0.0000000000000000     
   5.4000000000000020E-003     0.0000000000000000     
   5.7000000000000037E-003     0.0000000000000000     
   5.9999999999999984E-003     0.0000000000000000     
   6.3000000000000000E-003     0.0000000000000000     
   6.6000000000000017E-003     0.0000000000000000     
   6.9000000000000034E-003     0.0000000000000000     
   7.2000000000000015E-003     0.0000000000000000     
   7.5000000000000032E-003     0.0000000000000000     
   7.8000000000000014E-003     0.0000000000000000     
   8.0999999999999996E-003     0.0000000000000000     
   8.4000000000000012E-003     0.0000000000000000     
   8.7000000000000029E-003     0.0000000000000000     
   9.0000000000000011E-003     0.0000000000000000     
   9.2999999999999992E-003     0.0000000000000000     
   9.6000000000000009E-003     0.0000000000000000     
   9.8999999999999991E-003     0.0000000000000000     
   1.0200000000000001E-002     0.0000000000000000     
   1.0500000000000002E-002     0.0000000000000000     
   1.0800000000000004E-002     0.0000000000000000     
   1.1099999999999999E-002     0.0000000000000000     
   1.1400000000000000E-002     0.0000000000000000     
   1.1700000000000002E-002     0.0000000000000000     
   1.2000000000000004E-002     0.0000000000000000     
   1.2300000000000002E-002     0.0000000000000000     
   1.2600000000000000E-002     0.0000000000000000     
   1.2900000000000002E-002     0.0000000000000000     
   1.3200000000000000E-002     0.0000000000000000     
   1.3500000000000002E-002     0.0000000000000000     
   1.3800000000000003E-002     0.0000000000000000     
   1.4100000000000001E-002     0.0000000000000000     
   1.4400000000000000E-002     0.0000000000000000     
   1.4700000000000001E-002     0.0000000000000000     
   1.4999999999999999E-002     0.0000000000000000     
   1.5300000000000001E-002     0.0000000000000000     
   1.5600000000000003E-002     0.0000000000000000     
   1.5899999999999997E-002     0.0000000000000000     
   1.6199999999999999E-002     0.0000000000000000     
   1.6500000000000001E-002     0.0000000000000000     
   1.6800000000000002E-002     0.0000000000000000     
   1.7100000000000004E-002     0.0000000000000000     
   1.7400000000000006E-002     0.0000000000000000     
   1.7700000000000000E-002     0.0000000000000000     
   1.8000000000000002E-002     0.0000000000000000     
   1.8300000000000004E-002     0.0000000000000000     
   1.8600000000000005E-002     0.0000000000000000     
   1.8900000000000000E-002     0.0000000000000000     
   1.9200000000000002E-002     0.0000000000000000     
   1.9500000000000003E-002     0.0000000000000000     
   1.9799999999999998E-002     0.0000000000000000     
   2.0100000000000000E-002     0.0000000000000000     
   2.0400000000000001E-002     0.0000000000000000     
   2.0700000000000003E-002     0.0000000000000000     
   2.0999999999999998E-002     0.0000000000000000     
   2.1299999999999999E-002     0.0000000000000000     
   2.1600000000000001E-002     0.0000000000000000     
   2.1900000000000003E-002     0.0000000000000000     
   2.2200000000000004E-002     0.0000000000000000     
   2.2500000000000006E-002     0.0000000000000000     
   2.2800000000000001E-002     0.0000000000000000     
   2.3100000000000002E-002     0.0000000000000000     
   2.3400000000000004E-002     0.0000000000000000     
   2.3699999999999999E-002     0.0000000000000000     
   2.4000000000000000E-002     0.0000000000000000     
   2.4300000000000002E-002     0.0000000000000000     
   2.4599999999999997E-002     0.0000000000000000     
   2.4900000000000005E-002     0.0000000000000000     
   2.5200000000000000E-002     0.0000000000000000     
   2.5499999999999995E-002     0.0000000000000000     
   2.5800000000000003E-002     0.0000000000000000     
   2.6099999999999998E-002     0.0000000000000000     
   2.6400000000000007E-002     0.0000000000000000     
   2.6700000000000002E-002     0.0000000000000000     
   2.6999999999999996E-002     0.0000000000000000     
   2.7300000000000005E-002     0.0000000000000000     
   2.7600000000000000E-002     0.0000000000000000     
   2.7900000000000008E-002     0.0000000000000000     
   2.8200000000000003E-002     0.0000000000000000     
   2.8499999999999998E-002     0.0000000000000000     
   2.8800000000000006E-002     0.0000000000000000     
   2.9100000000000001E-002     0.0000000000000000     
   2.9400000000000003E-002     0.0000000000000000     
   2.9700000000000004E-002     0.0000000000000000     
   3.0000000000000006E-002     0.0000000000000000     
   3.0300000000000001E-002     0.0000000000000000     
   3.0600000000000002E-002     0.0000000000000000     
   3.0900000000000004E-002     0.0000000000000000     
   3.1199999999999999E-002     0.0000000000000000     
   3.1500000000000007E-002     0.0000000000000000     
   3.1800000000000002E-002     0.0000000000000000     
   3.2099999999999997E-002     0.0000000000000000     
   3.2400000000000005E-002     0.0000000000000000     
   3.2700000000000000E-002     0.0000000000000000     
   3.3000000000000002E-002     0.0000000000000000     
   3.3300000000000003E-002     0.0000000000000000     
   3.3599999999999998E-002     0.0000000000000000     
   3.3900000000000000E-002     0.0000000000000000     
   3.4200000000000001E-002     0.0000000000000000     
   3.4500000000000003E-002     0.0000000000000000     
   3.4799999999999998E-002     0.0000000000000000     
   3.5099999999999999E-002    -2.7730027296087680E-044
   3.5400000000000001E-002     5.4976905144805318E-043
   3.5699999999999996E-002    -8.5348238519913279E-044
   3.6000000000000004E-002    -4.1629013088916658E-043
   3.6299999999999999E-002     6.9575093856255904E-038
   3.6600000000000008E-002    -4.1250399285060604E-037
   3.6900000000000002E-002    -1.3900527011213225E-036
   3.7199999999999997E-002     9.1603949290071730E-036
   3.7500000000000006E-002     7.0410226534091887E-036
   3.7800000000000000E-002    -1.5066990693239171E-034
   3.8100000000000009E-002     1.0574901777840981E-033
   3.8400000000000004E-002    -4.5787898959802486E-033
   3.8699999999999998E-002     1.4595988076731095E-032
   3.9000000000000007E-002    -4.0929827427852161E-032
   3.9300000000000002E-002     1.1002366955239473E-031
   3.9600000000000003E-002    -2.7456056971683756E-031
   3.9900000000000005E-002     5.6837437204411065E-031
   4.0200000000000000E-002    -6.0132923254545553E-031
   4.0500000000000001E-002    -2.5695852858565715E-030
   4.0800000000000003E-002     2.3354499504567982E-029
   4.1100000000000005E-002    -1.2004951278164014E-028
   4.1399999999999999E-002     4.9984139823917828E-028
   4.1700000000000008E-002    -1.8239247754259750E-027
   4.2000000000000003E-002     5.9991475538123446E-027
   4.2299999999999997E-002    -1.7972819337359480E-026
   4.2600000000000006E-002     4.9043702666752606E-026
   4.2900000000000001E-002    -1.2032033816282824E-025
   4.3200000000000002E-002     2.5410293890016618E-025
   4.3500000000000004E-002    -3.9386544411558049E-025
   4.3799999999999999E-002     1.9787263204867772E-026
   4.4100000000000000E-002     3.3065763455298023E-024
   4.4400000000000002E-002    -1.8453137643219625E-023
   4.4700000000000004E-002     7.1420729704455525E-023
   4.4999999999999998E-002    -2.1912649589070041E-022
   4.5300000000000000E-002     5.2027756827700155E-022
   4.5600000000000002E-002    -7.6826232008908568E-022
   4.5899999999999996E-002    -5.1384679469345174E-022
   4.6200000000000005E-002     8.3744657888823722E-021
   4.6500000000000000E-002    -3.3266856053756572E-020
   4.6799999999999994E-002     8.0607793548809594E-020
   4.7100000000000003E-002    -9.4925449995140413E-020
   4.7399999999999998E-002    -1.7805001951013515E-019
   4.7700000000000006E-002     1.2991698235193403E-018
   4.8000000000000001E-002    -3.5470104599393097E-018
   4.8300000000000010E-002     4.1502426520854890E-018
   4.8600000000000004E-002     7.8843696448273400E-018
   4.8899999999999999E-002    -4.9899917114402365E-017
   4.9200000000000008E-002     1.0633851641089313E-016
   4.9500000000000002E-002    -2.5684333654741386E-017
   4.9800000000000011E-002    -5.2376351776759149E-016
   5.0100000000000006E-002     1.5405767712186373E-015
   5.0400000000000000E-002    -1.1043154405927515E-015
   5.0700000000000009E-002    -5.4732347331018476E-015
   5.1000000000000004E-002     1.8392699421717247E-014
   5.1299999999999998E-002    -1.2384523763938839E-014
   5.1600000000000007E-002    -6.6628642644823128E-014
   5.1900000000000002E-002     1.9190046379394578E-013
   5.2200000000000010E-002    -3.1544862534326559E-014
   5.2500000000000005E-002    -8.5999524120818874E-013
   5.2800000000000000E-002     1.5419171399867163E-012
   5.3099999999999994E-002     1.6327353968258898E-012
   5.3400000000000003E-002    -9.2479228921256656E-012
   5.3699999999999998E-002     4.5982940110803675E-012
   5.4000000000000006E-002     3.4956449037423906E-011
   5.4300000000000001E-002    -5.6492155270586424E-011
   5.4599999999999996E-002    -9.3909749044578695E-011
   5.4900000000000004E-002     3.1004749388565370E-010
   5.5199999999999999E-002     1.6196422683975730E-010
   5.5499999999999994E-002    -1.3238645566723410E-009
   5.5800000000000002E-002    -1.9015381901125071E-011
   5.6099999999999997E-002     5.0545060963587858E-009
   5.6400000000000006E-002    -9.7810445080168911E-010
   5.6700000000000000E-002    -1.8533694158305032E-008
   5.6999999999999995E-002     1.7224386957540849E-009
   5.7300000000000004E-002     6.3811564587710061E-008
   5.7599999999999998E-002     1.3791854073884985E-008
   5.7900000000000007E-002    -2.1311671842653281E-007
   5.8200000000000002E-002    -1.7351232243613518E-007
   5.8499999999999996E-002     7.7732377101624926E-007
   5.8800000000000005E-002     2.5081917636822404E-006
   5.9100000000000000E-002     4.1113471930401226E-006
   5.9400000000000008E-002     5.4381519042172638E-006
   5.9700000000000003E-002     7.9663975511644275E-006
   6.0000000000000012E-002     1.3418305651117081E-005
   6.0300000000000006E-002     2.2226094829656308E-005
   6.0600000000000001E-002     3.4350496437062419E-005
   6.0900000000000010E-002     5.1239938943025627E-005
   6.1200000000000004E-002     7.6229966772833898E-005
   6.1500000000000013E-002     1.1340040369231652E-004
   6.1800000000000008E-002     1.6693574048622862E-004
   6.2100000000000002E-002     2.4194582177567065E-004
   6.2399999999999997E-002     3.4577156470239973E-004
   6.2700000000000006E-002     4.8809652577322697E-004
   6.3000000000000000E-002     6.7957022357998265E-004
   6.3300000000000009E-002     9.3093973257301114E-004
   6.3600000000000004E-002     1.2539629068389112E-003
   6.3899999999999998E-002     1.6620157961828386E-003
   6.4199999999999993E-002     2.1682087292036576E-003
   6.4500000000000002E-002     2.7826703395587415E-003
   6.4800000000000010E-002     3.5104019773204778E-003
   6.5100000000000005E-002     4.3482538398322852E-003
   6.5400000000000000E-002     5.2811801819218733E-003
   6.5700000000000008E-002     6.2801463289896935E-003
   6.5999999999999989E-002     7.3007694569348826E-003
   6.6299999999999998E-002     8.2794338711942306E-003
   6.6600000000000006E-002     9.1291214730707948E-003
   6.6900000000000001E-002     9.7412219631757887E-003
   6.7199999999999996E-002     9.9899702072727206E-003
   6.7500000000000004E-002     9.7380913560264730E-003
   6.7800000000000013E-002     8.8437834241896045E-003
   6.8099999999999994E-002     7.1722362576932229E-003
   6.8400000000000002E-002     4.6128077288104721E-003
   6.8700000000000011E-002     1.0976535975974243E-003
   6.8999999999999992E-002    -3.3804457807529013E-003
   6.9300000000000000E-002    -8.7502452739741162E-003
   6.9600000000000009E-002    -1.4847362724309913E-002
   6.9900000000000004E-002    -2.1406308773540633E-002
   7.0199999999999999E-002    -2.8059947003796916E-002
   7.0500000000000007E-002    -3.4344375304138711E-002
   7.0800000000000016E-002    -3.9726985497594944E-002
   7.1099999999999997E-002    -4.3635390075919239E-002
   7.1400000000000005E-002    -4.5496941456975040E-002
   7.1700000000000000E-002    -4.4787609672467990E-002
   7.1999999999999995E-002    -4.1086913137850345E-002
   7.2300000000000003E-002    -3.4138759095994606E-002
   7.2600000000000012E-002    -2.3904997698080771E-002
   7.2900000000000006E-002    -1.0596118772566439E-002
   7.3200000000000001E-002     5.3018407669291976E-003
   7.3499999999999996E-002     2.3023757670433583E-002
   7.3800000000000004E-002     4.1551524454294400E-002
   7.4099999999999999E-002     5.9643142889363635E-002
   7.4400000000000008E-002     7.5895258694003945E-002
   7.4700000000000003E-002     8.8824535725747028E-002
   7.5000000000000011E-002     9.6969569819142204E-002
   7.5299999999999992E-002     9.8993961352787735E-002
   7.5600000000000001E-002     9.3780277835647130E-002
   7.5900000000000009E-002     8.0522768037914000E-002
   7.6200000000000004E-002     5.8823137868797420E-002
   7.6499999999999999E-002     2.8757079292223570E-002
   7.6800000000000007E-002    -9.1022960142022082E-003
   7.7099999999999988E-002    -5.3669088151463915E-002
   7.7399999999999997E-002   -0.10334461706089731     
   7.7700000000000005E-002   -0.15609017288806801     
   7.8000000000000014E-002   -0.20948969432167627     
   7.8299999999999995E-002   -0.26089996019826417     
   7.8600000000000003E-002   -0.30755860086150044     
   7.8900000000000012E-002   -0.34677377715571228     
   7.9199999999999993E-002   -0.37606479937960879     
   7.9500000000000001E-002   -0.39335124780321451     
   7.9800000000000010E-002   -0.39712281500084945     
   8.0100000000000018E-002   -0.38653227310789340     
   8.0399999999999999E-002   -0.36148598304257229     
   8.0700000000000008E-002   -0.32269733846344917     
   8.1000000000000003E-002   -0.27161875625861054     
   8.1299999999999997E-002   -0.21031440370210935     
   8.1600000000000006E-002   -0.14138264947672236     
   8.1900000000000014E-002    -6.7623047838052508E-002
   8.2199999999999995E-002     8.0983109743582166E-003
   8.2500000000000004E-002     8.3127683161758212E-002
   8.2799999999999999E-002    0.15523535081500139     
   8.3100000000000007E-002    0.22279022965599085     
   8.3400000000000002E-002    0.28475833363209807     
   8.3700000000000011E-002    0.34076639673530895     
   8.4000000000000005E-002    0.39099706735217099     
   8.4300000000000000E-002    0.43590286119635135     
   8.4599999999999995E-002    0.47610382251517458     
   8.4900000000000003E-002    0.51205575178244533     
   8.5199999999999998E-002    0.54377283737579296     
   8.5500000000000007E-002    0.57074095666171376     
   8.5800000000000001E-002    0.59176623658247940     
   8.6100000000000010E-002    0.60499180513211237     
   8.6399999999999991E-002    0.60805010357643685     
   8.6699999999999999E-002    0.59840125923095100     
   8.7000000000000008E-002    0.57356423433685200     
   8.7300000000000003E-002    0.53158239030933652     
   8.7599999999999997E-002    0.47137441678988423     
   8.7900000000000006E-002    0.39304961909129099     
   8.8200000000000014E-002    0.29814983526557565     
   8.8499999999999995E-002    0.18966566843110627     
   8.8800000000000004E-002     7.1969158448239159E-002
   8.9100000000000013E-002    -4.9472502399545815E-002
   8.9399999999999993E-002   -0.16840355915534133     
   8.9700000000000002E-002   -0.27846350024872280     
   9.0000000000000011E-002   -0.37360814752873350     
   9.0299999999999991E-002   -0.44869297415561998     
   9.0600000000000000E-002   -0.49997753910810872     
   9.0900000000000009E-002   -0.52546940792849950     
   9.1200000000000017E-002   -0.52512041311018676     
   9.1499999999999998E-002   -0.50085879396360000     
   9.1800000000000007E-002   -0.45635770836873124     
   9.2100000000000001E-002   -0.39674631809722455     
   9.2399999999999996E-002   -0.32814277511194201     
   9.2700000000000005E-002   -0.25695788891706789     
   9.3000000000000013E-002   -0.18939216800686090     
   9.3300000000000008E-002   -0.13076800924394821     
   9.3600000000000003E-002    -8.4975966169571510E-002
   9.3899999999999997E-002    -5.4244887132376324E-002
   9.4200000000000006E-002    -3.8801319963330860E-002
   9.4500000000000001E-002    -3.6898642482134869E-002
   9.4800000000000009E-002    -4.5011283494276126E-002
   9.5100000000000004E-002    -5.8228177797058717E-002
   9.5399999999999999E-002    -7.0783065015914623E-002
   9.5699999999999993E-002    -7.6649550006618175E-002
   9.6000000000000002E-002    -7.0344585185714265E-002
   9.6300000000000011E-002    -4.7428846039092594E-002
   9.6600000000000005E-002    -5.1516265096843150E-003
   9.6900000000000000E-002     5.7161781365751979E-002
   9.7200000000000009E-002    0.13790301220669895     
   9.7499999999999989E-002    0.23319646688093632     
   9.7799999999999998E-002    0.33717654391920282     
   9.8100000000000007E-002    0.44246421046542078     
   9.8400000000000015E-002    0.54076696821553516     
   9.8699999999999996E-002    0.62360886678715277     
   9.9000000000000005E-002    0.68326024359963300     
   9.9300000000000013E-002    0.71324000648023744     
   9.9599999999999994E-002    0.70914452467937406     
   9.9900000000000003E-002    0.66909569531922264     
  0.10020000000000001         0.59375960484985923     
  0.10049999999999999         0.48660633405568621     
  0.10080000000000000         0.35349076250075750     
  0.10110000000000001         0.20220959297713584     
  0.10140000000000000          4.1822521625598658E-002
  0.10170000000000000        -0.11803938079205463     
  0.10200000000000001        -0.26812146804600867     
  0.10230000000000002        -0.40015508253446663     
  0.10260000000000000        -0.50758711675603951     
  0.10290000000000001        -0.58611107852534827     
  0.10320000000000000        -0.63391161174011756     
  0.10350000000000001        -0.65179547187310694     
  0.10380000000000000        -0.64292396466630464     
  0.10410000000000001        -0.61265497052955586     
  0.10440000000000001        -0.56784676894123254     
  0.10470000000000000        -0.51631710523689600     
  0.10500000000000000        -0.46612468360874482     
  0.10530000000000000        -0.42482140547031733     
  0.10560000000000000        -0.39893095444710208     
  0.10590000000000001        -0.39316488397266158     
  0.10620000000000000        -0.41027896895524130     
  0.10650000000000001        -0.45059533878175917     
  0.10679999999999999        -0.51200209127501584     
  0.10710000000000000        -0.59014409392683542     
  0.10740000000000001        -0.67866111965661646     
  0.10770000000000000        -0.76961668858294474     
  0.10800000000000000        -0.85407994431684697     
  0.10830000000000001        -0.92279939313986037     
  0.10859999999999999        -0.96690922125445988     
  0.10890000000000000        -0.97865277307927334     
  0.10920000000000001        -0.95185061405758953     
  0.10950000000000001        -0.88268773165623771     
  0.10979999999999999        -0.76992808637595966     
  0.11009999999999999        -0.61502190617268682     
  0.11040000000000001        -0.42247739755795610     
  0.11070000000000001        -0.19927306775356513     
  0.11100000000000000          4.5281237567472113E-002
  0.11130000000000000         0.30010611563033851     
  0.11160000000000002         0.55318534578985434     
  0.11190000000000001         0.79224358222937608     
  0.11220000000000001          1.0054180964641131     
  0.11250000000000000          1.1823018643942151     
  0.11280000000000000          1.3144290212143357     
  0.11309999999999999          1.3958204211466898     
  0.11340000000000001          1.4235445082885911     
  0.11369999999999998          1.3976957290454661     
  0.11400000000000000          1.3214497606980804     
  0.11430000000000000          1.2006951481215113     
  0.11460000000000002          1.0437912210026856     
  0.11489999999999999         0.86080045779002679     
  0.11520000000000001         0.66286809593435991     
  0.11550000000000001         0.46150200210861292     
  0.11580000000000000         0.26761819851455865     
  0.11609999999999999          9.1199084775707873E-002
  0.11640000000000002         -5.9612119044585930E-002
  0.11670000000000001        -0.17876826374960447     
  0.11700000000000001        -0.26263887719236012     
  0.11730000000000000        -0.31024303767464023     
  0.11760000000000000        -0.32304018154943748     
  0.11789999999999999        -0.30460029490937990     
  0.11820000000000001        -0.26045459719697062     
  0.11850000000000001        -0.19745088260270532     
  0.11880000000000000        -0.12292045485667036     
  0.11910000000000000         -4.4549578328510933E-002
  0.11940000000000002          3.0560724496234482E-002
  0.11970000000000001          9.6441418754789898E-002
  0.12000000000000001         0.14854066570031657     
  0.12030000000000000         0.18403526990684951     
  0.12060000000000000         0.20198167317069879     
  0.12089999999999999         0.20328654718719141     
  0.12119999999999999         0.19033904156885326     
  0.12150000000000001         0.16682577940923979     
  0.12180000000000001         0.13707478894018305     
  0.12210000000000000         0.10569621861667020     
  0.12239999999999999          7.6986955230557402E-002
  0.12270000000000002          5.4420885872685724E-002
  0.12300000000000001          4.0448157447296601E-002
  0.12330000000000001          3.6297181424296145E-002
  0.12360000000000000          4.1678576822310909E-002
  0.12390000000000000          5.5255593076511421E-002
  0.12419999999999999          7.4854267172736688E-002
  0.12450000000000001          9.7392925447881445E-002
  0.12480000000000001         0.11978192809042260     
  0.12509999999999999         0.13916756565819521     
  0.12540000000000001         0.15296027541224555     
  0.12570000000000003         0.15954255035040610     
  0.12600000000000000         0.15796919530500289     
  0.12630000000000002         0.14815758695286282     
  0.12659999999999999         0.13079543748277792     
  0.12690000000000001         0.10697174963348394     
  0.12719999999999998          7.8162722845781130E-002
  0.12750000000000000          4.5970565876420219E-002
  0.12780000000000002          1.1715468432602773E-002
  0.12809999999999999         -2.3363705162699269E-002
  0.12840000000000001         -5.8252715172488666E-002
  0.12869999999999998         -9.2323811252402646E-002
  0.12900000000000000        -0.12491359365149579     
  0.12930000000000003        -0.15551973345529713     
  0.12959999999999999        -0.18354260033638320     
  0.12990000000000002        -0.20830654193821202     
  0.13019999999999998        -0.22921018351146760     
  0.13050000000000000        -0.24549098644649470     
  0.13080000000000003        -0.25673977487080535     
  0.13109999999999999        -0.26288315200948920     
  0.13140000000000002        -0.26434447201715155     
  0.13169999999999998        -0.26234457148852014     
  0.13200000000000001        -0.25879211625431248     
  0.13229999999999997        -0.25616722708798867     
  0.13260000000000000        -0.25742880174803939     
  0.13290000000000002        -0.26566276796625149     
  0.13319999999999999        -0.28351834981576640     
  0.13350000000000001        -0.31303089768393605     
  0.13380000000000003        -0.35473897809860139     
  0.13410000000000000        -0.40782146907715600     
  0.13440000000000002        -0.46959545774592548     
  0.13469999999999999        -0.53559612717007388     
  0.13500000000000001        -0.59993557479216009     
  0.13529999999999998        -0.65563718254571679     
  0.13560000000000000        -0.69526162082691367     
  0.13590000000000002        -0.71180613401394799     
  0.13619999999999999        -0.69951315480501275     
  0.13650000000000001        -0.65450808955133777     
  0.13680000000000003        -0.57553506524294429     
  0.13710000000000000        -0.46431399476662105     
  0.13740000000000002        -0.32557897414800957     
  0.13769999999999999        -0.16688077437567081     
  0.13800000000000001          1.9722288573719750E-003
  0.13829999999999998         0.16980899874591718     
  0.13860000000000000         0.32516389427637993     
  0.13890000000000002         0.45730282500984615     
  0.13919999999999999         0.55755405703666217     
  0.13950000000000001         0.61987442827605399     
  0.13979999999999998         0.64189539981102217     
  0.14010000000000000         0.62528867562569357     
  0.14040000000000002         0.57526518557605422     
  0.14069999999999999         0.50047072566376360     
  0.14100000000000001         0.41212723117612771     
  0.14130000000000004         0.32241632952245813     
  0.14160000000000000         0.24372247325692720     
  0.14189999999999997         0.18708888837650950     
  0.14219999999999999         0.16053908568358058     
  0.14250000000000002         0.16900132264028273     
  0.14279999999999998         0.21292020122778083     
  0.14310000000000000         0.28837322402072729     
  0.14339999999999997         0.38792078353545173     
  0.14369999999999999         0.50063496163593169     
  0.14400000000000002         0.61371094656157488     
  0.14429999999999998         0.71382148083227104     
  0.14460000000000001         0.78825779442588029     
  0.14490000000000003         0.82666435905613578     
  0.14520000000000000         0.82187250333550610     
  0.14550000000000002         0.77049278454173553     
  0.14579999999999999         0.67355654051579239     
  0.14610000000000001         0.53596214277034337     
  0.14640000000000003         0.36593078917570693     
  0.14670000000000000         0.17426601283088783     
  0.14699999999999996         -2.7087236684687530E-002
  0.14729999999999999        -0.22613546083146041     
  0.14760000000000001        -0.41206399742558164     
  0.14789999999999998        -0.57589215748033673     
  0.14820000000000000        -0.71131760097996843     