  -1.4999999999999999E-002     0.0000000000000000     
  -1.4700000000000000E-002     8.5885383790511391E-027
  -1.4400000000000000E-002     5.8552768283199040E-022
  -1.4100000000000000E-002    -6.1718413921647329E-019
  -1.3800000000000000E-002    -4.2399908717630258E-017
  -1.3500000000000000E-002     1.7819082928587954E-016
  -1.3200000000000000E-002     4.7123628148362847E-015
  -1.2899999999999998E-002    -1.4384354724122280E-014
  -1.2600000000000000E-002    -9.2756292767650050E-014
  -1.2299999999999998E-002     2.4374340490259834E-013
  -1.2000000000000000E-002     7.8469218410408887E-013
  -1.1699999999999999E-002    -1.5149266974635262E-012
  -1.1399999999999999E-002    -4.3484376605943971E-012
  -1.1099999999999999E-002     2.7526719771591181E-012
  -1.0799999999999999E-002     2.0745212833958706E-011
  -1.0499999999999999E-002     9.4354582154345945E-012
  -1.0199999999999999E-002    -6.8286933581514974E-011
  -9.8999999999999991E-003    -7.4382888776870356E-011
  -9.5999999999999992E-003     9.8733842799233824E-011
  -9.2999999999999992E-003     2.4904809595204521E-010
  -8.9999999999999993E-003     1.6410239819182335E-010
  -8.6999999999999994E-003    -3.7447515116941479E-010
  -8.3999999999999995E-003    -1.1611169021770379E-009
  -8.0999999999999996E-003    -6.1219135009583854E-010
  -7.7999999999999988E-003     2.6207676113752152E-009
  -7.4999999999999997E-003     4.6159592411609035E-009
  -7.1999999999999998E-003    -2.0099455549518674E-009
  -6.8999999999999981E-003    -1.0267850573292702E-008
  -6.5999999999999982E-003    -4.6463115576795199E-009
  -6.3000000000000000E-003     6.2777854974300916E-009
  -6.0000000000000001E-003     1.2957961115972904E-008
  -5.6999999999999985E-003     2.3001526604727990E-008
  -5.3999999999999986E-003     3.8441453149229044E-009
  -5.1000000000000004E-003    -6.5563230193917172E-008
  -4.7999999999999987E-003    -7.7635980657876343E-008
  -4.5000000000000005E-003     5.7627095645253570E-008
  -4.1999999999999989E-003     1.7054985155029959E-007
  -3.8999999999999990E-003     4.3543012621229209E-008
  -3.5999999999999990E-003    -1.3231782362671925E-007
  -3.2999999999999991E-003    -1.0486117390028171E-007
  -2.9999999999999992E-003    -1.3412459351172140E-007
  -2.6999999999999993E-003    -1.4659136736331337E-007
  -2.3999999999999994E-003     3.9413938059028909E-007
  -2.0999999999999977E-003     6.9626599922203457E-007
  -1.7999999999999995E-003    -2.1574717468534320E-007
  -1.4999999999999979E-003    -9.5256233973989616E-007
  -1.1999999999999997E-003    -3.4761221312989622E-007
  -8.9999999999999976E-004     4.0495403700076600E-007
  -5.9999999999999810E-004     5.7156058157924772E-007
  -2.9999999999999992E-004     4.4283089034375085E-007
   0.0000000000000000         -5.9767247173770984E-008
   3.0000000000000165E-004    -6.7907590875893575E-007
   5.9999999999999984E-004    -6.8224231463643216E-007
   9.0000000000000149E-004     3.6633032665091183E-007
   1.2000000000000031E-003     1.1890764879864346E-006
   1.5000000000000013E-003     4.1239706361632885E-008
   1.8000000000000030E-003    -1.1807343822191729E-006
   2.1000000000000012E-003    -8.9502993184034674E-007
   2.3999999999999994E-003    -9.8711894067712992E-007
   2.7000000000000010E-003     7.3730029387358385E-007
   2.9999999999999992E-003     5.5889024731518967E-006
   3.3000000000000008E-003     5.7881299731231475E-006
   3.6000000000000025E-003     3.3835951661881047E-007
   3.9000000000000007E-003    -1.1185182941105327E-007
   4.2000000000000023E-003     9.8426244702929282E-006
   4.5000000000000005E-003     2.9761257080292877E-005
   4.7999999999999987E-003     5.1822814194634368E-005
   5.1000000000000004E-003     5.6946744118825124E-005
   5.4000000000000020E-003     4.0760196234333507E-005
   5.7000000000000037E-003     2.3839176353176359E-005
   5.9999999999999984E-003     2.2108967675732993E-005
   6.3000000000000000E-003     2.5932976583599133E-005
   6.6000000000000017E-003     4.6715343060536815E-007
   6.9000000000000034E-003    -8.8050607958780038E-005
   7.2000000000000015E-003    -2.4074937520512194E-004
   7.5000000000000032E-003    -4.6198110003825652E-004
   7.8000000000000014E-003    -8.1982557471708864E-004
   8.0999999999999996E-003    -1.4455905614593478E-003
   8.4000000000000012E-003    -2.5211438839934041E-003
   8.7000000000000029E-003    -4.2585789433785166E-003
   9.0000000000000011E-003    -6.8740926098495390E-003
   9.2999999999999992E-003    -1.0673787091376483E-002
   9.6000000000000009E-003    -1.6144843263526044E-002
   9.8999999999999991E-003    -2.3909927547358083E-002
   1.0200000000000001E-002    -3.4671078327927644E-002
   1.0500000000000002E-002    -4.9176616996669101E-002
   1.0800000000000004E-002    -6.8233033490338435E-002
   1.1099999999999999E-002    -9.2772957924572810E-002
   1.1400000000000000E-002   -0.12379309912577731     
   1.1700000000000002E-002   -0.16216407229620736     
   1.2000000000000004E-002   -0.20842667779481616     
   1.2300000000000002E-002   -0.26258685371647345     
   1.2600000000000000E-002   -0.32397987416417567     
   1.2900000000000002E-002   -0.39119257264159690     
   1.3200000000000000E-002   -0.46190302045433368     
   1.3500000000000002E-002   -0.53260998125698689     
   1.3800000000000003E-002   -0.59850267490660847     
   1.4100000000000001E-002   -0.65348420209455915     
   1.4400000000000000E-002   -0.69035122254146519     
   1.4700000000000001E-002   -0.70111260141925869     
   1.4999999999999999E-002   -0.67739108505559220     
   1.5300000000000001E-002   -0.61088946882139927     
   1.5600000000000003E-002   -0.49433300618879761     
   1.5899999999999997E-002   -0.32214210663834852     
   1.6199999999999999E-002    -9.1482360960217696E-002
   1.6500000000000001E-002    0.19707784088658939     
   1.6800000000000002E-002    0.53894709351359749     
   1.7100000000000004E-002    0.92521724456763543     
   1.7400000000000006E-002     1.3427730374032596     
   1.7700000000000000E-002     1.7746223804292596     
   1.8000000000000002E-002     2.2006165202785009     
   1.8300000000000004E-002     2.5987869738728731     
   1.8600000000000005E-002     2.9466563537121448     
   1.8900000000000000E-002     3.2231157950547136     
   1.9200000000000002E-002     3.4094627916517566     
   1.9500000000000003E-002     3.4908982263263986     
   1.9799999999999998E-002     3.4568749385161075     
   2.0100000000000000E-002     3.3017786479947970     
   2.0400000000000001E-002     3.0240388918867489     
   2.0700000000000003E-002     2.6253179246804681     
   2.0999999999999998E-002     2.1087974423937630     
   2.1299999999999999E-002     1.4782171597745604     
   2.1600000000000001E-002    0.73518276638629643     
   2.1900000000000003E-002   -0.12139152536542355     
   2.2200000000000004E-002    -1.0958674937307211     
   2.2500000000000006E-002    -2.1948067452106543     
   2.2800000000000001E-002    -3.4255863375687432     
   2.3100000000000002E-002    -4.7929804832951941     
   2.3400000000000004E-002    -6.2946479117274183     
   2.3699999999999999E-002    -7.9161707368124929     
   2.4000000000000000E-002    -9.6256089763303887     
   2.4300000000000002E-002    -11.369704690716580     
   2.4599999999999997E-002    -13.068911908831165     
   2.4900000000000005E-002    -14.618745124130662     
   2.5200000000000000E-002    -15.889698231635100     
   2.5499999999999995E-002    -16.734917792107570     
   2.5800000000000003E-002    -16.996922619837715     
   2.6099999999999998E-002    -16.522816795642960     
   2.6400000000000007E-002    -15.177602958834477     
   2.6700000000000002E-002    -12.861296946235532     
   2.6999999999999996E-002    -9.5257439300192654     
   2.7300000000000005E-002    -5.1881515327984022     
   2.7600000000000000E-002     6.0431144589200549E-002
   2.7900000000000008E-002     6.0469033700406172     
   2.8200000000000003E-002     12.523375905393852     
   2.8499999999999998E-002     19.174079004226588     
   2.8800000000000006E-002     25.635966038835942     
   2.9100000000000001E-002     31.521810924279077     
   2.9400000000000003E-002     36.447565218132148     
   2.9700000000000004E-002     40.066678951330786     
   3.0000000000000006E-002     42.093358833597968     
   3.0300000000000001E-002     42.335588275056459     
   3.0600000000000002E-002     40.704839599725723     
   3.0900000000000004E-002     37.235757888883263     
   3.1199999999999999E-002     32.073828057665395     
   3.1500000000000007E-002     25.478380844893152     
   3.1800000000000002E-002     17.788149904163550     
   3.2099999999999997E-002     9.4113669519020835     
   3.2400000000000005E-002    0.77953609518480271     
   3.2700000000000000E-002    -7.6745243944483352     
   3.3000000000000002E-002    -15.551234416103012     
   3.3300000000000003E-002    -22.511671844918432     
   3.3599999999999998E-002    -28.290949360253869     
   3.3900000000000000E-002    -32.719400681969354     
   3.4200000000000001E-002    -35.713358057116935     
   3.4500000000000003E-002    -37.283720077016369     
   3.4799999999999998E-002    -37.510786112674239     
   3.5099999999999999E-002    -36.542703741001880     
   3.5400000000000001E-002    -34.562154988105370     
   3.5699999999999996E-002    -31.779280072786801     
   3.6000000000000004E-002    -28.404606402949380     
   3.6299999999999999E-002    -24.640171780232411     
   3.6600000000000008E-002    -20.664059615261237     
   3.6900000000000002E-002    -16.625111757899909     
   3.7199999999999997E-002    -12.642961878049363     
   3.7500000000000006E-002    -8.8003383559250548     
   3.7800000000000000E-002    -5.1596734797740247     
   3.8100000000000009E-002    -1.7533857353730293     
   3.8400000000000004E-002     1.3918714669737042     
   3.8699999999999998E-002     4.2708013035073140     
   3.9000000000000007E-002     6.8705540835152874     
   3.9300000000000002E-002     9.1886668261707047     
   3.9600000000000003E-002     11.212988288535724     
   3.9900000000000005E-002     12.935999227335031     
   4.0200000000000000E-002     14.340826282401981     
   4.0500000000000001E-002     15.414575777883227     
   4.0800000000000003E-002     16.144980601727905     
   4.1100000000000005E-002     16.522032895111426     
   4.1399999999999999E-002     16.546603364142811     
   4.1700000000000008E-002     16.220174016078104     
   4.2000000000000003E-002     15.563981272496706     
   4.2299999999999997E-002     14.598410871135000     
   4.2600000000000006E-002     13.368277876899253     
   4.2900000000000001E-002     11.912630478916050     
   4.3200000000000002E-002     10.293890476802817     
   4.3500000000000004E-002     8.5657726162970445     
   4.3799999999999999E-002     6.8003207934698118     
   4.4100000000000000E-002     5.0545699715264156     
   4.4400000000000002E-002     3.3943861437673317     
   4.4700000000000004E-002     1.8696251339648615     
   4.4999999999999998E-002    0.52716074941889057     
   4.5300000000000000E-002   -0.60332133589317827     
   4.5600000000000002E-002    -1.5038575343009959     
   4.5899999999999996E-002    -2.1696897855460828     
   4.6200000000000005E-002    -2.6133814972117215     
   4.6500000000000000E-002    -2.8550101337667200     
   4.6799999999999994E-002    -2.9313787023754516     
   4.7100000000000003E-002    -2.8790317604156628     
   4.7399999999999998E-002    -2.7467902803309232     
   4.7700000000000006E-002    -2.5747662765577726     
   4.8000000000000001E-002    -2.4087446990961263     
   4.8300000000000010E-002    -2.2819460746512887     
   4.8600000000000004E-002    -2.2241734402593640     
   4.8899999999999999E-002    -2.2528663989823050     
   4.9200000000000008E-002    -2.3741024779414266     
   4.9500000000000002E-002    -2.5878659430514217     
   4.9800000000000011E-002    -2.8758185895350432     
   5.0100000000000006E-002    -3.2222989433137221     
   5.0400000000000000E-002    -3.5915916606421323     
   5.0700000000000009E-002    -3.9583125594357020     
   5.1000000000000004E-002    -4.2786000094678638     
   5.1299999999999998E-002    -4.5284726839384417     
   5.1600000000000007E-002    -4.6692202241376419     
   5.1900000000000002E-002    -4.6850731534417482     
   5.2200000000000010E-002    -4.5525644052521104     
   5.2500000000000005E-002    -4.2737529653949027     
   5.2800000000000000E-002    -3.8478050816054203     
   5.3099999999999994E-002    -3.2938905621819359     
   5.3400000000000003E-002    -2.6341642128419420     
   5.3699999999999998E-002    -1.9023597580592455     
   5.4000000000000006E-002    -1.1358458513062728     
   5.4300000000000001E-002   -0.37301759682682289     
   5.4599999999999996E-002    0.34398279376430707     
   5.4900000000000004E-002    0.98269904483146087     
   5.5199999999999999E-002     1.5107088519230480     
   5.5499999999999994E-002     1.9095170751993897     
   5.5800000000000002E-002     2.1640013596155105     
   5.6099999999999997E-002     2.2757676940840108     
   5.6400000000000006E-002     2.2500974061208292     
   5.6700000000000000E-002     2.1057292424752365     
   5.6999999999999995E-002     1.8644357051438909     
   5.7300000000000004E-002     1.5569413184950245     
   5.7599999999999998E-002     1.2146301913703408     
   5.7900000000000007E-002    0.86943354355655256     
   5.8200000000000002E-002    0.55254290176238929     
   5.8499999999999996E-002    0.28907145953958568     
   5.8800000000000005E-002    0.10150062808997451     
   5.9100000000000000E-002     1.5333901847863424E-003
   5.9400000000000008E-002    -3.1685643603293484E-003
   5.9700000000000003E-002     8.3100509267245354E-002
   6.0000000000000012E-002    0.25114859942519002     
   6.0300000000000006E-002    0.48251864942395384     
   6.0600000000000001E-002    0.75529690856687248     
   6.0900000000000010E-002     1.0426078525265003     
   6.1200000000000004E-002     1.3170222592869949     
   6.1500000000000013E-002     1.5521128617134139     
   6.1800000000000008E-002     1.7236343979028432     
   6.2100000000000002E-002     1.8151667439113297     
   6.2399999999999997E-002     1.8146074141313955     
   6.2700000000000006E-002     1.7213462969436566     
   6.3000000000000000E-002     1.5376524202273927     
   6.3300000000000009E-002     1.2793088562053962     
   6.3600000000000004E-002    0.96166958020132254     
   6.3899999999999998E-002    0.61059335241624835     
   6.4199999999999993E-002    0.24740994552626711     
   6.4500000000000002E-002   -0.10147335356183920     
   6.4800000000000010E-002   -0.41811872318681220     
   6.5100000000000005E-002   -0.68454113175014875     
   6.5400000000000000E-002   -0.89295162448523613     
   6.5700000000000008E-002    -1.0382960547408384     
   6.5999999999999989E-002    -1.1249842127187799     
   6.6299999999999998E-002    -1.1588023378209806     
   6.6600000000000006E-002    -1.1510812724832999     
   6.6900000000000001E-002    -1.1139728534223376     
   6.7199999999999996E-002    -1.0578875078288186     
   6.7500000000000004E-002   -0.99239470186981149     
   6.7800000000000013E-002   -0.92105545464319927     
   6.8099999999999994E-002   -0.84707190714371960     
   6.8400000000000002E-002   -0.76574965654991689     
   6.8700000000000011E-002   -0.67487147119315360     
   6.8999999999999992E-002   -0.56612476718121807     
   6.9300000000000000E-002   -0.43666148740211363     
   6.9600000000000009E-002   -0.28098703614805126     
   6.9900000000000004E-002   -0.10295221759592608     
   7.0199999999999999E-002     9.4518572198418541E-002
   7.0500000000000007E-002    0.29880528579607152     
   7.0800000000000016E-002    0.49905005984622319     
   7.1099999999999997E-002    0.67698928592373742     
   7.1400000000000005E-002    0.81853141462918333     
   7.1700000000000000E-002    0.90848161263030924     
   7.1999999999999995E-002    0.93733621871100581     
   7.2300000000000003E-002    0.90023107641879063     
   7.2600000000000012E-002    0.79922242709146885     
   7.2900000000000006E-002    0.64271690933883696     
   7.3200000000000001E-002    0.44457996351928347     
   7.3499999999999996E-002    0.22336426471216655     
   7.3800000000000004E-002    -1.3899194555967477E-003
   7.4099999999999999E-002   -0.20986748378996625     
   7.4400000000000008E-002   -0.38583723900459765     
   7.4700000000000003E-002   -0.51632723680008830     
   7.5000000000000011E-002   -0.59483477482874669     
   7.5299999999999992E-002   -0.62096592608484480     
   7.5600000000000001E-002   -0.59986463055742612     
   7.5900000000000009E-002   -0.54201403389077063     
   7.6200000000000004E-002   -0.45915586249257884     
   7.6499999999999999E-002   -0.36633924601158857     
   7.6800000000000007E-002   -0.27484483902602042     
   7.7099999999999988E-002   -0.19735439417451378     
   7.7399999999999997E-002   -0.13957353500447725     
   7.7700000000000005E-002   -0.10663122712710668     
   7.8000000000000014E-002    -9.5399790408134871E-002
   7.8299999999999995E-002   -0.10291793303102847     
   7.8600000000000003E-002   -0.12183324296564417     
   7.8900000000000012E-002   -0.14439257224642990     
   7.9199999999999993E-002   -0.16121996158491719     
   7.9500000000000001E-002   -0.16365175685227751     
   7.9800000000000010E-002   -0.14590793249614728     
   8.0100000000000018E-002   -0.10219702494074981     
   8.0399999999999999E-002    -3.2718010554940918E-002
   8.0700000000000008E-002     6.5061817753304760E-002
   8.1000000000000003E-002    0.18528998274473882     
   8.1299999999999997E-002    0.32556836063816791     
   8.1600000000000006E-002    0.47444770235725570     
   8.1900000000000014E-002    0.62667324978765937     
   8.2199999999999995E-002    0.76879777651820513     
   8.2500000000000004E-002    0.89294327913230409     
   8.2799999999999999E-002    0.98659486749372971     
   8.3100000000000007E-002     1.0426381326668972     
   8.3400000000000002E-002     1.0525867436904044     
   8.3700000000000011E-002     1.0119444845539483     
   8.4000000000000005E-002    0.92022641160745478     
   8.4300000000000000E-002    0.77895470804611588     
   8.4599999999999995E-002    0.59454652935003638     
   8.4900000000000003E-002    0.37433440792333145     
   8.5199999999999998E-002    0.13127624490718709     
   8.5500000000000007E-002   -0.12363305746767399     
   8.5800000000000001E-002   -0.37468282495311361     
   8.6100000000000010E-002   -0.60971322679733220     
   8.6399999999999991E-002   -0.81602176100982116     
   8.6699999999999999E-002   -0.98407275773831959     
   8.7000000000000008E-002    -1.1073166804185268     
   8.7300000000000003E-002    -1.1792946501095154     
   8.7599999999999997E-002    -1.2011494080668188     
   8.7900000000000006E-002    -1.1712039165423722     
   8.8200000000000014E-002    -1.0978502725817600     
   8.8499999999999995E-002   -0.98313833722599997     
   8.8800000000000004E-002   -0.83935435812665748     
   8.9100000000000013E-002   -0.67084512042041844     
   8.9399999999999993E-002   -0.49235127193163003     
   8.9700000000000002E-002   -0.30961494263981493     
   9.0000000000000011E-002   -0.13622249121062160     
   9.0299999999999991E-002     2.2327563160782573E-002
   9.0600000000000000E-002    0.15582673976307271     
   9.0900000000000009E-002    0.25988771290187140     
   9.1200000000000017E-002    0.33069737227611912     
   9.1499999999999998E-002    0.36581902014884105     
   9.1800000000000007E-002    0.36854757222967333     
   9.2100000000000001E-002    0.33961449522200754     
   9.2399999999999996E-002    0.28809775685903893     
   9.2700000000000005E-002    0.21731840623117876     
   9.3000000000000013E-002    0.14057410740486306     
   9.3300000000000008E-002     6.2230961099922433E-002
   9.3600000000000003E-002    -4.9515761700540456E-003
   9.3899999999999997E-002    -5.8150776133381210E-002
   9.4200000000000006E-002    -8.8134581944448787E-002
   9.4500000000000001E-002    -9.3616033893959547E-002
   9.4800000000000009E-002    -7.2149928923545478E-002
   9.5100000000000004E-002    -2.5072834231069225E-002
   9.5399999999999999E-002     4.2861962042414950E-002
   9.5699999999999993E-002    0.12912149100185510     
   9.6000000000000002E-002    0.22425285333168660     
   9.6300000000000011E-002    0.32594220283368874     
   9.6600000000000005E-002    0.42142711004647737     
   9.6900000000000000E-002    0.51015386576685728     
   9.7200000000000009E-002    0.57994076804639860     
   9.7499999999999989E-002    0.63187566448729271     
   9.7799999999999998E-002    0.65658041721235949     
   9.8100000000000007E-002    0.65731349540749795     
   9.8400000000000015E-002    0.62904730505129536     
   9.8699999999999996E-002    0.57608035556916581     
   9.9000000000000005E-002    0.49895054815373574     
   9.9300000000000013E-002    0.40196560005750809     
   9.9599999999999994E-002    0.29098986312288028     
   9.9900000000000003E-002    0.17034492656322278     
  0.10020000000000001          4.9559115117351817E-002
  0.10049999999999999         -6.8253029180076030E-002
  0.10080000000000000        -0.17262954103027847     
  0.10110000000000001        -0.26213531426794295     
  0.10140000000000000        -0.32755486553522345     
  0.10170000000000000        -0.36995880049416158     
  0.10200000000000001        -0.38453365525546462     
  0.10230000000000002        -0.37485624589726024     
  0.10260000000000000        -0.34165356959277277     
  0.10290000000000001        -0.28993995636469982     
  0.10320000000000000        -0.22528738267578238     
  0.10350000000000001        -0.15235114891119048     
  0.10380000000000000         -8.0638100058188028E-002
  0.10410000000000001         -1.2412067862317699E-002
  0.10440000000000001          4.1756165375408348E-002
  0.10470000000000000          8.2704480834944430E-002
  0.10500000000000000         0.10136193995014914     
  0.10530000000000000         0.10245437477604542     
  0.10560000000000000          7.9774755542632317E-002
  0.10590000000000001          4.0016552699978718E-002
  0.10620000000000000         -1.9649909249489950E-002
  0.10650000000000001         -9.0068947003611774E-002
  0.10679999999999999        -0.17023827875478481     
  0.10710000000000000        -0.25221623823435074     
  0.10740000000000001        -0.33202619843597797     
  0.10770000000000000        -0.40349088286931756     
  0.10800000000000000        -0.46006224451535366     
  0.10830000000000001        -0.49927438057305246     
  0.10859999999999999        -0.51436737814654832     
  0.10890000000000000        -0.50790546074602760     
  0.10920000000000001        -0.47408355099694527     
  0.10950000000000001        -0.41924525449062178     
  0.10979999999999999        -0.34073223113842538     
  0.11009999999999999        -0.24879122209288521     
  0.11040000000000001        -0.14295957341489657     
  0.11070000000000001         -3.4695195975686918E-002
  0.11100000000000000          7.4722524963795764E-002
  0.11130000000000000         0.17490584303953077     
  0.11160000000000002         0.26440684780480500     
  0.11190000000000001         0.33600197673601717     
  0.11220000000000001         0.38890836868376050     
  0.11250000000000000         0.42009837516966270     
  0.11280000000000000         0.43017954690238380     
  0.11309999999999999         0.42032663135929826     
  0.11340000000000001         0.39248256141100857     
  0.11369999999999998         0.34873203877179260     
  0.11400000000000000         0.29305307782770867     
  0.11430000000000000         0.22861814975999628     
  0.11460000000000002         0.16096160632139994     
  0.11489999999999999          9.1767962645373499E-002
  0.11520000000000001          2.7306723633572862E-002
  0.11550000000000001         -3.2676907872497933E-002
  0.11580000000000000         -8.0338079046680513E-002
  0.11609999999999999        -0.11814186978192595     
  0.11640000000000002        -0.13864142518789049     
  0.11670000000000001        -0.14851115040684401     
  0.11700000000000001        -0.14009464610106637     
  0.11730000000000000        -0.12251386323370543     
  0.11760000000000000         -8.9107367627663123E-002
  0.11789999999999999         -5.1148092891081832E-002
  0.11820000000000001         -3.8555904723571901E-003
  0.11850000000000001          4.1874245708741625E-002
  0.11880000000000000          9.0522963236194812E-002
  0.11910000000000000         0.13266051636549006     
  0.11940000000000002         0.17206513116259187     
  0.11970000000000001         0.20154408169760787     
  0.12000000000000001         0.22443169859330017     
  0.12030000000000000         0.23660721320331063     
  0.12060000000000000         0.24075226932929361     
  0.12089999999999999         0.23499159991113225     
  0.12119999999999999         0.21956791535178097     
  0.12150000000000001         0.19501579481833761     
  0.12180000000000001         0.16187597129545023     
  0.12210000000000000         0.12176227829708332     
  0.12239999999999999          7.3606629674019056E-002
  0.12270000000000002          2.0875341767418332E-002
  0.12300000000000001         -3.6123691216351589E-002
  0.12330000000000001         -9.3129064079354687E-002
  0.12360000000000000        -0.14939493761431707     
  0.12390000000000000        -0.20074111805130698     
  0.12419999999999999        -0.24583824383304739     
  0.12450000000000001        -0.28146086881335269     
  0.12480000000000001        -0.30682142228185577     
  0.12509999999999999        -0.32042868531619256     
  0.12540000000000001        -0.32191704315332759     
  0.12570000000000003        -0.31258623449134404     
  0.12600000000000000        -0.29289888080111814     
  0.12630000000000002        -0.26581155124685385     
  0.12659999999999999        -0.23174356418782899     
  0.12690000000000001        -0.19456552634708910     
  0.12719999999999998        -0.15453582325979415     
  0.12750000000000000        -0.11585810280953242     
  0.12780000000000002         -7.8631509168514538E-002
  0.12809999999999999         -4.6073177499098124E-002
  0.12840000000000001         -1.7505866219620032E-002
  0.12869999999999998          4.1341587322101725E-003
  0.12900000000000000          2.0155759185184873E-002
  0.12930000000000003          2.8191327175519882E-002
  0.12959999999999999          3.0595560703898260E-002
  0.12990000000000002          2.6121924733534450E-002
  0.13019999999999998          1.7074443144282300E-002
  0.13050000000000000          4.1702618744158485E-003
  0.13080000000000003         -1.0310152693978274E-002
  0.13109999999999999         -2.5835123438487918E-002
  0.13140000000000002         -3.9819793696123415E-002
  0.13169999999999998         -5.1046544222173924E-002
  0.13200000000000001         -5.8504001441405939E-002
  0.13229999999999997         -6.1561481239367326E-002
  0.13260000000000000         -6.0692766059319982E-002
  0.13290000000000002         -5.5555110377417893E-002
  0.13319999999999999         -4.7850409626270969E-002
  0.13350000000000001         -3.7669556681701473E-002
  0.13380000000000003         -2.6915299837655431E-002
  0.13410000000000000         -1.6068338930741603E-002
  0.13440000000000002         -5.9485454102939364E-003
  0.13469999999999999          2.8447679683228462E-003
  0.13500000000000001          1.1389371388482223E-002
  0.13529999999999998          1.8735964730450215E-002
  0.13560000000000000          2.7110258968242495E-002
  0.13590000000000002          3.5230061276851882E-002
  0.13619999999999999          4.6618616359329866E-002
  0.13650000000000001          5.8656008124096659E-002
  0.13680000000000003          7.5614814515522710E-002
  0.13710000000000000          9.3551124884332371E-002
  0.13740000000000002         0.11557707459595691     
  0.13769999999999999         0.13815724229931856     
  0.13800000000000001         0.16342148971638579     
  0.13829999999999998         0.18800105808197251     
  0.13860000000000000         0.21203807552755916     
  0.13890000000000002         0.23284824650200120     
  0.13919999999999999         0.24960986155118614     
  0.13950000000000001         0.26158078351204528     
  0.13979999999999998         0.26587431422316693     
  0.14010000000000000         0.26334749493163861     
  0.14040000000000002         0.25116254733922916     
  0.14069999999999999         0.23122536113745354     
  0.14100000000000001         0.20146942705967483     
  0.14130000000000004         0.16530623295490482     
  0.14160000000000000         0.12285847396064867     
  0.14189999999999997          7.6735016169898640E-002
  0.14219999999999999          2.9402213718536633E-002
  0.14250000000000002         -1.6500465015111796E-002
  0.14279999999999998         -5.6612954557367298E-002
  0.14310000000000000         -9.1136563446818156E-002
  0.14339999999999997        -0.11447678708549743     
  0.14369999999999999        -0.12921931792612121     
  0.14400000000000002        -0.13025785363020209     
  0.14429999999999998        -0.12341130008954052     
  0.14460000000000001        -0.10459000864399792     
  0.14490000000000003         -8.0068495623616273E-002
  0.14520000000000000         -4.8291766612459111E-002
  0.14550000000000002         -1.5752603784850012E-002
  0.14579999999999999          1.7912174615092057E-002
  0.14610000000000001          4.8708537112971607E-002
  0.14640000000000003          7.5048361070953501E-002
  0.14670000000000000          9.5908659860471313E-002
  0.14699999999999996         0.10825926281544243     
  0.14729999999999999         0.11442338918852465     
  0.14760000000000001         0.11071258231011552     
  0.14789999999999998         0.10170273788056429     
  0.14820000000000000          8.3386618073493624E-002