  -1.4999999999999999E-002     0.0000000000000000     
  -1.4700000000000000E-002     0.0000000000000000     
  -1.4400000000000000E-002     0.0000000000000000     
  -1.4100000000000000E-002     5.0306146295899914E-037
  -1.3800000000000000E-002     1.9187725331712215E-033
  -1.3500000000000000E-002     3.6750040106718028E-031
  -1.3200000000000000E-002    -4.3081903881811150E-030
  -1.2899999999999998E-002    -6.5009881509752706E-028
  -1.2600000000000000E-002     1.3447950105175618E-027
  -1.2299999999999998E-002     1.1580973236599181E-025
  -1.2000000000000000E-002    -3.6531475853709670E-025
  -1.1699999999999999E-002    -5.5593490671351424E-024
  -1.1399999999999999E-002     2.1657716512470240E-023
  -1.1099999999999999E-002     1.0377083289908948E-022
  -1.0799999999999999E-002    -4.7135558447166800E-022
  -1.0499999999999999E-002    -1.0014859810170373E-021
  -1.0199999999999999E-002     5.0315082985993003E-021
  -9.8999999999999991E-003     7.5121983578696116E-021
  -9.5999999999999992E-003    -3.2140842029948530E-020
  -9.2999999999999992E-003    -5.9566568520031610E-020
  -8.9999999999999993E-003     1.4451091673730822E-019
  -8.6999999999999994E-003     4.0763129266388341E-019
  -8.3999999999999995E-003    -4.4933551552506013E-019
  -8.0999999999999996E-003    -2.0447374732387240E-018
  -7.7999999999999988E-003     4.7459190493842352E-019
  -7.4999999999999997E-003     7.2094436242882780E-018
  -7.1999999999999998E-003     4.1563996660063157E-018
  -6.8999999999999981E-003    -1.5386514565630790E-017
  -6.5999999999999982E-003    -2.8393945420500687E-017
  -6.3000000000000000E-003    -2.2868516612664107E-018
  -6.0000000000000001E-003     8.7149452109236835E-017
  -5.6999999999999985E-003     1.8008474959093151E-016
  -5.3999999999999986E-003    -9.8651262255081620E-017
  -5.1000000000000004E-003    -8.2701768873226029E-016
  -4.7999999999999987E-003    -3.7346735170339033E-016
  -4.5000000000000005E-003     2.1172851000997880E-015
  -4.1999999999999989E-003     2.1822986755218246E-015
  -3.8999999999999990E-003    -2.9736758214456016E-015
  -3.5999999999999990E-003    -4.0553126714678882E-015
  -3.2999999999999991E-003    -5.7788444101867642E-016
  -2.9999999999999992E-003    -6.6738088290123924E-015
  -2.6999999999999993E-003     1.6477268919695906E-014
  -2.3999999999999994E-003     6.1476071170162612E-014
  -2.0999999999999977E-003    -5.2748303255020516E-014
  -1.7999999999999995E-003    -1.7135022770846943E-013
  -1.4999999999999979E-003     9.8311415026904717E-014
  -1.1999999999999997E-003     1.9470771902023265E-013
  -8.9999999999999976E-004    -9.2668784941444113E-014
  -5.9999999999999810E-004     2.6429079703139674E-013
  -2.9999999999999992E-004    -6.9011818540298977E-014
   0.0000000000000000         -1.4655411366200342E-012
   3.0000000000000165E-004     4.9148339979605857E-013
   5.9999999999999984E-004     2.2049334468714038E-012
   9.0000000000000149E-004    -1.3872637368611908E-012
   1.2000000000000031E-003     1.6284399431826951E-012
   1.5000000000000013E-003     3.3190366147809784E-012
   1.8000000000000030E-003    -1.5661074728008042E-011
   2.1000000000000012E-003    -5.9921775960400282E-012
   2.3999999999999994E-003     4.0604893160865815E-011
   2.7000000000000010E-003     2.5719053672053570E-012
   2.9999999999999992E-003    -6.6202166492414607E-011
   3.3000000000000008E-003     2.8546575605994237E-011
   3.6000000000000025E-003     7.9142821549356356E-011
   3.9000000000000007E-003    -1.1887810585621273E-010
   4.2000000000000023E-003    -8.7528817156723729E-011
   4.5000000000000005E-003     2.7384855426161135E-010
   4.7999999999999987E-003     1.2962894474630722E-010
   5.1000000000000004E-003    -4.2833179390570606E-010
   5.4000000000000020E-003    -2.2610404575697521E-010
   5.7000000000000037E-003     4.7391230652287394E-010
   5.9999999999999984E-003     3.1432550288604732E-010
   6.3000000000000000E-003    -3.9371206699247820E-010
   6.6000000000000017E-003    -2.9786521499066900E-010
   6.9000000000000034E-003     3.5028187362334123E-010
   7.2000000000000015E-003     2.4049593784993203E-010
   7.5000000000000032E-003    -4.9489463991971998E-010
   7.8000000000000014E-003    -4.3726356555610304E-010
   8.0999999999999996E-003     6.1514178580310428E-010
   8.4000000000000012E-003     1.0795370263723365E-009
   8.7000000000000029E-003    -1.7180888907063680E-010
   9.0000000000000011E-003    -1.7797163898292105E-009
   9.2999999999999992E-003    -1.0433730493601688E-009
   9.6000000000000009E-003     1.5743445854487188E-009
   9.8999999999999991E-003     2.2122191664973064E-009
   1.0200000000000001E-002     5.9369367075399111E-010
   1.0500000000000002E-002    -9.2571599880530671E-010
   1.0800000000000004E-002    -5.1887957739190205E-009
   1.1099999999999999E-002    -9.1825779806829088E-009
   1.1400000000000000E-002     7.5482553046961487E-009
   1.1700000000000002E-002     4.1371433612855624E-008
   1.2000000000000004E-002     1.8793855043332706E-008
   1.2300000000000002E-002    -1.0144999140226916E-007
   1.2600000000000000E-002    -1.3588415457671353E-007
   1.2900000000000002E-002     2.4438787920188407E-007
   1.3200000000000000E-002     1.1815988604287900E-006
   1.3500000000000002E-002     2.6552038812320587E-006
   1.3800000000000003E-002     4.6821194393209759E-006
   1.4100000000000001E-002     6.8161755746599104E-006
   1.4400000000000000E-002     8.3651016047214477E-006
   1.4700000000000001E-002     1.1697408936542333E-005
   1.4999999999999999E-002     2.4403753634832329E-005
   1.5300000000000001E-002     5.1816308120585273E-005
   1.5600000000000003E-002     8.5025360023041754E-005
   1.5899999999999997E-002     1.0541969675213438E-004
   1.6199999999999999E-002     1.0964798982110730E-004
   1.6500000000000001E-002     1.2183468350086832E-004
   1.6800000000000002E-002     1.6617935082594273E-004
   1.7100000000000004E-002     2.3113023957064172E-004
   1.7400000000000006E-002     2.7908658573532277E-004
   1.7700000000000000E-002     2.9186060090108151E-004
   1.8000000000000002E-002     2.8129406005013280E-004
   1.8300000000000004E-002     2.3955020061464935E-004
   1.8600000000000005E-002     9.2640974906405341E-005
   1.8900000000000000E-002    -2.8718813622923944E-004
   1.9200000000000002E-002    -1.0456670796942739E-003
   1.9500000000000003E-002    -2.3507882700286808E-003
   1.9799999999999998E-002    -4.4361383314185134E-003
   2.0100000000000000E-002    -7.6396262581349822E-003
   2.0400000000000001E-002    -1.2418319654866786E-002
   2.0700000000000003E-002    -1.9342291508814374E-002
   2.0999999999999998E-002    -2.9073338537340378E-002
   2.1299999999999999E-002    -4.2350449849446872E-002
   2.1600000000000001E-002    -5.9991314466702750E-002
   2.1900000000000003E-002    -8.2867173910477029E-002
   2.2200000000000004E-002   -0.11179332750914642     
   2.2500000000000006E-002   -0.14736163402214661     
   2.2800000000000001E-002   -0.18980792671356922     
   2.3100000000000002E-002   -0.23889322384731471     
   2.3400000000000004E-002   -0.29373114964124136     
   2.3699999999999999E-002   -0.35250428120858590     
   2.4000000000000000E-002   -0.41223947239942760     
   2.4300000000000002E-002   -0.46868772263946157     
   2.4599999999999997E-002   -0.51631013455708608     
   2.4900000000000005E-002   -0.54832194890387687     
   2.5200000000000000E-002   -0.55682482851133996     
   2.5499999999999995E-002   -0.53324153481459735     
   2.5800000000000003E-002   -0.46886597482530556     
   2.6099999999999998E-002   -0.35571254046260498     
   2.6400000000000007E-002   -0.18734276242317827     
   2.6700000000000002E-002     4.0013385700771044E-002
   2.6999999999999996E-002    0.32653836210548692     
   2.7300000000000005E-002    0.66778170741727028     
   2.7600000000000000E-002     1.0540703053018943     
   2.7900000000000008E-002     1.4700349198096874     
   2.8200000000000003E-002     1.8948985257208824     
   2.8499999999999998E-002     2.3031987206458071     
   2.8800000000000006E-002     2.6660753188146065     
   2.9100000000000001E-002     2.9531341124210786     
   2.9400000000000003E-002     3.1347827076004009     
   2.9700000000000004E-002     3.1850248893716282     
   3.0000000000000006E-002     3.0839208769804194     
   3.0300000000000001E-002     2.8203278303649268     
   3.0600000000000002E-002     2.3933999823746630     
   3.0900000000000004E-002     1.8144749418718571     
   3.1199999999999999E-002     1.1062623473458766     
   3.1500000000000007E-002    0.30325902855788572     
   3.1800000000000002E-002   -0.55160706835057871     
   3.2099999999999997E-002    -1.4084872201225924     
   3.2400000000000005E-002    -2.2157438723062866     
   3.2700000000000000E-002    -2.9226932919724229     
   3.3000000000000002E-002    -3.4850817877119979     
   3.3300000000000003E-002    -3.8675110293233859     
   3.3599999999999998E-002    -4.0476108466103664     
   3.3900000000000000E-002    -4.0173294074112640     
   3.4200000000000001E-002    -3.7843711039773842     
   3.4500000000000003E-002    -3.3710880889678574     
   3.4799999999999998E-002    -2.8132487194672025     
   3.5099999999999999E-002    -2.1569745786067327     
   3.5400000000000001E-002    -1.4554126117052353     
   3.5699999999999996E-002   -0.76438699906377350     
   3.6000000000000004E-002   -0.13858950935026243     
   3.6299999999999999E-002    0.37252747995905561     
   3.6600000000000008E-002    0.72779781459047088     
   3.6900000000000002E-002    0.89731574948008697     
   3.7199999999999997E-002    0.86364250166305101     
   3.7500000000000006E-002    0.62315544552698476     
   3.7800000000000000E-002    0.18563971248542449     
   3.8100000000000009E-002   -0.42626348256224378     
   3.8400000000000004E-002    -1.1787019815323030     
   3.8699999999999998E-002    -2.0283831684669402     
   3.9000000000000007E-002    -2.9250604701118998     
   3.9300000000000002E-002    -3.8138130779163442     
   3.9600000000000003E-002    -4.6374991869945763     
   3.9900000000000005E-002    -5.3398497795132940     
   4.0200000000000000E-002    -5.8676040490854184     
   4.0500000000000001E-002    -6.1741327449376957     
   4.0800000000000003E-002    -6.2206104816307821     
   4.1100000000000005E-002    -5.9798889791131229     
   4.1399999999999999E-002    -5.4373572908682721     
   4.1700000000000008E-002    -4.5937722802196941     
   4.2000000000000003E-002    -3.4651792399228087     
   4.2299999999999997E-002    -2.0842572076409005     
   4.2600000000000006E-002   -0.49832794981151429     
   4.2900000000000001E-002     1.2312586865812776     
   4.3200000000000002E-002     3.0325529438465670     
   4.3500000000000004E-002     4.8265565887939710     
   4.3799999999999999E-002     6.5318610036658260     
   4.4100000000000000E-002     8.0695901375671024     
   4.4400000000000002E-002     9.3689113596768614     
   4.4700000000000004E-002     10.371383003070745     
   4.4999999999999998E-002     11.035507133581415     
   4.5300000000000000E-002     11.339339127666321     
   4.5600000000000002E-002     11.282063564675461     
   4.5899999999999996E-002     10.882839930130185     
   4.6200000000000005E-002     10.179249568754400     
   4.6500000000000000E-002     9.2224943969267894     
   4.6799999999999994E-002     8.0730193232079941     
   4.7100000000000003E-002     6.7932279114267979     
   4.7399999999999998E-002     5.4423374341224688     
   4.7700000000000006E-002     4.0705699796227863     
   4.8000000000000001E-002     2.7150115517633600     
   4.8300000000000010E-002     1.3985687142867009     
   4.8600000000000004E-002    0.12951134909061768     
   4.8899999999999999E-002    -1.0939326771511426     
   4.9200000000000008E-002    -2.2798563970860428     
   4.9500000000000002E-002    -3.4334035341715960     
   4.9800000000000011E-002    -4.5519817887114336     
   5.0100000000000006E-002    -5.6149013401817234     
   5.0400000000000000E-002    -6.5823080515860148     
   5.0700000000000009E-002    -7.3886141411054460     
   5.1000000000000004E-002    -7.9489953778732190     
   5.1299999999999998E-002    -8.1613779251954774     
   5.1600000000000007E-002    -7.9212182845035066     
   5.1900000000000002E-002    -7.1306184449125380     
   5.2200000000000010E-002    -5.7181137548379333     
   5.2500000000000005E-002    -3.6504244282828227     
   5.2800000000000000E-002   -0.94901353119502252     
   5.3099999999999994E-002     2.3038951329019350     
   5.3400000000000003E-002     5.9588939393052129     
   5.3699999999999998E-002     9.8060827918419413     
   5.4000000000000006E-002     13.583450209113053     
   5.4300000000000001E-002     16.997843707452439     
   5.4599999999999996E-002     19.744924184916862     
   5.4900000000000004E-002     21.538495669995960     
   5.5199999999999999E-002     22.135237703246389     
   5.5499999999999994E-002     21.360657955303374     
   5.5800000000000002E-002     19.127788079871500     
   5.6099999999999997E-002     15.449751789813781     
   5.6400000000000006E-002     10.443546087344266     
   5.6700000000000000E-002     4.3250167472497187     
   5.6999999999999995E-002    -2.6064553812190336     
   5.7300000000000004E-002    -9.9875232146866342     
   5.7599999999999998E-002    -17.418388523950867     
   5.7900000000000007E-002    -24.491941378402014     
   5.8200000000000002E-002    -30.822816167471238     
   5.8499999999999996E-002    -36.074020468670298     
   5.8800000000000005E-002    -39.978802537463778     
   5.9100000000000000E-002    -42.355203542732674     
   5.9400000000000008E-002    -43.115067728127308     
   5.9700000000000003E-002    -42.262489037219389     
   6.0000000000000012E-002    -39.889486959545422     
   6.0300000000000006E-002    -36.160589740085030     
   6.0600000000000001E-002    -31.299488013967341     
   6.0900000000000010E-002    -25.566445691955149     
   6.1200000000000004E-002    -19.241894777492014     
   6.1500000000000013E-002    -12.606480666584858     
   6.1800000000000008E-002    -5.9236656125234362     
   6.2100000000000002E-002    0.56971170570705887     
   6.2399999999999997E-002     6.6755489910390899     
   6.2700000000000006E-002     12.235139245478830     
   6.3000000000000000E-002     17.136156726971116     
   6.3300000000000009E-002     21.304400934109637     
   6.3600000000000004E-002     24.705197834124267     
   6.3899999999999998E-002     27.334591346953530     
   6.4199999999999993E-002     29.214430650353698     
   6.4500000000000002E-002     30.385878715682914     
   6.4800000000000010E-002     30.901909496891740     
   6.5100000000000005E-002     30.825365737774732     
   6.5400000000000000E-002     30.218110057970037     
   6.5700000000000008E-002     29.145626711792431     
   6.5999999999999989E-002     27.664688893331363     
   6.6299999999999998E-002     25.832401987012034     
   6.6600000000000006E-002     23.693683503105682     
   6.6900000000000001E-002     21.294417727199249     
   6.7199999999999996E-002     18.669905750273081     
   6.7500000000000004E-002     15.859303835332771     
   6.7800000000000013E-002     12.894777768052641     
   6.8099999999999994E-002     9.8185901330757517     
   6.8400000000000002E-002     6.6701664935648317     
   6.8700000000000011E-002     3.5031256152765202     
   6.8999999999999992E-002    0.37029691539479437     
   6.9300000000000000E-002    -2.6623352575294907     
   6.9600000000000009E-002    -5.5299234571824867     
   6.9900000000000004E-002    -8.1609932159657159     
   7.0199999999999999E-002    -10.491087095747492     
   7.0500000000000007E-002    -12.458254882051655     
   7.0800000000000016E-002    -14.016460447503123     
   7.1099999999999997E-002    -15.129913388779119     
   7.1400000000000005E-002    -15.785859006783859     
   7.1700000000000000E-002    -15.987113205465633     
   7.1999999999999995E-002    -15.761322737002747     
   7.2300000000000003E-002    -15.150779763207744     
   7.2600000000000012E-002    -14.219139043516240     
   7.2900000000000006E-002    -13.037762004108766     
   7.3200000000000001E-002    -11.691072363998694     
   7.3499999999999996E-002    -10.261018412371175     
   7.3800000000000004E-002    -8.8327829450565538     
   7.4099999999999999E-002    -7.4772968854270978     
   7.4400000000000008E-002    -6.2590607539145076     
   7.4700000000000003E-002    -5.2208028060217231     
   7.5000000000000011E-002    -4.3921341315173246     
   7.5299999999999992E-002    -3.7775131369125496     
   7.5600000000000001E-002    -3.3665146871408371     
   7.5900000000000009E-002    -3.1268907911892221     
   7.6200000000000004E-002    -3.0154325398677257     
   7.6499999999999999E-002    -2.9753288614598676     
   7.6800000000000007E-002    -2.9471960579815266     
   7.7099999999999988E-002    -2.8697527859638718     
   7.7399999999999997E-002    -2.6890300929832138     
   7.7700000000000005E-002    -2.3606132571726590     
   7.8000000000000014E-002    -1.8554812009807122     
   7.8299999999999995E-002    -1.1623354342711927     
   7.8600000000000003E-002   -0.28736006023169203     
   7.8900000000000012E-002    0.74344381161943940     
   7.9199999999999993E-002     1.8900042492204665     
   7.9500000000000001E-002     3.0970123441293338     
   7.9800000000000010E-002     4.3030731514888618     
   8.0100000000000018E-002     5.4406726859529062     
   8.0399999999999999E-002     6.4470828283702826     
   8.0700000000000008E-002     7.2621508162798740     
   8.1000000000000003E-002     7.8401880999560092     
   8.1299999999999997E-002     8.1456384232750878     
   8.1600000000000006E-002     8.1641609146887912     
   8.1900000000000014E-002     7.8941895323528346     
   8.2199999999999995E-002     7.3562536536890235     
   8.2500000000000004E-002     6.5827118704074206     
   8.2799999999999999E-002     5.6244385594698914     
   8.3100000000000007E-002     4.5375210691225440     
   8.3400000000000002E-002     3.3904036113976019     
   8.3700000000000011E-002     2.2476770354189202     
   8.4000000000000005E-002     1.1763310591979779     
   8.4300000000000000E-002    0.23052129709188457     
   8.4599999999999995E-002   -0.54046313643521415     
   8.4900000000000003E-002    -1.1080652943551863     
   8.5199999999999998E-002    -1.4536872318722185     
   8.5500000000000007E-002    -1.5822372512436083     
   8.5800000000000001E-002    -1.5078092079362890     
   8.6100000000000010E-002    -1.2656992279154697     
   8.6399999999999991E-002   -0.89569374680331948     
   8.6699999999999999E-002   -0.45140148064489471     
   8.7000000000000008E-002     1.7355119266763315E-002
   8.7300000000000003E-002    0.45542803160937345     
   8.7599999999999997E-002    0.82072337250992611     
   8.7900000000000006E-002     1.0729942457981649     
   8.8200000000000014E-002     1.1902848275870987     
   8.8499999999999995E-002     1.1567454199677352     
   8.8800000000000004E-002    0.97680101071790881     
   8.9100000000000013E-002    0.65948161377545478     
   8.9399999999999993E-002    0.23080038402167058     
   8.9700000000000002E-002   -0.28280193961097877     
   9.0000000000000011E-002   -0.84310426130720484     
   9.0299999999999991E-002    -1.4176326819046345     
   9.0600000000000000E-002    -1.9680335882229114     
   9.0900000000000009E-002    -2.4667363268009037     
   9.1200000000000017E-002    -2.8841574724823404     
   9.1499999999999998E-002    -3.2043610996655763     
   9.1800000000000007E-002    -3.4101802386315461     
   9.2100000000000001E-002    -3.4978932837914800     
   9.2399999999999996E-002    -3.4627639076394439     
   9.2700000000000005E-002    -3.3110797754180386     
   9.3000000000000013E-002    -3.0470320724214406     
   9.3300000000000008E-002    -2.6836817652539739     
   9.3600000000000003E-002    -2.2322209249716143     
   9.3899999999999997E-002    -1.7111793421053594     
   9.4200000000000006E-002    -1.1375152808407483     
   9.4500000000000001E-002   -0.53526990381718687     
   9.4800000000000009E-002     7.2350231293537931E-002
   9.5100000000000004E-002    0.65728816070477902     
   9.5399999999999999E-002     1.1923452668363281     
   9.5699999999999993E-002     1.6495513348605835     
   9.6000000000000002E-002     2.0036158669029476     
   9.6300000000000011E-002     2.2334151398971427     
   9.6600000000000005E-002     2.3252797830887899     
   9.6900000000000000E-002     2.2736608911058949     
   9.7200000000000009E-002     2.0829717970138319     
   9.7499999999999989E-002     1.7677755232968975     
   9.7799999999999998E-002     1.3522776223335176     
   9.8100000000000007E-002    0.86932921652722683     
   9.8400000000000015E-002    0.35616274291096750     
   9.8699999999999996E-002   -0.14704368068543699     
   9.9000000000000005E-002   -0.60207744359462700     
   9.9300000000000013E-002   -0.97536258992579539     
   9.9599999999999994E-002    -1.2413644983760024     
   9.9900000000000003E-002    -1.3835187764485997     
  0.10020000000000001         -1.3977936682413472     
  0.10049999999999999         -1.2893959573081339     
  0.10080000000000000         -1.0749311828982246     
  0.10110000000000001        -0.77664941968292112     
  0.10140000000000000        -0.42468754950403520     
  0.10170000000000000         -4.8152170400851776E-002
  0.10200000000000001         0.32036911690105863     
  0.10230000000000002         0.65552104892560858     
  0.10260000000000000         0.93193745284631280     
  0.10290000000000001          1.1359980251377619     
  0.10320000000000000          1.2559293766947546     
  0.10350000000000001          1.2920292479995368     
  0.10380000000000000          1.2458226922555917     
  0.10410000000000001          1.1309809375653308     
  0.10440000000000001         0.95930518051237135     
  0.10470000000000000         0.75211353997231878     
  0.10500000000000000         0.52592963568286732     
  0.10530000000000000         0.30374431366471816     
  0.10560000000000000         0.10071890695090832     
  0.10590000000000001         -6.4987139260309967E-002
  0.10620000000000000        -0.18523576554310386     
  0.10650000000000001        -0.25022992136681554     
  0.10679999999999999        -0.26233098837963781     
  0.10710000000000000        -0.22181118371991598     
  0.10740000000000001        -0.14084384704873312     
  0.10770000000000000         -2.8194517632938537E-002
  0.10800000000000000          9.7496195648511780E-002
  0.10830000000000001         0.22413611176440582     
  0.10859999999999999         0.33176952489902445     
  0.10890000000000000         0.41021319309082516     
  0.10920000000000001         0.44379071195690534     
  0.10950000000000001         0.42895792955855339     
  0.10979999999999999         0.35845921378083911     
  0.11009999999999999         0.23753766523484288     
  0.11040000000000001          6.7419201214002744E-002
  0.11070000000000001        -0.13800580530249931     
  0.11100000000000000        -0.36961823637026586     
  0.11130000000000000        -0.60874795401500703     
  0.11160000000000002        -0.84232031078635528     
  0.11190000000000001         -1.0510001209965905     
  0.11220000000000001         -1.2222098608935439     
  0.11250000000000000         -1.3407753753572933     
  0.11280000000000000         -1.3993095046306472     
  0.11309999999999999         -1.3906051661129961     
  0.11340000000000001         -1.3149030467708107     
  0.11369999999999998         -1.1750524248551597     
  0.11400000000000000        -0.97932605926515959     
  0.11430000000000000        -0.73879492705911931     
  0.11460000000000002        -0.46760642293327104     
  0.11489999999999999        -0.18207859114229885     
  0.11520000000000001         0.10204666716916115     
  0.11550000000000001         0.36847500949270923     
  0.11580000000000000         0.60386054797747002     
  0.11609999999999999         0.79586459803747156     
  0.11640000000000002         0.93722577567500975     
  0.11670000000000001          1.0220176481750087     
  0.11700000000000001          1.0503940791717761     
  0.11730000000000000          1.0237975135183064     
  0.11760000000000000         0.94918944737080024     
  0.11789999999999999         0.83362906115918267     
  0.11820000000000001         0.68904356037199632     
  0.11850000000000001         0.52611707327422241     
  0.11880000000000000         0.35857555723636286     
  0.11910000000000000         0.19695916995100315     
  0.11940000000000002          5.3504772549491264E-002
  0.11970000000000001         -6.4104339849320555E-002
  0.12000000000000001        -0.14855095782254393     
  0.12030000000000000        -0.19750896043068528     
  0.12060000000000000        -0.20983228730933412     
  0.12089999999999999        -0.18918148781385752     
  0.12119999999999999        -0.14047455927456215     
  0.12150000000000001         -7.2118783207327231E-002
  0.12180000000000001          7.6188755590233283E-003
  0.12210000000000000          8.8766156280847081E-002
  0.12239999999999999         0.16278762792565202     
  0.12270000000000002         0.22095084078922012     
  0.12300000000000001         0.25780107516858536     
  0.12330000000000001         0.26811267313119636     
  0.12360000000000000         0.25119777630100282     
  0.12390000000000000         0.20582016688116400     
  0.12419999999999999         0.13578609943498238     
  0.12450000000000001          4.3079837540101737E-002
  0.12480000000000001         -6.4614158076209377E-002
  0.12509999999999999        -0.18311422012427009     
  0.12540000000000001        -0.30271918532766512     
  0.12570000000000003        -0.41892162508617692     
  0.12600000000000000        -0.52161105025316912     
  0.12630000000000002        -0.60686589803928115     
  0.12659999999999999        -0.66659329886285879     
  0.12690000000000001        -0.69927688735683569     
  0.12719999999999998        -0.69981602420441269     
  0.12750000000000000        -0.67011124295787639     
  0.12780000000000002        -0.61015888686110409     
  0.12809999999999999        -0.52506306025168326     
  0.12840000000000001        -0.41910398425965617     
  0.12869999999999998        -0.29920744660108656     
  0.12900000000000000        -0.17351337023443456     
  0.12930000000000003         -4.8570326503985531E-002
  0.12959999999999999          6.6825245570110881E-002
  0.12990000000000002         0.16886979591854034     
  0.13019999999999998         0.24961599786082872     
  0.13050000000000000         0.30955855455630465     
  0.13080000000000003         0.34297028910773641     
  0.13109999999999999         0.35450877850494994     
  0.13140000000000002         0.34154635035716463     
  0.13169999999999998         0.31214857805943291     
  0.13200000000000001         0.26557582585059503     
  0.13229999999999997         0.21159285559090191     
  0.13260000000000000         0.15133320934728794     
  0.13290000000000002          9.4917202078574958E-002
  0.13319999999999999          4.4057122027048361E-002
  0.13350000000000001          7.1789037782962386E-003
  0.13380000000000003         -1.4284390628417663E-002
  0.13410000000000000         -1.4926562323705813E-002
  0.13440000000000002          4.3591602371717691E-003
  0.13469999999999999          4.5289454865286807E-002
  0.13500000000000001         0.10370525477906270     
  0.13529999999999998         0.17729346277600991     
  0.13560000000000000         0.25906460435308504     
  0.13590000000000002         0.34396621682146150     
  0.13619999999999999         0.42379430990018285     
  0.13650000000000001         0.49314380446711226     
  0.13680000000000003         0.54460323911816555     
  0.13710000000000000         0.57494432224629533     
  0.13740000000000002         0.57962516041061263     
  0.13769999999999999         0.55883712959590548     
  0.13800000000000001         0.51147692948341927     
  0.13829999999999998         0.44130054054482726     
  0.13860000000000000         0.35062668780956618     
  0.13890000000000002         0.24512852085341180     
  0.13919999999999999         0.12927422546903689     
  0.13950000000000001          9.5123519933830586E-003
  0.13979999999999998        -0.10873475116003284     
  0.14010000000000000        -0.21981086286629589     
  0.14040000000000002        -0.31786539143871584     
  0.14069999999999999        -0.39935784969576882     
  0.14100000000000001        -0.45915070876849118     
  0.14130000000000004        -0.49657356765873661     
  0.14160000000000000        -0.50773223778752707     
  0.14189999999999997        -0.49584224329881155     
  0.14219999999999999        -0.45863810702311325     
  0.14250000000000002        -0.40357272016492718     
  0.14279999999999998        -0.32998721476405168     
  0.14310000000000000        -0.24856032159965225     
  0.14339999999999997        -0.15958519628101608     
  0.14369999999999999         -7.4729538310135221E-002
  0.14400000000000002          6.5441178956610682E-003
  0.14429999999999998          7.3093620010609844E-002
  0.14460000000000001         0.12754183716035444     
  0.14490000000000003         0.16121811130246372     
  0.14520000000000000         0.17953879880214069     
  0.14550000000000002         0.17633561892371311     
  0.14579999999999999         0.15930566455202977     
  0.14610000000000001         0.12464774860520239     
  0.14640000000000003          8.1604214682135329E-002
  0.14670000000000000          2.7534016849846112E-002
  0.14699999999999996         -2.7748615833871351E-002
  0.14729999999999999         -8.6258232299321030E-002
  0.14760000000000001        -0.13847504275381664     
  0.14789999999999998        -0.18638791052511228     
  0.14820000000000000        -0.22145931178975742     