  -1.4999999999999999E-002     0.0000000000000000     
  -1.4700000000000000E-002     0.0000000000000000     
  -1.4400000000000000E-002     0.0000000000000000     
  -1.4100000000000000E-002     0.0000000000000000     
  -1.3800000000000000E-002     0.0000000000000000     
  -1.3500000000000000E-002     0.0000000000000000     
  -1.3200000000000000E-002     0.0000000000000000     
  -1.2899999999999998E-002     0.0000000000000000     
  -1.2600000000000000E-002     0.0000000000000000     
  -1.2299999999999998E-002     0.0000000000000000     
  -1.2000000000000000E-002     0.0000000000000000     
  -1.1699999999999999E-002     0.0000000000000000     
  -1.1399999999999999E-002     0.0000000000000000     
  -1.1099999999999999E-002     0.0000000000000000     
  -1.0799999999999999E-002     0.0000000000000000     
  -1.0499999999999999E-002     0.0000000000000000     
  -1.0199999999999999E-002     0.0000000000000000     
  -9.8999999999999991E-003     0.0000000000000000     
  -9.5999999999999992E-003     0.0000000000000000     
  -9.2999999999999992E-003     0.0000000000000000     
  -8.9999999999999993E-003     0.0000000000000000     
  -8.6999999999999994E-003     0.0000000000000000     
  -8.3999999999999995E-003     0.0000000000000000     
  -8.0999999999999996E-003     0.0000000000000000     
  -7.7999999999999988E-003     0.0000000000000000     
  -7.4999999999999997E-003     0.0000000000000000     
  -7.1999999999999998E-003     0.0000000000000000     
  -6.8999999999999981E-003     0.0000000000000000     
  -6.5999999999999982E-003     0.0000000000000000     
  -6.3000000000000000E-003     0.0000000000000000     
  -6.0000000000000001E-003     0.0000000000000000     
  -5.6999999999999985E-003     0.0000000000000000     
  -5.3999999999999986E-003     0.0000000000000000     
  -5.1000000000000004E-003     0.0000000000000000     
  -4.7999999999999987E-003     0.0000000000000000     
  -4.5000000000000005E-003     0.0000000000000000     
  -4.1999999999999989E-003     0.0000000000000000     
  -3.8999999999999990E-003     0.0000000000000000     
  -3.5999999999999990E-003     0.0000000000000000     
  -3.2999999999999991E-003     0.0000000000000000     
  -2.9999999999999992E-003     0.0000000000000000     
  -2.6999999999999993E-003     0.0000000000000000     
  -2.3999999999999994E-003     0.0000000000000000     
  -2.0999999999999977E-003     0.0000000000000000     
  -1.7999999999999995E-003     0.0000000000000000     
  -1.4999999999999979E-003     0.0000000000000000     
  -1.1999999999999997E-003     0.0000000000000000     
  -8.9999999999999976E-004     0.0000000000000000     
  -5.9999999999999810E-004     0.0000000000000000     
  -2.9999999999999992E-004     0.0000000000000000     
   0.0000000000000000          0.0000000000000000     
   3.0000000000000165E-004     0.0000000000000000     
   5.9999999999999984E-004     0.0000000000000000     
   9.0000000000000149E-004     0.0000000000000000     
   1.2000000000000031E-003     0.0000000000000000     
   1.5000000000000013E-003     0.0000000000000000     
   1.8000000000000030E-003     0.0000000000000000     
   2.1000000000000012E-003     0.0000000000000000     
   2.3999999999999994E-003     0.0000000000000000     
   2.7000000000000010E-003     0.0000000000000000     
   2.9999999999999992E-003     0.0000000000000000     
   3.3000000000000008E-003     0.0000000000000000     
   3.6000000000000025E-003     0.0000000000000000     
   3.9000000000000007E-003     0.0000000000000000     
   4.2000000000000023E-003     0.0000000000000000     
   4.5000000000000005E-003     0.0000000000000000     
   4.7999999999999987E-003     0.0000000000000000     
   5.1000000000000004E-003     0.0000000000000000     
   5.4000000000000020E-003     0.0000000000000000     
   5.7000000000000037E-003     0.0000000000000000     
   5.9999999999999984E-003     0.0000000000000000     
   6.3000000000000000E-003     0.0000000000000000     
   6.6000000000000017E-003     0.0000000000000000     
   6.9000000000000034E-003     0.0000000000000000     
   7.2000000000000015E-003     0.0000000000000000     
   7.5000000000000032E-003     0.0000000000000000     
   7.8000000000000014E-003     0.0000000000000000     
   8.0999999999999996E-003     0.0000000000000000     
   8.4000000000000012E-003     0.0000000000000000     
   8.7000000000000029E-003     0.0000000000000000     
   9.0000000000000011E-003     0.0000000000000000     
   9.2999999999999992E-003     0.0000000000000000     
   9.6000000000000009E-003     0.0000000000000000     
   9.8999999999999991E-003     0.0000000000000000     
   1.0200000000000001E-002     0.0000000000000000     
   1.0500000000000002E-002     0.0000000000000000     
   1.0800000000000004E-002     0.0000000000000000     
   1.1099999999999999E-002     0.0000000000000000     
   1.1400000000000000E-002     0.0000000000000000     
   1.1700000000000002E-002     0.0000000000000000     
   1.2000000000000004E-002     0.0000000000000000     
   1.2300000000000002E-002     0.0000000000000000     
   1.2600000000000000E-002     0.0000000000000000     
   1.2900000000000002E-002     0.0000000000000000     
   1.3200000000000000E-002     0.0000000000000000     
   1.3500000000000002E-002     0.0000000000000000     
   1.3800000000000003E-002     0.0000000000000000     
   1.4100000000000001E-002     0.0000000000000000     
   1.4400000000000000E-002     0.0000000000000000     
   1.4700000000000001E-002     0.0000000000000000     
   1.4999999999999999E-002     0.0000000000000000     
   1.5300000000000001E-002     0.0000000000000000     
   1.5600000000000003E-002     0.0000000000000000     
   1.5899999999999997E-002     0.0000000000000000     
   1.6199999999999999E-002     0.0000000000000000     
   1.6500000000000001E-002     0.0000000000000000     
   1.6800000000000002E-002     0.0000000000000000     
   1.7100000000000004E-002     0.0000000000000000     
   1.7400000000000006E-002     0.0000000000000000     
   1.7700000000000000E-002     0.0000000000000000     
   1.8000000000000002E-002     0.0000000000000000     
   1.8300000000000004E-002     0.0000000000000000     
   1.8600000000000005E-002     0.0000000000000000     
   1.8900000000000000E-002     0.0000000000000000     
   1.9200000000000002E-002     0.0000000000000000     
   1.9500000000000003E-002     0.0000000000000000     
   1.9799999999999998E-002     0.0000000000000000     
   2.0100000000000000E-002     0.0000000000000000     
   2.0400000000000001E-002     0.0000000000000000     
   2.0700000000000003E-002     0.0000000000000000     
   2.0999999999999998E-002     0.0000000000000000     
   2.1299999999999999E-002     0.0000000000000000     
   2.1600000000000001E-002     0.0000000000000000     
   2.1900000000000003E-002     0.0000000000000000     
   2.2200000000000004E-002     0.0000000000000000     
   2.2500000000000006E-002     0.0000000000000000     
   2.2800000000000001E-002     0.0000000000000000     
   2.3100000000000002E-002     0.0000000000000000     
   2.3400000000000004E-002     0.0000000000000000     
   2.3699999999999999E-002     0.0000000000000000     
   2.4000000000000000E-002     0.0000000000000000     
   2.4300000000000002E-002     0.0000000000000000     
   2.4599999999999997E-002     0.0000000000000000     
   2.4900000000000005E-002     0.0000000000000000     
   2.5200000000000000E-002     0.0000000000000000     
   2.5499999999999995E-002     0.0000000000000000     
   2.5800000000000003E-002     0.0000000000000000     
   2.6099999999999998E-002     0.0000000000000000     
   2.6400000000000007E-002     0.0000000000000000     
   2.6700000000000002E-002     0.0000000000000000     
   2.6999999999999996E-002     0.0000000000000000     
   2.7300000000000005E-002     0.0000000000000000     
   2.7600000000000000E-002     0.0000000000000000     
   2.7900000000000008E-002     0.0000000000000000     
   2.8200000000000003E-002     0.0000000000000000     
   2.8499999999999998E-002     0.0000000000000000     
   2.8800000000000006E-002    -1.0340048085073278E-042
   2.9100000000000001E-002     1.5128148421917115E-042
   2.9400000000000003E-002    -4.3765276289914405E-041
   2.9700000000000004E-002     3.8367955638816786E-038
   3.0000000000000006E-002    -3.9559793214355414E-038
   3.0300000000000001E-002     4.4850850686816931E-038
   3.0600000000000002E-002    -1.4602995346392920E-036
   3.0900000000000004E-002     9.6672353569110490E-035
   3.1199999999999999E-002    -4.1586564517247328E-034
   3.1500000000000007E-002     1.2458522326870343E-033
   3.1800000000000002E-002    -2.4092181642020341E-033
   3.2099999999999997E-002     7.4659248483389278E-033
   3.2400000000000005E-002    -3.3591181769523798E-032
   3.2700000000000000E-002     1.5112388038407022E-031
   3.3000000000000002E-002    -6.3965900480518374E-031
   3.3300000000000003E-002     2.5374387485660555E-030
   3.3599999999999998E-002    -9.3554402690597103E-030
   3.3900000000000000E-002     3.1613643207008262E-029
   3.4200000000000001E-002    -9.6433092770889134E-029
   3.4500000000000003E-002     2.6226508281127786E-028
   3.4799999999999998E-002    -6.3410853963730604E-028
   3.5099999999999999E-002     1.3952862667999698E-027
   3.5400000000000001E-002    -3.0200290920979552E-027
   3.5699999999999996E-002     7.1252093515247066E-027
   3.6000000000000004E-002    -1.7264381345486013E-026
   3.6299999999999999E-002     2.6791740323787115E-026
   3.6600000000000008E-002     7.6062799075079107E-026
   3.6900000000000002E-002    -9.3164805647918542E-025
   3.7199999999999997E-002     5.0316220968462517E-024
   3.7500000000000006E-002    -1.9396353739969046E-023
   3.7800000000000000E-002     5.6314816665456168E-023
   3.8100000000000009E-002    -1.1175126800119336E-022
   3.8400000000000004E-002     5.4721133918416199E-023
   3.8699999999999998E-002     6.9840120092845147E-022
   3.9000000000000007E-002    -3.7119862308511108E-021
   3.9300000000000002E-002     1.1153349580072423E-020
   3.9600000000000003E-002    -1.9999250192523806E-020
   3.9900000000000005E-002     1.4729664717664130E-021
   4.0200000000000000E-002     1.3576337740701973E-019
   4.0500000000000001E-002    -5.3349409437631688E-019
   4.0800000000000003E-002     1.0754282488409666E-018
   4.1100000000000005E-002    -3.8683659176866965E-019
   4.1399999999999999E-002    -5.4368214000219064E-018
   4.1700000000000008E-002     2.0242315631596337E-017
   4.2000000000000003E-002    -3.1292645714917161E-017
   4.2299999999999997E-002    -2.3800488856215712E-017
   4.2600000000000006E-002     2.4750838094420896E-016
   4.2900000000000001E-002    -5.4915801218734218E-016
   4.3200000000000002E-002     8.6909900394103208E-017
   4.3500000000000004E-002     2.7317305421651114E-015
   4.3799999999999999E-002    -6.9394887170040961E-015
   4.4100000000000000E-002     1.4770244294421811E-015
   4.4400000000000002E-002     3.2069477528030177E-014
   4.4700000000000004E-002    -7.1464374032944687E-014
   4.4999999999999998E-002    -2.2906556408675213E-014
   4.5300000000000000E-002     3.8414622492880696E-013
   4.5600000000000002E-002    -5.1944349190368638E-013
   4.5899999999999996E-002    -1.0022975454816367E-012
   4.6200000000000005E-002     3.7807318381969861E-012
   4.6500000000000000E-002    -3.0458503038055258E-013
   4.6799999999999994E-002    -1.6469656008791990E-011
   4.7100000000000003E-002     1.8509171782598100E-011
   4.7399999999999998E-002     5.4127112966842122E-011
   4.7700000000000006E-002    -1.2279717343377175E-010
   4.8000000000000001E-002    -1.4325756737552472E-010
   4.8300000000000010E-002     5.9349679747910575E-010
   4.8600000000000004E-002     3.1956654339019158E-010
   4.8899999999999999E-002    -2.5191551969304510E-009
   4.9200000000000008E-002    -7.4203506642567235E-010
   4.9500000000000002E-002     1.0092155372077673E-008
   4.9800000000000011E-002     3.2559666106975079E-009
   5.0100000000000006E-002    -3.9150401822024923E-008
   5.0400000000000000E-002    -2.6263695253639359E-008
   5.0700000000000009E-002     1.3213764911717413E-007
   5.1000000000000004E-002     1.6303427734608970E-007
   5.1299999999999998E-002    -4.0131086886550881E-007
   5.1600000000000007E-002    -9.2030195138696815E-007
   5.1900000000000002E-002     1.3187763321271550E-006
   5.2200000000000010E-002     9.3520510488070658E-006
   5.2500000000000005E-002     2.3133878653994239E-005
   5.2800000000000000E-002     3.9318280717121008E-005
   5.3099999999999994E-002     5.6230333153727650E-005
   5.3400000000000003E-002     7.8943675149081328E-005
   5.3699999999999998E-002     1.1825845760591512E-004
   5.4000000000000006E-002     1.8458343631339816E-004
   5.4300000000000001E-002     2.8427844039178901E-004
   5.4599999999999996E-002     4.2439139939563341E-004
   5.4900000000000004E-002     6.2248963849477652E-004
   5.5199999999999999E-002     9.0983740819330266E-004
   5.5499999999999994E-002     1.3215883513152807E-003
   5.5800000000000002E-002     1.8868789095472884E-003
   5.6099999999999997E-002     2.6364564777368029E-003
   5.6400000000000006E-002     3.6194461995501326E-003
   5.6700000000000000E-002     4.9005305410042979E-003
   5.6999999999999995E-002     6.5351883037857977E-003
   5.7300000000000004E-002     8.5539627908585297E-003
   5.7599999999999998E-002     1.0968636590630548E-002
   5.7900000000000007E-002     1.3771766303608171E-002
   5.8200000000000002E-002     1.6911381241625105E-002
   5.8499999999999996E-002     2.0260679966772319E-002
   5.8800000000000005E-002     2.3604442743961139E-002
   5.9100000000000000E-002     2.6626511480467244E-002
   5.9400000000000008E-002     2.8888566547224957E-002
   5.9700000000000003E-002     2.9813313952662499E-002
   6.0000000000000012E-002     2.8693965985778488E-002
   6.0300000000000006E-002     2.4723431783834286E-002
   6.0600000000000001E-002     1.7031369714080678E-002
   6.0900000000000010E-002     4.7371413792165360E-003
   6.1200000000000004E-002    -1.2968463934794866E-002
   6.1500000000000013E-002    -3.6695693740875231E-002
   6.1800000000000008E-002    -6.6707667436429918E-002
   6.2100000000000002E-002   -0.10278355565990047     
   6.2399999999999997E-002   -0.14410027908341574     
   6.2700000000000006E-002   -0.18912030314245332     
   6.3000000000000000E-002   -0.23548905666632569     
   6.3300000000000009E-002   -0.28001839410772988     
   6.3600000000000004E-002   -0.31877359343238609     
   6.3899999999999998E-002   -0.34725023605541283     
   6.4199999999999993E-002   -0.36060408331733601     
   6.4500000000000002E-002   -0.35398139005949830     
   6.4800000000000010E-002   -0.32296966552698569     
   6.5100000000000005E-002   -0.26412236926803340     
   6.5400000000000000E-002   -0.17539676642349503     
   6.5700000000000008E-002    -5.6604756928597511E-002
   6.5999999999999989E-002     9.0308540502387152E-002
   6.6299999999999998E-002    0.26096322995376808     
   6.6600000000000006E-002    0.44857843056592411     
   6.6900000000000001E-002    0.64411799895261201     
   6.7199999999999996E-002    0.83679984322757517     
   6.7500000000000004E-002     1.0146385732475054     
   6.7800000000000013E-002     1.1652679459942861     
   6.8099999999999994E-002     1.2767789908390776     
   6.8400000000000002E-002     1.3386830966046102     
   6.8700000000000011E-002     1.3427886728766603     
   6.8999999999999992E-002     1.2839391248920105     
   6.9300000000000000E-002     1.1605565718023594     
   6.9600000000000009E-002    0.97488714953078759     
   6.9900000000000004E-002    0.73312227296568411     
   7.0199999999999999E-002    0.44496425191120736     
   7.0500000000000007E-002    0.12326854837434972     
   7.0800000000000016E-002   -0.21702978542449572     
   7.1099999999999997E-002   -0.55943251324567966     
   7.1400000000000005E-002   -0.88735952105010951     
   7.1700000000000000E-002    -1.1846858597560441     
   7.1999999999999995E-002    -1.4372086631102192     
   7.2300000000000003E-002    -1.6329399614609290     
   7.2600000000000012E-002    -1.7632614772266419     
   7.2900000000000006E-002    -1.8228616478408028     
   7.3200000000000001E-002    -1.8104056608608952     
   7.3499999999999996E-002    -1.7280578968879829     
   7.3800000000000004E-002    -1.5817280244580365     
   7.4099999999999999E-002    -1.3802324981173038     
   7.4400000000000008E-002    -1.1351154134162600     
   7.4700000000000003E-002   -0.85961982317503649     
   7.5000000000000011E-002   -0.56826171591392005     
   7.5299999999999992E-002   -0.27576229913157946     
   7.5600000000000001E-002     3.5354496493978649E-003
   7.5900000000000009E-002    0.25659748014445305     
   7.6200000000000004E-002    0.47220150888266610     
   7.6499999999999999E-002    0.64168181413409187     
   7.6800000000000007E-002    0.75922869060456311     
   7.7099999999999988E-002    0.82216711263517595     
   7.7399999999999997E-002    0.83100837002182915     
   7.7700000000000005E-002    0.78924384074942699     
   7.8000000000000014E-002    0.70319587266264683     
   7.8299999999999995E-002    0.58127967449489082     
   7.8600000000000003E-002    0.43370243603361197     
   7.8900000000000012E-002    0.27147488256157898     
   7.9199999999999993E-002    0.10608842510085323     
   7.9500000000000001E-002    -5.1527690576959689E-002
   7.9800000000000010E-002   -0.19117577630318194     
   8.0100000000000018E-002   -0.30430483623793325     
   8.0399999999999999E-002   -0.38394593629876483     
   8.0700000000000008E-002   -0.42537470129366650     
   8.1000000000000003E-002   -0.42580876290106928     
   8.1299999999999997E-002   -0.38478023419835433     
   8.1600000000000006E-002   -0.30378473506874848     
   8.1900000000000014E-002   -0.18641541760369573     
   8.2199999999999995E-002    -3.7991064032595091E-002
   8.2500000000000004E-002    0.13456151580192238     
   8.2799999999999999E-002    0.32296295931428165     
   8.3100000000000007E-002    0.51793543882748061     
   8.3400000000000002E-002    0.70940333595051674     
   8.3700000000000011E-002    0.88708662336896715     
   8.4000000000000005E-002     1.0406605402969376     
   8.4300000000000000E-002     1.1606065541607151     
   8.4599999999999995E-002     1.2383872291201725     
   8.4900000000000003E-002     1.2674023546345929     
   8.5199999999999998E-002     1.2430589106547358     
   8.5500000000000007E-002     1.1637449192043783     
   8.5800000000000001E-002     1.0306471264090480     
   8.6100000000000010E-002    0.84850365719609655     
   8.6399999999999991E-002    0.62495335014411124     
   8.6699999999999999E-002    0.37101237219340838     
   8.7000000000000008E-002     9.9827137290978363E-002
   8.7300000000000003E-002   -0.17331314122073402     
   8.7599999999999997E-002   -0.43267923845262968     
   8.7900000000000006E-002   -0.66226001276109758     
   8.8200000000000014E-002   -0.84774885867991046     
   8.8499999999999995E-002   -0.97692447033925212     
   8.8800000000000004E-002    -1.0413688145684781     
   8.9100000000000013E-002    -1.0364889793753986     
   8.9399999999999993E-002   -0.96270855350268802     
   8.9700000000000002E-002   -0.82506326237328942     
   9.0000000000000011E-002   -0.63359982164538975     
   9.0299999999999991E-002   -0.40219682877143259     
   9.0600000000000000E-002   -0.14816357804350633     
   9.0900000000000009E-002    0.10941718503990486     
   9.1200000000000017E-002    0.35057639721567180     
   9.1499999999999998E-002    0.55638380689480038     
   9.1800000000000007E-002    0.70997833425065560     
   9.2100000000000001E-002    0.79824947889979536     
   9.2399999999999996E-002    0.81242007879868505     
   9.2700000000000005E-002    0.74911621972679621     
   9.3000000000000013E-002    0.61032198831248496     
   9.3300000000000008E-002    0.40355835906515647     
   9.3600000000000003E-002    0.14102160500933306     
   9.3899999999999997E-002   -0.16100091450465148     
   9.4200000000000006E-002   -0.48364784393240501     
   9.4500000000000001E-002   -0.80644447238069394     
   9.4800000000000009E-002    -1.1091520432396962     
   9.5100000000000004E-002    -1.3727678183736229     
   9.5399999999999999E-002    -1.5812439501960707     
   9.5699999999999993E-002    -1.7219493041542691     
   9.6000000000000002E-002    -1.7868315410398807     
   9.6300000000000011E-002    -1.7722605927961073     
   9.6600000000000005E-002    -1.6795442488950512     
   9.6900000000000000E-002    -1.5139403352367893     
   9.7200000000000009E-002    -1.2846065473559021     
   9.7499999999999989E-002    -1.0031649835351986     
   9.7799999999999998E-002   -0.68330250710487261     
   9.8100000000000007E-002   -0.33922659958449103     
   9.8400000000000015E-002     1.4683792699854370E-002
   9.8699999999999996E-002    0.36496782894519270     
   9.9000000000000005E-002    0.69930918849690138     
   9.9300000000000013E-002     1.0073074379879638     
   9.9599999999999994E-002     1.2801082622532824     
   9.9900000000000003E-002     1.5107073406725053     
  0.10020000000000001          1.6936730000089191     
  0.10049999999999999          1.8250396908200361     
  0.10080000000000000          1.9021905785926938     
  0.10110000000000001          1.9236602201633923     
  0.10140000000000000          1.8892926437387487     
  0.10170000000000000          1.8001052081038065     
  0.10200000000000001          1.6586474565774874     
  0.10230000000000002          1.4688599497999038     
  0.10260000000000000          1.2365157026643696     
  0.10290000000000001         0.96882797790265185     
  0.10320000000000000         0.67476013416230329     
  0.10350000000000001         0.36433908523126157     
  0.10380000000000000          4.8704314640637486E-002
  0.10410000000000001        -0.26080232741072562     
  0.10440000000000001        -0.55299031107791652     
  0.10470000000000000        -0.81756896391934331     
  0.10500000000000000         -1.0455959305225506     
  0.10530000000000000         -1.2299994117884663     
  0.10560000000000000         -1.3658655018541628     
  0.10590000000000001         -1.4505317981266401     
  0.10620000000000000         -1.4837061824733626     
  0.10650000000000001         -1.4670245734019667     
  0.10679999999999999         -1.4040755605914530     
  0.10710000000000000         -1.2995665671185250     
  0.10740000000000001         -1.1594643041419375     
  0.10770000000000000        -0.98984536079915753     
  0.10800000000000000        -0.79744847394004481     
  0.10830000000000001        -0.58843175069459619     
  0.10859999999999999        -0.36933502453958666     
  0.10890000000000000        -0.14581941878738033     
  0.10920000000000001          7.6103858119385567E-002
  0.10950000000000001         0.29133625094833676     
  0.10979999999999999         0.49419506944268987     
  0.11009999999999999         0.67979779291642528     
  0.11040000000000001         0.84264265894593937     
  0.11070000000000001         0.97827131272274226     
  0.11100000000000000          1.0819002764579055     
  0.11130000000000000          1.1500259486181070     
  0.11160000000000002          1.1795391759767433     
  0.11190000000000001          1.1692361204708266     
  0.11220000000000001          1.1190752051309625     
  0.11250000000000000          1.0313748505571978     
  0.11280000000000000         0.91003766626733573     
  0.11309999999999999         0.76133312453319557     
  0.11340000000000001         0.59287182776287173     
  0.11369999999999998         0.41384563367611504     
  0.11400000000000000         0.23391967689691451     
  0.11430000000000000          6.2894960155388729E-002
  0.11460000000000002         -9.0360794365510172E-002
  0.11489999999999999        -0.21850457281053473     
  0.11520000000000001        -0.31644534518238543     
  0.11550000000000001        -0.38190039801441150     
  0.11580000000000000        -0.41544090039881820     
  0.11609999999999999        -0.42054620206236781     
  0.11640000000000002        -0.40298554894735578     
  0.11670000000000001        -0.37059313083025230     
  0.11700000000000001        -0.33206950168971311     
  0.11730000000000000        -0.29617601216631584     
  0.11760000000000000        -0.27051658232388026     
  0.11789999999999999        -0.26092194438678040     
  0.11820000000000001        -0.27053422315014447     
  0.11850000000000001        -0.29968446099182833     
  0.11880000000000000        -0.34545798164094454     
  0.11910000000000000        -0.40238544195956338     
  0.11940000000000002        -0.46279594401796798     
  0.11970000000000001        -0.51802009078230227     
  0.12000000000000001        -0.55917533009747644     
  0.12030000000000000        -0.57846860509761433     
  0.12060000000000000        -0.57005994622780554     
  0.12089999999999999        -0.53110490464120241     
  0.12119999999999999        -0.46197886732198346     
  0.12150000000000001        -0.36657806839692220     
  0.12180000000000001        -0.25185389132179620     
  0.12210000000000000        -0.12742757967105237     
  0.12239999999999999         -4.4232289124426470E-003
  0.12270000000000002         0.10540288436528869     
  0.12300000000000001         0.19119115821828586     
  0.12330000000000001         0.24371599998691412     
  0.12360000000000000         0.25675626976327021     
  0.12390000000000000         0.22727871345796380     
  0.12419999999999999         0.15634796658172329     
  0.12450000000000001          4.8444729353947058E-002
  0.12480000000000001         -8.8232125131940176E-002
  0.12509999999999999        -0.24310327045045288     
  0.12540000000000001        -0.40337542204565896     
  0.12570000000000003        -0.55590395778030843     
  0.12600000000000000        -0.68744251478614093     
  0.12630000000000002        -0.78646092535216061     
  0.12659999999999999        -0.84312216909607685     
  0.12690000000000001        -0.85084531097191163     
  0.12719999999999998        -0.80598257074943169     
  0.12750000000000000        -0.70875601768125618     
  0.12780000000000002        -0.56239787306185929     
  0.12809999999999999        -0.37368133451938290     
  0.12840000000000001        -0.15184945011433179     
  0.12869999999999998          9.1470043672455481E-002
  0.12900000000000000         0.34340495637070623     
  0.12930000000000003         0.59022294915973528     
  0.12959999999999999         0.81837351139019310     
  0.12990000000000002          1.0151118957813619     
  0.13019999999999998          1.1692391792968846     
  0.13050000000000000          1.2719667486245558     
  0.13080000000000003          1.3170104987711806     
  0.13109999999999999          1.3016256495635545     
  0.13140000000000002          1.2261341769781138     
  0.13169999999999998          1.0947663121742512     
  0.13200000000000001         0.91462392000620940     
  0.13229999999999997         0.69637230690672525     
  0.13260000000000000         0.45244463782554378     
  0.13290000000000002         0.19770337780626174     
  0.13319999999999999         -5.2997512792548281E-002
  0.13350000000000001        -0.28402488304918350     
  0.13380000000000003        -0.48162798124149542     
  0.13410000000000000        -0.63315394163857353     
  0.13440000000000002        -0.72963555873061381     
  0.13469999999999999        -0.76449296455865068     
  0.13500000000000001        -0.73576496286766291     
  0.13529999999999998        -0.64451060323254206     
  0.13560000000000000        -0.49645052708461979     
  0.13590000000000002        -0.29999091749512902     
  0.13619999999999999         -6.7304169766641719E-002
  0.13650000000000001         0.18781000929990485     
  0.13680000000000003         0.44944533914029283     
  0.13710000000000000         0.70163772173010175     
  0.13740000000000002         0.92811696753336870     
  0.13769999999999999          1.1141686298857827     
  0.13800000000000001          1.2467069676997617     
  0.13829999999999998          1.3157976575364398     
  0.13860000000000000          1.3146763655600504     
  0.13890000000000002          1.2406295537510739     
  0.13919999999999999          1.0950715620205536     
  0.13950000000000001         0.88375117712056950     
  0.13979999999999998         0.61658824276580260     
  0.14010000000000000         0.30709368820818989     
  0.14040000000000002         -2.8082646008044346E-002
  0.14069999999999999        -0.37049714264137945     
  0.14100000000000001        -0.70062223881196262     
  0.14130000000000004        -0.99969386411053862     
  0.14160000000000000         -1.2502656408473369     
  0.14189999999999997         -1.4381579340455863     
  0.14219999999999999         -1.5528309829605897     
  0.14250000000000002         -1.5887089333813127     
  0.14279999999999998         -1.5448363089993211     
  0.14310000000000000         -1.4255405484788506     
  0.14339999999999997         -1.2392258014212798     
  0.14369999999999999        -0.99851918452869448     
  0.14400000000000002        -0.71829051265682797     
  0.14429999999999998        -0.41528238976944587     
  0.14460000000000001        -0.10614551119369453     
  0.14490000000000003         0.19278879866369794     
  0.14520000000000000         0.46722614720999817     
  0.14550000000000002         0.70485210429573419     
  0.14579999999999999         0.89643130362242984     
  0.14610000000000001          1.0352758185045039     
  0.14640000000000003          1.1176506966959348     
  0.14670000000000000          1.1420251972809563     
  0.14699999999999996          1.1092511729404455     
  0.14729999999999999          1.0219122316436220     
  0.14760000000000001         0.88425589520205339     
  0.14789999999999998         0.70189336697591331     
  0.14820000000000000         0.48168099423732635     