  -1.4999999999999999E-002     0.0000000000000000     
  -1.4700000000000000E-002     0.0000000000000000     
  -1.4400000000000000E-002     0.0000000000000000     
  -1.4100000000000000E-002     0.0000000000000000     
  -1.3800000000000000E-002     0.0000000000000000     
  -1.3500000000000000E-002     0.0000000000000000     
  -1.3200000000000000E-002     0.0000000000000000     
  -1.2899999999999998E-002     0.0000000000000000     
  -1.2600000000000000E-002     0.0000000000000000     
  -1.2299999999999998E-002     0.0000000000000000     
  -1.2000000000000000E-002     0.0000000000000000     
  -1.1699999999999999E-002     0.0000000000000000     
  -1.1399999999999999E-002     0.0000000000000000     
  -1.1099999999999999E-002     0.0000000000000000     
  -1.0799999999999999E-002     0.0000000000000000     
  -1.0499999999999999E-002     0.0000000000000000     
  -1.0199999999999999E-002     0.0000000000000000     
  -9.8999999999999991E-003     0.0000000000000000     
  -9.5999999999999992E-003     0.0000000000000000     
  -9.2999999999999992E-003     0.0000000000000000     
  -8.9999999999999993E-003     0.0000000000000000     
  -8.6999999999999994E-003     0.0000000000000000     
  -8.3999999999999995E-003     0.0000000000000000     
  -8.0999999999999996E-003     0.0000000000000000     
  -7.7999999999999988E-003     0.0000000000000000     
  -7.4999999999999997E-003     0.0000000000000000     
  -7.1999999999999998E-003     0.0000000000000000     
  -6.8999999999999981E-003     0.0000000000000000     
  -6.5999999999999982E-003     0.0000000000000000     
  -6.3000000000000000E-003     0.0000000000000000     
  -6.0000000000000001E-003     0.0000000000000000     
  -5.6999999999999985E-003     0.0000000000000000     
  -5.3999999999999986E-003     0.0000000000000000     
  -5.1000000000000004E-003     0.0000000000000000     
  -4.7999999999999987E-003     0.0000000000000000     
  -4.5000000000000005E-003     0.0000000000000000     
  -4.1999999999999989E-003     0.0000000000000000     
  -3.8999999999999990E-003     0.0000000000000000     
  -3.5999999999999990E-003     0.0000000000000000     
  -3.2999999999999991E-003     0.0000000000000000     
  -2.9999999999999992E-003     0.0000000000000000     
  -2.6999999999999993E-003     0.0000000000000000     
  -2.3999999999999994E-003     0.0000000000000000     
  -2.0999999999999977E-003     0.0000000000000000     
  -1.7999999999999995E-003     0.0000000000000000     
  -1.4999999999999979E-003     0.0000000000000000     
  -1.1999999999999997E-003     0.0000000000000000     
  -8.9999999999999976E-004     0.0000000000000000     
  -5.9999999999999810E-004     0.0000000000000000     
  -2.9999999999999992E-004     0.0000000000000000     
   0.0000000000000000          0.0000000000000000     
   3.0000000000000165E-004     0.0000000000000000     
   5.9999999999999984E-004     0.0000000000000000     
   9.0000000000000149E-004     0.0000000000000000     
   1.2000000000000031E-003     0.0000000000000000     
   1.5000000000000013E-003     0.0000000000000000     
   1.8000000000000030E-003     0.0000000000000000     
   2.1000000000000012E-003     0.0000000000000000     
   2.3999999999999994E-003     0.0000000000000000     
   2.7000000000000010E-003     0.0000000000000000     
   2.9999999999999992E-003     0.0000000000000000     
   3.3000000000000008E-003     0.0000000000000000     
   3.6000000000000025E-003     0.0000000000000000     
   3.9000000000000007E-003     0.0000000000000000     
   4.2000000000000023E-003     0.0000000000000000     
   4.5000000000000005E-003     0.0000000000000000     
   4.7999999999999987E-003     0.0000000000000000     
   5.1000000000000004E-003     0.0000000000000000     
   5.4000000000000020E-003     0.0000000000000000     
   5.7000000000000037E-003     0.0000000000000000     
   5.9999999999999984E-003     0.0000000000000000     
   6.3000000000000000E-003     0.0000000000000000     
   6.6000000000000017E-003     0.0000000000000000     
   6.9000000000000034E-003     0.0000000000000000     
   7.2000000000000015E-003     0.0000000000000000     
   7.5000000000000032E-003     0.0000000000000000     
   7.8000000000000014E-003     0.0000000000000000     
   8.0999999999999996E-003     0.0000000000000000     
   8.4000000000000012E-003     0.0000000000000000     
   8.7000000000000029E-003     0.0000000000000000     
   9.0000000000000011E-003     0.0000000000000000     
   9.2999999999999992E-003     0.0000000000000000     
   9.6000000000000009E-003     0.0000000000000000     
   9.8999999999999991E-003     0.0000000000000000     
   1.0200000000000001E-002     0.0000000000000000     
   1.0500000000000002E-002     0.0000000000000000     
   1.0800000000000004E-002     0.0000000000000000     
   1.1099999999999999E-002     0.0000000000000000     
   1.1400000000000000E-002     0.0000000000000000     
   1.1700000000000002E-002     0.0000000000000000     
   1.2000000000000004E-002     0.0000000000000000     
   1.2300000000000002E-002     0.0000000000000000     
   1.2600000000000000E-002     0.0000000000000000     
   1.2900000000000002E-002     0.0000000000000000     
   1.3200000000000000E-002     0.0000000000000000     
   1.3500000000000002E-002     0.0000000000000000     
   1.3800000000000003E-002     0.0000000000000000     
   1.4100000000000001E-002     0.0000000000000000     
   1.4400000000000000E-002     0.0000000000000000     
   1.4700000000000001E-002     0.0000000000000000     
   1.4999999999999999E-002     0.0000000000000000     
   1.5300000000000001E-002     0.0000000000000000     
   1.5600000000000003E-002     0.0000000000000000     
   1.5899999999999997E-002     0.0000000000000000     
   1.6199999999999999E-002     0.0000000000000000     
   1.6500000000000001E-002     0.0000000000000000     
   1.6800000000000002E-002     0.0000000000000000     
   1.7100000000000004E-002     0.0000000000000000     
   1.7400000000000006E-002     0.0000000000000000     
   1.7700000000000000E-002     0.0000000000000000     
   1.8000000000000002E-002     0.0000000000000000     
   1.8300000000000004E-002     0.0000000000000000     
   1.8600000000000005E-002     0.0000000000000000     
   1.8900000000000000E-002     0.0000000000000000     
   1.9200000000000002E-002     0.0000000000000000     
   1.9500000000000003E-002     0.0000000000000000     
   1.9799999999999998E-002     0.0000000000000000     
   2.0100000000000000E-002     0.0000000000000000     
   2.0400000000000001E-002     0.0000000000000000     
   2.0700000000000003E-002     0.0000000000000000     
   2.0999999999999998E-002     0.0000000000000000     
   2.1299999999999999E-002     0.0000000000000000     
   2.1600000000000001E-002     0.0000000000000000     
   2.1900000000000003E-002     0.0000000000000000     
   2.2200000000000004E-002     0.0000000000000000     
   2.2500000000000006E-002     0.0000000000000000     
   2.2800000000000001E-002     0.0000000000000000     
   2.3100000000000002E-002     0.0000000000000000     
   2.3400000000000004E-002     0.0000000000000000     
   2.3699999999999999E-002     0.0000000000000000     
   2.4000000000000000E-002     0.0000000000000000     
   2.4300000000000002E-002     0.0000000000000000     
   2.4599999999999997E-002     0.0000000000000000     
   2.4900000000000005E-002     0.0000000000000000     
   2.5200000000000000E-002     0.0000000000000000     
   2.5499999999999995E-002     0.0000000000000000     
   2.5800000000000003E-002     0.0000000000000000     
   2.6099999999999998E-002     0.0000000000000000     
   2.6400000000000007E-002     0.0000000000000000     
   2.6700000000000002E-002     0.0000000000000000     
   2.6999999999999996E-002     0.0000000000000000     
   2.7300000000000005E-002     0.0000000000000000     
   2.7600000000000000E-002     0.0000000000000000     
   2.7900000000000008E-002     0.0000000000000000     
   2.8200000000000003E-002     0.0000000000000000     
   2.8499999999999998E-002     0.0000000000000000     
   2.8800000000000006E-002     0.0000000000000000     
   2.9100000000000001E-002     0.0000000000000000     
   2.9400000000000003E-002     0.0000000000000000     
   2.9700000000000004E-002     0.0000000000000000     
   3.0000000000000006E-002     0.0000000000000000     
   3.0300000000000001E-002     0.0000000000000000     
   3.0600000000000002E-002     0.0000000000000000     
   3.0900000000000004E-002     0.0000000000000000     
   3.1199999999999999E-002     0.0000000000000000     
   3.1500000000000007E-002     0.0000000000000000     
   3.1800000000000002E-002     0.0000000000000000     
   3.2099999999999997E-002     0.0000000000000000     
   3.2400000000000005E-002    -1.5419091154026156E-072
   3.2700000000000000E-002    -2.7812650516684781E-072
   3.3000000000000002E-002    -7.0342533318036130E-045
   3.3300000000000003E-002    -5.9430811259023070E-044
   3.3599999999999998E-002    -4.0351918473644029E-043
   3.3900000000000000E-002     4.0958263889276637E-043
   3.4200000000000001E-002     2.1573077441510090E-035
   3.4500000000000003E-002    -5.2502030076045833E-036
   3.4799999999999998E-002     1.2168284955877510E-034
   3.5099999999999999E-002     7.5108575939683871E-034
   3.5400000000000001E-002    -5.8154289327383111E-033
   3.5699999999999996E-002     2.3449549235976509E-032
   3.6000000000000004E-002    -8.0044629803874503E-032
   3.6299999999999999E-002     2.6857408648791445E-031
   3.6600000000000008E-002    -8.6623368149874176E-031
   3.6900000000000002E-002     2.6250375062005897E-030
   3.7199999999999997E-002    -7.2782928743713710E-030
   3.7500000000000006E-002     1.7482777652238300E-029
   3.7800000000000000E-002    -3.1284916474788568E-029
   3.8100000000000009E-002     9.6437960582208073E-030
   3.8400000000000004E-002     2.6042140959720410E-028
   3.8699999999999998E-002    -1.6502071802137794E-027
   3.9000000000000007E-002     7.1992608039206709E-027
   3.9300000000000002E-002    -2.6328349984956555E-026
   3.9600000000000003E-002     8.5328632094376043E-026
   3.9900000000000005E-002    -2.4984172057908949E-025
   4.0200000000000000E-002     6.6032561529328133E-025
   4.0500000000000001E-002    -1.5325842332658691E-024
   4.0800000000000003E-002     2.8300419564418382E-024
   4.1100000000000005E-002    -2.3766327270477436E-024
   4.1399999999999999E-002    -1.1626075566065559E-023
   4.1700000000000008E-002     8.3540980337534558E-023
   4.2000000000000003E-002    -3.4137129834885944E-022
   4.2299999999999997E-002     1.0467998634169849E-021
   4.2600000000000006E-002    -2.3866580875111641E-021
   4.2900000000000001E-002     3.0650572599333073E-021
   4.3200000000000002E-002     4.3027908975710756E-021
   4.3500000000000004E-002    -4.1772020458799601E-020
   4.3799999999999999E-002     1.4574795355577459E-019
   4.4100000000000000E-002    -3.0070040374573781E-019
   4.4400000000000002E-002     1.8784311900763077E-019
   4.4700000000000004E-002     1.2623601521396300E-018
   4.4999999999999998E-002    -5.6863167577223060E-018
   4.5300000000000000E-002     1.1591561022939480E-017
   4.5600000000000002E-002    -3.5620770560177880E-018
   4.5899999999999996E-002    -5.7091620772620982E-017
   4.6200000000000005E-002     1.9049130687737142E-016
   4.6500000000000000E-002    -2.1885371801109471E-016
   4.6799999999999994E-002    -4.6376269050682832E-016
   4.7100000000000003E-002     2.3921373505622270E-015
   4.7399999999999998E-002    -3.3890158223079076E-015
   4.7700000000000006E-002    -4.7425160572874500E-015
   4.8000000000000001E-002     2.8190258513661990E-014
   4.8300000000000010E-002    -3.4756817588979241E-014
   4.8600000000000004E-002    -7.4186308184636927E-014
   4.8899999999999999E-002     3.1270853260602862E-013
   4.9200000000000008E-002    -1.8223731844900762E-013
   4.9500000000000002E-002    -1.2258928243881690E-012
   4.9800000000000011E-002     2.7560604567304994E-012
   5.0100000000000006E-002     1.9013574069421864E-012
   5.0400000000000000E-002    -1.5403700410065693E-011
   5.0700000000000009E-002     9.7417902852156777E-012
   5.1000000000000004E-002     5.9477521950671047E-011
   5.1299999999999998E-002    -1.0211186035861384E-010
   5.1600000000000007E-002    -1.7383716284933411E-010
   5.1900000000000002E-002     5.7613928382373103E-010
   5.2200000000000010E-002     3.7267649370275431E-010
   5.2500000000000005E-002    -2.6231068441534145E-009
   5.2800000000000000E-002    -4.6010936859338605E-010
   5.3099999999999994E-002     1.0816009441644223E-008
   5.3400000000000003E-002     1.3858868754296023E-011
   5.3699999999999998E-002    -4.2723317370759553E-008
   5.4000000000000006E-002    -5.3721761968143016E-009
   5.4300000000000001E-002     1.5638311058481985E-007
   5.4599999999999996E-002     7.0117294207899922E-008
   5.4900000000000004E-002    -5.4750278608412667E-007
   5.5199999999999999E-002    -5.8860558382633675E-007
   5.5499999999999994E-002     2.0314337193756606E-006
   5.5800000000000002E-002     7.3984863400407639E-006
   5.6099999999999997E-002     1.2811370208361394E-005
   5.6400000000000006E-002     1.7587781766566162E-005
   5.6700000000000000E-002     2.6691516450773632E-005
   5.6999999999999995E-002     4.5561320239880783E-005
   5.7300000000000004E-002     7.3695484810510468E-005
   5.7599999999999998E-002     1.0960242393414461E-004
   5.7900000000000007E-002     1.6058073828031444E-004
   5.8200000000000002E-002     2.4035911288880778E-004
   5.8499999999999996E-002     3.5874904590214759E-004
   5.8800000000000005E-002     5.2299369475627879E-004
   5.9100000000000000E-002     7.4962033940149269E-004
   5.9400000000000008E-002     1.0661881256088031E-003
   5.9700000000000003E-002     1.5002799185411901E-003
   6.0000000000000012E-002     2.0743061919485193E-003
   6.0300000000000006E-002     2.8122925076874299E-003
   6.0600000000000001E-002     3.7453699535596849E-003
   6.0900000000000010E-002     4.9056146770647142E-003
   6.1200000000000004E-002     6.3116128507016535E-003
   6.1500000000000013E-002     7.9555606895087491E-003
   6.1800000000000008E-002     9.8007510441246760E-003
   6.2100000000000002E-002     1.1783177371678753E-002
   6.2399999999999997E-002     1.3796104514651351E-002
   6.2700000000000006E-002     1.5659744370343683E-002
   6.3000000000000000E-002     1.7106578246213925E-002
   6.3300000000000009E-002     1.7793750902070450E-002
   6.3600000000000004E-002     1.7311499020299142E-002
   6.3899999999999998E-002     1.5175583277036889E-002
   6.4199999999999993E-002     1.0829571945312526E-002
   6.4500000000000002E-002     3.6917872375321122E-003
   6.4800000000000010E-002    -6.7865459366711154E-003
   6.5100000000000005E-002    -2.1054927870059581E-002
   6.5400000000000000E-002    -3.9397054560987431E-002
   6.5700000000000008E-002    -6.1837511063965990E-002
   6.5999999999999989E-002    -8.8056239053494037E-002
   6.6299999999999998E-002   -0.11729629677267517     
   6.6600000000000006E-002   -0.14830145669164529     
   6.6900000000000001E-002   -0.17927508575365253     
   6.7199999999999996E-002   -0.20790644592369517     
   6.7500000000000004E-002   -0.23142909184325214     
   6.7800000000000013E-002   -0.24675247788769170     
   6.8099999999999994E-002   -0.25064874422681183     
   6.8400000000000002E-002   -0.23999465208837636     
   6.8700000000000011E-002   -0.21207725128141211     
   6.8999999999999992E-002   -0.16488895300375644     
   6.9300000000000000E-002    -9.7446995842784476E-002
   6.9600000000000009E-002    -1.0073409732173879E-002
   6.9900000000000004E-002     9.5423798026804049E-002
   7.0199999999999999E-002    0.21564227966170357     
   7.0500000000000007E-002    0.34565145778742135     
   7.0800000000000016E-002    0.47911752660172391     
   7.1099999999999997E-002    0.60865111926151627     
   7.1400000000000005E-002    0.72623159611507637     
   7.1700000000000000E-002    0.82378157388514905     
   7.1999999999999995E-002    0.89373585202331152     
   7.2300000000000003E-002    0.92965712870461259     
   7.2600000000000012E-002    0.92677196581286514     
   7.2900000000000006E-002    0.88245555352608440     
   7.3200000000000001E-002    0.79647841395869345     
   7.3499999999999996E-002    0.67120339449757715     
   7.3800000000000004E-002    0.51136179278235949     
   7.4099999999999999E-002    0.32393161417483479     
   7.4400000000000008E-002    0.11755755898226940     
   7.4700000000000003E-002    -9.7963440173506847E-002
   7.5000000000000011E-002   -0.31240553562915924     
   7.5299999999999992E-002   -0.51574523750385615     
   7.5600000000000001E-002   -0.69886042717198449     
   7.5900000000000009E-002   -0.85401460033284660     
   7.6200000000000004E-002   -0.97535857420417271     
   7.6499999999999999E-002    -1.0590842079244931     
   7.6800000000000007E-002    -1.1035729969135031     
   7.7099999999999988E-002    -1.1092598762780179     
   7.7399999999999997E-002    -1.0784480887643886     
   7.7700000000000005E-002    -1.0149653255600941     
   7.8000000000000014E-002   -0.92377075285707611     
   7.8299999999999995E-002   -0.81060984134470904     
   7.8600000000000003E-002   -0.68160070996505717     
   7.8900000000000012E-002   -0.54295547418465095     
   7.9199999999999993E-002   -0.40068392150464305     
   7.9500000000000001E-002   -0.26051566777451973     
   7.9800000000000010E-002   -0.12758982563131721     
   8.0100000000000018E-002    -6.6205274861627916E-003
   8.0399999999999999E-002     9.8403955876465249E-002
   8.0700000000000008E-002    0.18401966039349843     
   8.1000000000000003E-002    0.24773953094233928     
   8.1299999999999997E-002    0.28780273452717398     
   8.1600000000000006E-002    0.30361295643873315     
   8.1900000000000014E-002    0.29556212705089779     
   8.2199999999999995E-002    0.26552007390585924     
   8.2500000000000004E-002    0.21649482001998246     
   8.2799999999999999E-002    0.15294036728438690     
   8.3100000000000007E-002     8.0270046975713563E-002
   8.3400000000000002E-002     4.9878342797078385E-003
   8.3700000000000011E-002    -6.6099809439128382E-002
   8.4000000000000005E-002   -0.12599295735576102     
   8.4300000000000000E-002   -0.16838014607164567     
   8.4599999999999995E-002   -0.18783571364925161     
   8.4900000000000003E-002   -0.18067531804791623     
   8.5199999999999998E-002   -0.14495630975671223     
   8.5500000000000007E-002    -8.1136914367905294E-002
   8.5800000000000001E-002     8.3483665901590738E-003
   8.6100000000000010E-002    0.11871716737459366     
   8.6399999999999991E-002    0.24365682130577193     
   8.6699999999999999E-002    0.37535295995278239     
   8.7000000000000008E-002    0.50560213618256011     
   8.7300000000000003E-002    0.62597556755458705     
   8.7599999999999997E-002    0.72891827568395762     
   8.7900000000000006E-002    0.80788406109095168     
   8.8200000000000014E-002    0.85827865719648910     
   8.8499999999999995E-002    0.87726863795058541     
   8.8800000000000004E-002    0.86433925759650676     
   8.9100000000000013E-002    0.82077457906290918     
   8.9399999999999993E-002    0.74984129457879367     
   8.9700000000000002E-002    0.65599175205758575     
   9.0000000000000011E-002    0.54485221286720198     
   9.0299999999999991E-002    0.42230246680226130     
   9.0600000000000000E-002    0.29440621373306702     
   9.0900000000000009E-002    0.16661239126123090     
   9.1200000000000017E-002     4.3903735472683669E-002
   9.1499999999999998E-002    -6.9792973418422347E-002
   9.1800000000000007E-002   -0.17137192728891451     
   9.2100000000000001E-002   -0.25876859625146248     
   9.2399999999999996E-002   -0.33054570367675079     
   9.2700000000000005E-002   -0.38599349231360153     
   9.3000000000000013E-002   -0.42472354849951277     
   9.3300000000000008E-002   -0.44680316586471219     
   9.3600000000000003E-002   -0.45237527636584246     
   9.3899999999999997E-002   -0.44185395347328599     
   9.4200000000000006E-002   -0.41579122563614862     
   9.4500000000000001E-002   -0.37516586075017383     
   9.4800000000000009E-002   -0.32134191116814220     
   9.5100000000000004E-002   -0.25635657429825753     
   9.5399999999999999E-002   -0.18287209169186816     
   9.5699999999999993E-002   -0.10438792664885362     
   9.6000000000000002E-002    -2.5032393858790993E-002
   9.6300000000000011E-002     5.0449041776629337E-002
   9.6600000000000005E-002    0.11707786862035024     
   9.6900000000000000E-002    0.16976877098276433     
   9.7200000000000009E-002    0.20389010646652408     
   9.7499999999999989E-002    0.21551341479730579     
   9.7799999999999998E-002    0.20195730644067644     
   9.8100000000000007E-002    0.16190372896633759     
   9.8400000000000015E-002     9.5798532578866544E-002
   9.8699999999999996E-002     5.7966506430849642E-003
   9.9000000000000005E-002   -0.10420637135021960     
   9.9300000000000013E-002   -0.22880301546012047     
   9.9599999999999994E-002   -0.36131099918288245     
   9.9900000000000003E-002   -0.49434687143285716     
  0.10020000000000001        -0.62023754726267422     
  0.10049999999999999        -0.73156859608079616     
  0.10080000000000000        -0.82166382064525290     
  0.10110000000000001        -0.88510796001442871     
  0.10140000000000000        -0.91810759568461353     
  0.10170000000000000        -0.91871162915562965     
  0.10200000000000001        -0.88680085114728335     
  0.10230000000000002        -0.82416226856160502     
  0.10260000000000000        -0.73411138987020119     
  0.10290000000000001        -0.62123741521474696     
  0.10320000000000000        -0.49088384155656734     
  0.10350000000000001        -0.34882373651573001     
  0.10380000000000000        -0.20050985237577676     
  0.10410000000000001         -5.0998753014162679E-002
  0.10440000000000001          9.5693515953982428E-002
  0.10470000000000000         0.23638798917639400     
  0.10500000000000000         0.36916784452353252     
  0.10530000000000000         0.49276886748648385     
  0.10560000000000000         0.60691358349899727     
  0.10590000000000001         0.71146400784158792     
  0.10620000000000000         0.80656679770789397     
  0.10650000000000001         0.89183201953179003     
  0.10679999999999999         0.96662857926657331     
  0.10710000000000000          1.0295615493991415     
  0.10740000000000001          1.0789310053664607     
  0.10770000000000000          1.1123656359334051     
  0.10800000000000000          1.1275562378447772     
  0.10830000000000001          1.1222828956644886     
  0.10859999999999999          1.0950625265535909     
  0.10890000000000000          1.0451287339799580     
  0.10920000000000001         0.97285446420854682     
  0.10950000000000001         0.87974336366479577     
  0.10979999999999999         0.76849433074193085     
  0.11009999999999999         0.64260717148573110     
  0.11040000000000001         0.50608481474631661     
  0.11070000000000001         0.36301593066291132     
  0.11100000000000000         0.21714743124620192     
  0.11130000000000000          7.1643824021724589E-002
  0.11160000000000002         -7.1510913072941357E-002
  0.11190000000000001        -0.21128637218300056     
  0.11220000000000001        -0.34776065772935771     
  0.11250000000000000        -0.48154495578588086     
  0.11280000000000000        -0.61382927308293445     
  0.11309999999999999        -0.74529465236617054     
  0.11340000000000001        -0.87618758860017332     
  0.11369999999999998         -1.0051253136465186     
  0.11400000000000000         -1.1295692059496896     
  0.11430000000000000         -1.2449459202492288     
  0.11460000000000002         -1.3454711831688793     
  0.11489999999999999         -1.4238009870512052     
  0.11520000000000001         -1.4724100068004997     
  0.11550000000000001         -1.4836559731024683     
  0.11580000000000000         -1.4512725302121050     
  0.11609999999999999         -1.3705739184858112     
  0.11640000000000002         -1.2397774821130334     
  0.11670000000000001         -1.0599087786850321     
  0.11700000000000001        -0.83550157599778985     
  0.11730000000000000        -0.57394589658282980     
  0.11760000000000000        -0.28555197335882448     
  0.11789999999999999          1.7536719217321615E-002
  0.11820000000000001         0.32197109845256539     
  0.11850000000000001         0.61449738198676274     
  0.11880000000000000         0.88268765457830867     
  0.11910000000000000          1.1158982846932644     
  0.11940000000000002          1.3059753566771810     
  0.11970000000000001          1.4475697707493900     
  0.12000000000000001          1.5385086991103691     
  0.12030000000000000          1.5793542136036762     
  0.12060000000000000          1.5733294950656296     
  0.12089999999999999          1.5254762621609381     
  0.12119999999999999          1.4424699968522743     
  0.12150000000000001          1.3313879164880353     
  0.12180000000000001          1.1996164672427030     
  0.12210000000000000          1.0537858316242059     
  0.12239999999999999         0.90000745281726846     
  0.12270000000000002         0.74295886510371290     
  0.12300000000000001         0.58633734467615273     
  0.12330000000000001         0.43243221663970560     
  0.12360000000000000         0.28277621445195228     
  0.12390000000000000         0.13783063340634757     
  0.12419999999999999         -2.1604776245429777E-003
  0.12450000000000001        -0.13726349630046408     
  0.12480000000000001        -0.26722673411484682     
  0.12509999999999999        -0.39156935803160942     
  0.12540000000000001        -0.50898815718768553     
  0.12570000000000003        -0.61766119633250727     
  0.12600000000000000        -0.71493329711460696     
  0.12630000000000002        -0.79770018992389879     
  0.12659999999999999        -0.86227324124095583     
  0.12690000000000001        -0.90520736208049768     
  0.12719999999999998        -0.92326399361627998     
  0.12750000000000000        -0.91421308758206454     
  0.12780000000000002        -0.87680556902862317     
  0.12809999999999999        -0.81159027752091617     
  0.12840000000000001        -0.72083719644021438     
  0.12869999999999998        -0.60892559834879056     
  0.12900000000000000        -0.48191086831510377     
  0.12930000000000003        -0.34769652283793123     
  0.12959999999999999        -0.21523541825939232     
  0.12990000000000002         -9.4197834752619947E-002
  0.13019999999999998          5.9581027527570224E-003
  0.13050000000000000          7.6543467331654402E-002
  0.13080000000000003         0.11057494878560185     
  0.13109999999999999         0.10324223609303788     
  0.13140000000000002          5.2671161717615773E-002
  0.13169999999999998         -3.9926884388936768E-002
  0.13200000000000001        -0.17011391161658948     
  0.13229999999999997        -0.33051271246830422     
  0.13260000000000000        -0.51107294889894050     
  0.13290000000000002        -0.69975211302451046     
  0.13319999999999999        -0.88339849920450497     
  0.13350000000000001         -1.0486646005415383     
  0.13380000000000003         -1.1828760253994079     
  0.13410000000000000         -1.2748568429634428     
  0.13440000000000002         -1.3158173944419855     
  0.13469999999999999         -1.2998464486231496     
  0.13500000000000001         -1.2243230699921233     
  0.13529999999999998         -1.0900212844894823     
  0.13560000000000000        -0.90112355015110102     
  0.13590000000000002        -0.66478629885219176     
  0.13619999999999999        -0.39074803575309824     
  0.13650000000000001         -9.0871337176196734E-002
  0.13680000000000003         0.22177585064752769     
  0.13710000000000000         0.53336443020326108     
  0.13740000000000002         0.83028658617795281     
  0.13769999999999999          1.0996743757531864     
  0.13800000000000001          1.3301093963997810     
  0.13829999999999998          1.5121301853330149     
  0.13860000000000000          1.6386377099300014     
  0.13890000000000002          1.7053899074753467     
  0.13919999999999999          1.7110522299124047     
  0.13950000000000001          1.6573648944779917     
  0.13979999999999998          1.5488838419167987     
  0.14010000000000000          1.3929506957232363     
  0.14040000000000002          1.1990687015348775     
  0.14069999999999999         0.97867223590743135     
  0.14100000000000001         0.74420794115367606     
  0.14130000000000004         0.50871445290703654     
  0.14160000000000000         0.28479845196263309     
  0.14189999999999997          8.4316584022989527E-002
  0.14219999999999999         -8.2605111188980257E-002
  0.14250000000000002        -0.20789005505250219     
  0.14279999999999998        -0.28611884406454707     
  0.14310000000000000        -0.31462807439551460     
  0.14339999999999997        -0.29377261720159437     
  0.14369999999999999        -0.22664348005776030     
  0.14400000000000002        -0.11907874437583463     
  0.14429999999999998          2.0919120265252191E-002
  0.14460000000000001         0.18339607642516129     
  0.14490000000000003         0.35727895350787692     
  0.14520000000000000         0.53079892768558234     
  0.14550000000000002         0.69225331203429286     
  0.14579999999999999         0.83039006059998866     
  0.14610000000000001         0.93531581532787655     
  0.14640000000000003         0.99875673603724269     
  0.14670000000000000          1.0144684611495436     
  0.14699999999999996         0.97869583834260021     
  0.14729999999999999         0.89023390010095460     
  0.14760000000000001         0.75060518752782246     
  0.14789999999999998         0.56382741144900428     
  0.14820000000000000         0.33652258847997091     