  -1.4999999999999999E-002     0.0000000000000000     
  -1.4700000000000000E-002     0.0000000000000000     
  -1.4400000000000000E-002     0.0000000000000000     
  -1.4100000000000000E-002     0.0000000000000000     
  -1.3800000000000000E-002     0.0000000000000000     
  -1.3500000000000000E-002     0.0000000000000000     
  -1.3200000000000000E-002     0.0000000000000000     
  -1.2899999999999998E-002     0.0000000000000000     
  -1.2600000000000000E-002     0.0000000000000000     
  -1.2299999999999998E-002     0.0000000000000000     
  -1.2000000000000000E-002     0.0000000000000000     
  -1.1699999999999999E-002     0.0000000000000000     
  -1.1399999999999999E-002     0.0000000000000000     
  -1.1099999999999999E-002     0.0000000000000000     
  -1.0799999999999999E-002     0.0000000000000000     
  -1.0499999999999999E-002     0.0000000000000000     
  -1.0199999999999999E-002     0.0000000000000000     
  -9.8999999999999991E-003     0.0000000000000000     
  -9.5999999999999992E-003     0.0000000000000000     
  -9.2999999999999992E-003     0.0000000000000000     
  -8.9999999999999993E-003     0.0000000000000000     
  -8.6999999999999994E-003     0.0000000000000000     
  -8.3999999999999995E-003     0.0000000000000000     
  -8.0999999999999996E-003     0.0000000000000000     
  -7.7999999999999988E-003     0.0000000000000000     
  -7.4999999999999997E-003     0.0000000000000000     
  -7.1999999999999998E-003     0.0000000000000000     
  -6.8999999999999981E-003     0.0000000000000000     
  -6.5999999999999982E-003     0.0000000000000000     
  -6.3000000000000000E-003     0.0000000000000000     
  -6.0000000000000001E-003     0.0000000000000000     
  -5.6999999999999985E-003     0.0000000000000000     
  -5.3999999999999986E-003     0.0000000000000000     
  -5.1000000000000004E-003     0.0000000000000000     
  -4.7999999999999987E-003     0.0000000000000000     
  -4.5000000000000005E-003     0.0000000000000000     
  -4.1999999999999989E-003     0.0000000000000000     
  -3.8999999999999990E-003     0.0000000000000000     
  -3.5999999999999990E-003     0.0000000000000000     
  -3.2999999999999991E-003     1.7835443957626310E-043
  -2.9999999999999992E-003    -2.5829201298853105E-038
  -2.6999999999999993E-003     5.4884090850366229E-037
  -2.3999999999999994E-003    -1.0934686022218912E-036
  -2.0999999999999977E-003     3.8327716716447392E-036
  -1.7999999999999995E-003    -1.4730607421886444E-035
  -1.4999999999999979E-003     1.0109730822433400E-034
  -1.1999999999999997E-003    -2.6628338646676114E-034
  -8.9999999999999976E-004     3.7951570421370559E-034
  -5.9999999999999810E-004     1.0864427148132080E-033
  -2.9999999999999992E-004    -6.7944856453668172E-033
   0.0000000000000000          1.8135776229545028E-032
   3.0000000000000165E-004    -2.9999864623262944E-032
   5.9999999999999984E-004     1.8939524828783573E-032
   9.0000000000000149E-004     7.3589299543806580E-032
   1.2000000000000031E-003    -3.3134200439952609E-031
   1.5000000000000013E-003     7.7982484234078057E-031
   1.8000000000000030E-003    -1.1804774137718706E-030
   2.1000000000000012E-003     7.4631559181240360E-031
   2.3999999999999994E-003     1.9125686440254242E-030
   2.7000000000000010E-003    -7.9920110116519767E-030
   2.9999999999999992E-003     1.6399697912651287E-029
   3.3000000000000008E-003    -2.0917720053698206E-029
   3.6000000000000025E-003     8.9969811257534325E-030
   3.9000000000000007E-003     3.3470166477642854E-029
   4.2000000000000023E-003    -1.0817503319413862E-028
   4.5000000000000005E-003     1.8587589834479705E-028
   4.7999999999999987E-003    -1.9753029379677691E-028
   5.1000000000000004E-003     5.1910534547723012E-029
   5.4000000000000020E-003     3.0780812472650892E-028
   5.7000000000000037E-003    -8.2315688217091578E-028
   5.9999999999999984E-003     1.2771861493320456E-027
   6.3000000000000000E-003    -1.3212951781081551E-027
   6.6000000000000017E-003     5.3536109013627577E-028
   6.9000000000000034E-003     1.3891868075462748E-027
   7.2000000000000015E-003    -4.2232605846064155E-027
   7.5000000000000032E-003     6.8499661588887760E-027
   7.8000000000000014E-003    -7.4104512596773174E-027
   8.0999999999999996E-003     4.1369581447169978E-027
   8.4000000000000012E-003     3.1287498795863923E-027
   8.7000000000000029E-003    -1.3134286332238635E-026
   9.0000000000000011E-003     2.6211003159997838E-026
   9.2999999999999992E-003    -4.0232744998623209E-026
   9.6000000000000009E-003     3.8927395086990185E-026
   9.8999999999999991E-003    -2.4151803517352341E-027
   1.0200000000000001E-002    -5.9753253719863342E-026
   1.0500000000000002E-002     1.0691507943095738E-025
   1.0800000000000004E-002    -1.0482396585725161E-025
   1.1099999999999999E-002     7.3740118185518785E-026
   1.1400000000000000E-002    -9.6386484487533778E-026
   1.1700000000000002E-002     1.5555521223009899E-025
   1.2000000000000004E-002     3.4180750734737991E-027
   1.2300000000000002E-002    -6.2576436448415855E-025
   1.2600000000000000E-002     1.6476624251790182E-024
   1.2900000000000002E-002    -1.9254833081328085E-024
   1.3200000000000000E-002    -1.6914153181918207E-024
   1.3500000000000002E-002     8.9363971958130975E-024
   1.3800000000000003E-002    -6.3326481924289685E-024
   1.4100000000000001E-002    -1.9447628650500349E-023
   1.4400000000000000E-002     4.0115405139866732E-023
   1.4700000000000001E-002     1.1587297488896974E-023
   1.4999999999999999E-002    -1.2829216008321240E-022
   1.5300000000000001E-002     1.1790601124826742E-022
   1.5600000000000003E-002     2.0253068258233039E-022
   1.5899999999999997E-002    -5.1789389105038776E-022
   1.6199999999999999E-002     7.5907836856461358E-023
   1.6500000000000001E-002     1.0910334138854174E-021
   1.6800000000000002E-002    -1.3135179791209565E-021
   1.7100000000000004E-002    -9.4218778543744397E-022
   1.7400000000000006E-002     3.8051949318653239E-021
   1.7700000000000000E-002    -2.1213630687640840E-021
   1.8000000000000002E-002    -5.7392867527640589E-021
   1.8300000000000004E-002     1.0552843655823515E-020
   1.8600000000000005E-002     3.6652200657771209E-022
   1.8900000000000000E-002    -2.0276110317527412E-020
   1.9200000000000002E-002     2.0891700627496414E-020
   1.9500000000000003E-002    -5.4602833469180259E-023
   1.9799999999999998E-002    -5.7205671247698782E-021
   2.0100000000000000E-002     7.6584023980801903E-020
   2.0400000000000001E-002    -4.0677512018968609E-019
   2.0700000000000003E-002     3.7934183090437671E-019
   2.0999999999999998E-002     1.8958245634683818E-018
   2.1299999999999999E-002    -4.8228833692176867E-018
   2.1600000000000001E-002    -2.5123960657577050E-018
   2.1900000000000003E-002     2.1934063358068475E-017
   2.2200000000000004E-002    -8.8923507766018376E-018
   2.2500000000000006E-002    -6.6636469062114966E-017
   2.2800000000000001E-002     3.4141687700530614E-017
   2.3100000000000002E-002     2.7434737802217651E-016
   2.3400000000000004E-002    -9.3639474929029907E-017
   2.3699999999999999E-002    -1.7783098370847183E-015
   2.4000000000000000E-002     2.2489844974408087E-015
   2.4300000000000002E-002     7.9514779811785763E-015
   2.4599999999999997E-002    -2.4994554459666753E-014
   2.4900000000000005E-002    -3.0502505311950305E-015
   2.5200000000000000E-002     1.4322891870056255E-013
   2.5499999999999995E-002    -2.3206526053167318E-013
   2.5800000000000003E-002    -4.0542154403337043E-013
   2.6099999999999998E-002     1.9122914455182435E-012
   2.6400000000000007E-002    -5.4346167271253172E-013
   2.6700000000000002E-002    -9.2444399830992680E-012
   2.6999999999999996E-002     1.3159176164110009E-011
   2.7300000000000005E-002     3.0987978225482504E-011
   2.7600000000000000E-002    -8.7260703837847471E-011
   2.7900000000000008E-002    -6.8496329430017276E-011
   2.8200000000000003E-002     4.1145669205439857E-010
   2.8499999999999998E-002     4.2914218253382795E-011
   2.8800000000000006E-002    -1.6187169648465613E-009
   2.9100000000000001E-002     4.5299919047605805E-010
   2.9400000000000003E-002     5.7513679380525725E-009
   2.9700000000000004E-002    -2.6708333815086316E-009
   3.0000000000000006E-002    -1.9565345284287760E-008
   3.0300000000000001E-002     7.5167385010430596E-009
   3.0600000000000002E-002     6.1877014226074129E-008
   3.0900000000000004E-002    -9.3534622878626875E-009
   3.1199999999999999E-002    -1.9014244697163257E-007
   3.1500000000000007E-002    -4.6248141139238955E-008
   3.1800000000000002E-002     7.6576365899025386E-007
   3.2099999999999997E-002     2.0433907711522223E-006
   3.2400000000000005E-002     3.9484853705201829E-006
   3.2700000000000000E-002     7.8151359828469180E-006
   3.3000000000000002E-002     1.4521663305156459E-005
   3.3300000000000003E-002     2.2845645317590369E-005
   3.3599999999999998E-002     3.1928870018175440E-005
   3.3900000000000000E-002     4.4722691823935789E-005
   3.4200000000000001E-002     6.5967884439387749E-005
   3.4500000000000003E-002     9.7921495442174591E-005
   3.4799999999999998E-002     1.4256813022784211E-004
   3.5099999999999999E-002     2.0740275405281320E-004
   3.5400000000000001E-002     3.0351998802648721E-004
   3.5699999999999996E-002     4.3766312674061255E-004
   3.6000000000000004E-002     6.1201788248054336E-004
   3.6299999999999999E-002     8.3318297355832512E-004
   3.6600000000000008E-002     1.1150415563763807E-003
   3.6900000000000002E-002     1.4691896369933553E-003
   3.7199999999999997E-002     1.8964405571920461E-003
   3.7500000000000006E-002     2.3891389049392441E-003
   3.7800000000000000E-002     2.9338901114170394E-003
   3.8100000000000009E-002     3.5038988497967782E-003
   3.8400000000000004E-002     4.0474561125152398E-003
   3.8699999999999998E-002     4.4825637920368651E-003
   3.9000000000000007E-002     4.6951366875878017E-003
   3.9300000000000002E-002     4.5361497964346350E-003
   3.9600000000000003E-002     3.8203020104017804E-003
   3.9900000000000005E-002     2.3270034614421382E-003
   4.0200000000000000E-002    -1.9802825740520050E-004
   4.0500000000000001E-002    -4.0378575588661848E-003
   4.0800000000000003E-002    -9.4884192614124226E-003
   4.1100000000000005E-002    -1.6830314084465291E-002
   4.1399999999999999E-002    -2.6294411101143389E-002
   4.1700000000000008E-002    -3.8029684995920354E-002
   4.2000000000000003E-002    -5.2080001581510195E-002
   4.2299999999999997E-002    -6.8367886061545508E-002
   4.2600000000000006E-002    -8.6668990508908333E-002
   4.2900000000000001E-002   -0.10658901320618827     
   4.3200000000000002E-002   -0.12757465006261126     
   4.3500000000000004E-002   -0.14896634954593641     
   4.3799999999999999E-002   -0.17004309252170721     
   4.4100000000000000E-002   -0.19006839164897676     
   4.4400000000000002E-002   -0.20835402879244799     
   4.4700000000000004E-002   -0.22433625105812044     
   4.4999999999999998E-002   -0.23764923626388662     
   4.5300000000000000E-002   -0.24816014401346204     
   4.5600000000000002E-002   -0.25594321942582587     
   4.5899999999999996E-002   -0.26123238185860986     
   4.6200000000000005E-002   -0.26431614770600009     
   4.6500000000000000E-002   -0.26539468226093066     
   4.6799999999999994E-002   -0.26441953795680068     
   4.7100000000000003E-002   -0.26088027121049406     
   4.7399999999999998E-002   -0.25369705733042697     
   4.7700000000000006E-002   -0.24113794687736745     
   4.8000000000000001E-002   -0.22075852603524124     
   4.8300000000000010E-002   -0.18955278532677761     
   4.8600000000000004E-002   -0.14424832399039153     
   4.8899999999999999E-002    -8.1677150583233105E-002
   4.9200000000000008E-002     7.4641762173852100E-004
   4.9500000000000002E-002    0.10443675885057839     
   4.9800000000000011E-002    0.22913152151071364     
   5.0100000000000006E-002    0.37231180367854272     
   5.0400000000000000E-002    0.52892076288547318     
   5.0700000000000009E-002    0.69131359181372143     
   5.1000000000000004E-002    0.84938556143420230     
   5.1299999999999998E-002    0.99104783282943165     
   5.1600000000000007E-002     1.1031752680829296     
   5.1900000000000002E-002     1.1726070239824140     
   5.2200000000000010E-002     1.1874265133528801     
   5.2500000000000005E-002     1.1383479304718902     
   5.2800000000000000E-002     1.0199642479181410     
   5.3099999999999994E-002    0.83182319158354834     
   5.3400000000000003E-002    0.57907537921203922     
   5.3699999999999998E-002    0.27273840774098068     
   5.4000000000000006E-002    -7.0699076557495771E-002
   5.4300000000000001E-002   -0.43012576197196090     
   5.4599999999999996E-002   -0.78128101030754604     
   5.4900000000000004E-002    -1.0984926515312101     
   5.5199999999999999E-002    -1.3568330337131456     
   5.5499999999999994E-002    -1.5341468962351628     
   5.5800000000000002E-002    -1.6131530354374100     
   5.6099999999999997E-002    -1.5829629842422284     
   5.6400000000000006E-002    -1.4401465691066047     
   5.6700000000000000E-002    -1.1893648826208463     
   5.6999999999999995E-002   -0.84298977020406163     
   5.7300000000000004E-002   -0.42017279306444344     
   5.7599999999999998E-002     5.4369378223670141E-002
   5.7900000000000007E-002    0.55249445582059165     
   5.8200000000000002E-002     1.0446890333350503     
   5.8499999999999996E-002     1.5021903183583516     
   5.8800000000000005E-002     1.8989098398325690     
   5.9100000000000000E-002     2.2132009134877215     
   5.9400000000000008E-002     2.4290233034674120     
   5.9700000000000003E-002     2.5363780687025841     
   6.0000000000000012E-002     2.5317042568082648     
   6.0300000000000006E-002     2.4174310824119751     
   6.0600000000000001E-002     2.2012394809113864     
   6.0900000000000010E-002     1.8953305506386515     
   6.1200000000000004E-002     1.5151127287113022     
   6.1500000000000013E-002     1.0783638560402871     
   6.1800000000000008E-002    0.60415288205897100     
   6.2100000000000002E-002    0.11200794726763461     
   6.2399999999999997E-002   -0.37891147149381199     
   6.2700000000000006E-002   -0.85014825194696275     
   6.3000000000000000E-002    -1.2848375971391279     
   6.3300000000000009E-002    -1.6679341822557543     
   6.3600000000000004E-002    -1.9866481047363616     
   6.3899999999999998E-002    -2.2312349282924147     
   6.4199999999999993E-002    -2.3950370493791340     
   6.4500000000000002E-002    -2.4748912189674956     
   6.4800000000000010E-002    -2.4716267232000417     
   6.5100000000000005E-002    -2.3897312740310372     
   6.5400000000000000E-002    -2.2375662956572775     
   6.5700000000000008E-002    -2.0267217811458758     
   6.5999999999999989E-002    -1.7713902018409895     
   6.6299999999999998E-002    -1.4873586985274310     
   6.6600000000000006E-002    -1.1914174525950942     
   6.6900000000000001E-002   -0.89975038662905149     
   6.7199999999999996E-002   -0.62696887731679529     
   6.7500000000000004E-002   -0.38583471722707863     
   6.7800000000000013E-002   -0.18575966944386757     
   6.8099999999999994E-002    -3.2750146700771518E-002
   6.8400000000000002E-002     7.0264353505581287E-002
   6.8700000000000011E-002    0.12381533657336732     
   6.8999999999999992E-002    0.13124295562793759     
   6.9300000000000000E-002     9.7807614081156596E-002
   6.9600000000000009E-002     3.0299740200625300E-002
   6.9900000000000004E-002    -6.3516646089686019E-002
   7.0199999999999999E-002   -0.17588125008035235     
   7.0500000000000007E-002   -0.29896749343352413     
   7.0800000000000016E-002   -0.42519899479093454     
   7.1099999999999997E-002   -0.54751437328144514     
   7.1400000000000005E-002   -0.65875488360175338     
   7.1700000000000000E-002   -0.75190298533825484     
   7.1999999999999995E-002   -0.81973726989461793     
   7.2300000000000003E-002   -0.85473260617693170     
   7.2600000000000012E-002   -0.84909758422593240     
   7.2900000000000006E-002   -0.79536604512705245     
   7.3200000000000001E-002   -0.68661807103106676     
   7.3499999999999996E-002   -0.51744393132910604     
   7.3800000000000004E-002   -0.28477683279755706     
   7.4099999999999999E-002     1.1328500730521579E-002
   7.4400000000000008E-002    0.36653914844828239     
   7.4700000000000003E-002    0.77205041580142986     
   7.5000000000000011E-002     1.2141745620205839     
   7.5299999999999992E-002     1.6742496356880716     
   7.5600000000000001E-002     2.1298711435080597     
   7.5900000000000009E-002     2.5558123761006444     
   7.6200000000000004E-002     2.9256895923417932     
   7.6499999999999999E-002     3.2141554091542215     
   7.6800000000000007E-002     3.3988072811755345     
   7.7099999999999988E-002     3.4621984287347818     
   7.7399999999999997E-002     3.3941531436740249     
   7.7700000000000005E-002     3.1924631120416382     
   7.8000000000000014E-002     2.8638330237185907     
   7.8299999999999995E-002     2.4243257162979344     
   7.8600000000000003E-002     1.8975892584913137     
   7.8900000000000012E-002     1.3140023918808410     
   7.9199999999999993E-002    0.70855100986699704     
   7.9500000000000001E-002    0.11761862886149957     
   7.9800000000000010E-002   -0.42346663797097184     
   8.0100000000000018E-002   -0.88327559592720772     
   8.0399999999999999E-002    -1.2369577109215721     
   8.0700000000000008E-002    -1.4682795884326036     
   8.1000000000000003E-002    -1.5707324959473499     
   8.1299999999999997E-002    -1.5482368114702163     
   8.1600000000000006E-002    -1.4149028587444592     
   8.1900000000000014E-002    -1.1933346503253215     
   8.2199999999999995E-002   -0.91299720232875314     
   8.2500000000000004E-002   -0.60762791929900684     
   8.2799999999999999E-002   -0.31193220003152783     
   8.3100000000000007E-002    -5.8922845264348961E-002
   8.3400000000000002E-002    0.12295196783059054     
   8.3700000000000011E-002    0.21281904682538855     
   8.4000000000000005E-002    0.19894165317905821     
   8.4300000000000000E-002     7.9481209520328555E-002
   8.4599999999999995E-002   -0.13636694817073300     
   8.4900000000000003E-002   -0.42975642565271732     
   8.5199999999999998E-002   -0.77371162777424352     
   8.5500000000000007E-002    -1.1343832381814232     
   8.5800000000000001E-002    -1.4748605187253059     
   8.6100000000000010E-002    -1.7578481701859636     
   8.6399999999999991E-002    -1.9482083964339170     
   8.6699999999999999E-002    -2.0168453228238215     
   8.7000000000000008E-002    -1.9428828132798750     
   8.7300000000000003E-002    -1.7152465801095733     
   8.7599999999999997E-002    -1.3345429131721569     
   8.7900000000000006E-002   -0.81336254264815788     
   8.8200000000000014E-002   -0.17501685333173256     
   8.8499999999999995E-002    0.54696769082393915     
   8.8800000000000004E-002     1.3111704165687703     
   8.9100000000000013E-002     2.0717512730360013     
   8.9399999999999993E-002     2.7807600531937693     
   8.9700000000000002E-002     3.3922570079529835     
   9.0000000000000011E-002     3.8653232341287938     
   9.0299999999999991E-002     4.1670587505046690     
   9.0600000000000000E-002     4.2750013995246503     
   9.0900000000000009E-002     4.1787027676777759     
   9.1200000000000017E-002     3.8803496319654149     
   9.1499999999999998E-002     3.3943611436553027     
   9.1800000000000007E-002     2.7458741886654905     
   9.2100000000000001E-002     1.9688067108367155     
   9.2399999999999996E-002     1.1029916122011545     
   9.2700000000000005E-002    0.19074572033687309     
   9.3000000000000013E-002   -0.72584267542523784     
   9.3300000000000008E-002    -1.6079999835742496     
   9.3600000000000003E-002    -2.4230369406706944     
   9.3899999999999997E-002    -3.1450509695016535     
   9.4200000000000006E-002    -3.7567790295604571     
   9.4500000000000001E-002    -4.2487860892084317     
   9.4800000000000009E-002    -4.6185855681602641     
   9.5100000000000004E-002    -4.8702491016497760     
   9.5399999999999999E-002    -5.0113195505236714     
   9.5699999999999993E-002    -5.0518466208412569     
   9.6000000000000002E-002    -5.0024947045495596     
   9.6300000000000011E-002    -4.8733256683410247     
   9.6600000000000005E-002    -4.6723390464540842     
   9.6900000000000000E-002    -4.4062039523272940     
   9.7200000000000009E-002    -4.0796248055835456     
   9.7499999999999989E-002    -3.6959938750505712     
   9.7799999999999998E-002    -3.2591362601278555     
   9.8100000000000007E-002    -2.7731697601297109     
   9.8400000000000015E-002    -2.2441904266037449     
   9.8699999999999996E-002    -1.6807125471369286     
   9.9000000000000005E-002    -1.0940310726125508     
   9.9300000000000013E-002   -0.49824950004439494     
   9.9599999999999994E-002     9.0197515181574289E-002
   9.9900000000000003E-002    0.65300668246309324     
  0.10020000000000001          1.1720531522528872     
  0.10049999999999999          1.6292861909967677     
  0.10080000000000000          2.0090417584816374     
  0.10110000000000001          2.2991780177437864     
  0.10140000000000000          2.4918169077667738     
  0.10170000000000000          2.5846388558776905     
  0.10200000000000001          2.5806542209678893     
  0.10230000000000002          2.4893076879011407     
  0.10260000000000000          2.3248735673480230     
  0.10290000000000001          2.1063143625067391     
  0.10320000000000000          1.8560962332522819     
  0.10350000000000001          1.5983543817806998     
  0.10380000000000000          1.3566726164037475     
  0.10410000000000001          1.1535762108124552     
  0.10440000000000001          1.0072798104761069     
  0.10470000000000000         0.93010994734376506     
  0.10500000000000000         0.92951782274421157     
  0.10530000000000000          1.0041456889903357     
  0.10560000000000000          1.1457938073102105     
  0.10590000000000001          1.3402999602479539     
  0.10620000000000000          1.5661738335273734     
  0.10650000000000001          1.7991694054006098     
  0.10679999999999999          2.0126720738699611     
  0.10710000000000000          2.1799813836214592     
  0.10740000000000001          2.2767402756680113     
  0.10770000000000000          2.2838892990845494     
  0.10800000000000000          2.1882430402453736     
  0.10830000000000001          1.9840957879867585     
  0.10859999999999999          1.6749619620583771     
  0.10890000000000000          1.2717470837622666     
  0.10920000000000001         0.79337118944672214     
  0.10950000000000001         0.26527983389466431     
  0.10979999999999999        -0.28254520599217892     
  0.11009999999999999        -0.81777556711274768     
  0.11040000000000001         -1.3078122416136582     
  0.11070000000000001         -1.7217068505363973     
  0.11100000000000000         -2.0332898046908889     
  0.11130000000000000         -2.2217382178951253     
  0.11160000000000002         -2.2743901161619511     
  0.11190000000000001         -2.1867960198791283     
  0.11220000000000001         -1.9636280115365179     
  0.11250000000000000         -1.6196559383794571     
  0.11280000000000000         -1.1779908362449489     
  0.11309999999999999        -0.67066125841735558     
  0.11340000000000001        -0.13624140853362443     
  0.11369999999999998         0.38182229757572084     
  0.11400000000000000         0.83734453670693021     
  0.11430000000000000          1.1858399396320058     
  0.11460000000000002          1.3861503082483340     
  0.11489999999999999          1.4074566627406655     
  0.11520000000000001          1.2312903674130606     
  0.11550000000000001         0.85628995830275123     
  0.11580000000000000         0.30136297308281351     
  0.11609999999999999        -0.39248601664553762     
  0.11640000000000002         -1.1628396218194523     
  0.11670000000000001         -1.9278042268306614     
  0.11700000000000001         -2.5914046701069271     
  0.11730000000000000         -3.0518722911928027     
  0.11760000000000000         -3.2101505401867962     
  0.11789999999999999         -2.9831415157414121     
  0.11820000000000001         -2.3134807356834788     
  0.11850000000000001         -1.1802255372628319     
  0.11880000000000000         0.39069962564318494     
  0.11910000000000000          2.3257355384656409     
  0.11940000000000002          4.5017185526999697     
  0.11970000000000001          6.7519810260931497     
  0.12000000000000001          8.8791460143455652     
  0.12030000000000000          10.670199794403043     
  0.12060000000000000          11.916090077643577     
  0.12089999999999999          12.432803063025041     
  0.12119999999999999          12.083681386847010     
  0.12150000000000001          10.794447967073314     
  0.12180000000000001          8.5679861892441878     
  0.12210000000000000          5.4895609728408283     
  0.12239999999999999          1.7246535919200063     
  0.12270000000000002         -2.4910031914474495     
  0.12300000000000001         -6.8682588391639037     
  0.12330000000000001         -11.087899294760591     
  0.12360000000000000         -14.828431958129713     
  0.12390000000000000         -17.792185046582805     
  0.12419999999999999         -19.732755628215507     
  0.12450000000000001         -20.476257756002916     
  0.12480000000000001         -19.936459193592562     
  0.12509999999999999         -18.122713164441137     
  0.12540000000000001         -15.137556698378219     
  0.12570000000000003         -11.168670456209078     
  0.12600000000000000         -6.4720229344842881     
  0.12630000000000002         -1.3506845407869719     
  0.12659999999999999          3.8696930560305627     
  0.12690000000000001          8.8655455600033317     
  0.12719999999999998          13.337841525703585     
  0.12750000000000000          17.032851421178684     
  0.12780000000000002          19.754622255570098     
  0.12809999999999999          21.375983132243988     
  0.12840000000000001          21.840066322710058     
  0.12869999999999998          21.158291279599638     
  0.12900000000000000          19.404359090165130     
  0.12930000000000003          16.703644040571366     
  0.12959999999999999          13.222250976062165     
  0.12990000000000002          9.1535638996641566     
  0.13019999999999998          4.7061635714776600     
  0.13050000000000000          9.1954731527118305E-002
  0.13080000000000003         -4.4831276382710641     
  0.13109999999999999         -8.8297969558174110     
  0.13140000000000002         -12.780073507640186     
  0.13169999999999998         -16.192641863520773     
  0.13200000000000001         -18.959485746362411     
  0.13229999999999997         -21.002888749892794     
  0.13260000000000000         -22.279693753680210     
  0.13290000000000002         -22.780218760205916     
  0.13319999999999999         -22.523377775862837     
  0.13350000000000001         -21.556546997654454     
  0.13380000000000003         -19.950073337374064     
  0.13410000000000000         -17.790449904868161     
  0.13440000000000002         -15.178316324621267     
  0.13469999999999999         -12.220271860937661     
  0.13500000000000001         -9.0234075898147932     
  0.13529999999999998         -5.6932486990911837     
  0.13560000000000000         -2.3278334543465586     
  0.13590000000000002         0.98639076656748936     
  0.13619999999999999          4.1716158920514168     
  0.13650000000000001          7.1633694955218132     
  0.13680000000000003          9.9094657069896215     
  0.13710000000000000          12.367202248363071     
  0.13740000000000002          14.503619796269671     
  0.13769999999999999          16.294075482424560     
  0.13800000000000001          17.719688539730644     
  0.13829999999999998          18.765902389785232     
  0.13860000000000000          19.425517409864739     
  0.13890000000000002          19.692943153047864     
  0.13919999999999999          19.568247491123103     
  0.13950000000000001          19.058809434938262     
  0.13979999999999998          18.175971118620431     
  0.14010000000000000          16.939696544076199     
  0.14040000000000002          15.379855850086628     
  0.14069999999999999          13.532783579372083     
  0.14100000000000001          11.445074717618326     
  0.14130000000000004          9.1725349211140195     
  0.14160000000000000          6.7757860856992256     
  0.14189999999999997          4.3211572580124606     
  0.14219999999999999          1.8779237441927985     
  0.14250000000000002        -0.48786995954881807     
  0.14279999999999998         -2.7131072074919960     
  0.14310000000000000         -4.7436449860121144     
  0.14339999999999997         -6.5355281908202389     
  0.14369999999999999         -8.0588573975973397     
  0.14400000000000002         -9.2975099345601180     
  0.14429999999999998         -10.249987491743566     
  0.14460000000000001         -10.929732542635511     
  0.14490000000000003         -11.361530701468746     
  0.14520000000000000         -11.578807850812296     
  0.14550000000000002         -11.622736750462781     
  0.14579999999999999         -11.533883227911014     
  0.14610000000000001         -11.352042660830540     
  0.14640000000000003         -11.112084750711556     
  0.14670000000000000         -10.838780081574674     
  0.14699999999999996         -10.548286291620331     
  0.14729999999999999         -10.245350717520946     
  0.14760000000000001         -9.9226729312049819     
  0.14789999999999998         -9.5643770728497195     
  0.14820000000000000         -9.1476027457103513     