  -1.4999999999999999E-002     0.0000000000000000     
  -1.4700000000000000E-002     0.0000000000000000     
  -1.4400000000000000E-002     0.0000000000000000     
  -1.4100000000000000E-002     0.0000000000000000     
  -1.3800000000000000E-002     0.0000000000000000     
  -1.3500000000000000E-002     0.0000000000000000     
  -1.3200000000000000E-002     0.0000000000000000     
  -1.2899999999999998E-002     0.0000000000000000     
  -1.2600000000000000E-002     0.0000000000000000     
  -1.2299999999999998E-002     0.0000000000000000     
  -1.2000000000000000E-002     0.0000000000000000     
  -1.1699999999999999E-002     0.0000000000000000     
  -1.1399999999999999E-002     0.0000000000000000     
  -1.1099999999999999E-002     0.0000000000000000     
  -1.0799999999999999E-002     0.0000000000000000     
  -1.0499999999999999E-002     0.0000000000000000     
  -1.0199999999999999E-002     0.0000000000000000     
  -9.8999999999999991E-003     0.0000000000000000     
  -9.5999999999999992E-003     0.0000000000000000     
  -9.2999999999999992E-003     0.0000000000000000     
  -8.9999999999999993E-003     0.0000000000000000     
  -8.6999999999999994E-003     0.0000000000000000     
  -8.3999999999999995E-003     0.0000000000000000     
  -8.0999999999999996E-003     0.0000000000000000     
  -7.7999999999999988E-003     0.0000000000000000     
  -7.4999999999999997E-003     0.0000000000000000     
  -7.1999999999999998E-003     0.0000000000000000     
  -6.8999999999999981E-003     0.0000000000000000     
  -6.5999999999999982E-003     0.0000000000000000     
  -6.3000000000000000E-003     0.0000000000000000     
  -6.0000000000000001E-003     0.0000000000000000     
  -5.6999999999999985E-003     0.0000000000000000     
  -5.3999999999999986E-003     0.0000000000000000     
  -5.1000000000000004E-003     0.0000000000000000     
  -4.7999999999999987E-003     0.0000000000000000     
  -4.5000000000000005E-003     0.0000000000000000     
  -4.1999999999999989E-003     0.0000000000000000     
  -3.8999999999999990E-003     0.0000000000000000     
  -3.5999999999999990E-003     0.0000000000000000     
  -3.2999999999999991E-003     0.0000000000000000     
  -2.9999999999999992E-003     0.0000000000000000     
  -2.6999999999999993E-003     0.0000000000000000     
  -2.3999999999999994E-003     0.0000000000000000     
  -2.0999999999999977E-003     0.0000000000000000     
  -1.7999999999999995E-003     0.0000000000000000     
  -1.4999999999999979E-003     0.0000000000000000     
  -1.1999999999999997E-003     0.0000000000000000     
  -8.9999999999999976E-004     0.0000000000000000     
  -5.9999999999999810E-004     0.0000000000000000     
  -2.9999999999999992E-004     0.0000000000000000     
   0.0000000000000000          0.0000000000000000     
   3.0000000000000165E-004     0.0000000000000000     
   5.9999999999999984E-004     0.0000000000000000     
   9.0000000000000149E-004     0.0000000000000000     
   1.2000000000000031E-003     0.0000000000000000     
   1.5000000000000013E-003     0.0000000000000000     
   1.8000000000000030E-003     0.0000000000000000     
   2.1000000000000012E-003    -4.2722210612543488E-043
   2.3999999999999994E-003     1.8757846430470470E-042
   2.7000000000000010E-003    -1.2156127718123502E-041
   2.9999999999999992E-003     4.5324558873734908E-038
   3.3000000000000008E-003    -2.7112864780026671E-037
   3.6000000000000025E-003     9.8370690735224618E-037
   3.9000000000000007E-003    -2.2955172796309498E-036
   4.2000000000000023E-003    -4.7010731282518878E-037
   4.5000000000000005E-003    -2.9318275045359903E-036
   4.7999999999999987E-003     7.7336385624524754E-036
   5.1000000000000004E-003     2.8130544342130674E-035
   5.4000000000000020E-003    -1.2333403047917988E-034
   5.7000000000000037E-003     7.6909068462148968E-034
   5.9999999999999984E-003    -2.0834662258427740E-033
   6.3000000000000000E-003     2.9980032471152654E-033
   6.6000000000000017E-003    -1.0632499885615054E-033
   6.9000000000000034E-003    -4.7608896233575897E-033
   7.2000000000000015E-003     1.3439484583853342E-032
   7.5000000000000032E-003    -2.3947818940311028E-032
   7.8000000000000014E-003     2.7337910544074360E-032
   8.0999999999999996E-003    -8.2592224863895101E-033
   8.4000000000000012E-003    -4.3472291069542062E-032
   8.7000000000000029E-003     1.2519284958184788E-031
   9.0000000000000011E-003    -2.1003909143762567E-031
   9.2999999999999992E-003     2.3435857137486073E-031
   9.6000000000000009E-003    -1.1323496407677684E-031
   9.8999999999999991E-003    -2.1472960450962478E-031
   1.0200000000000001E-002     7.3679542354571355E-031
   1.0500000000000002E-002    -1.2985702465467196E-030
   1.0800000000000004E-002     1.5695558443564774E-030
   1.1099999999999999E-002    -1.1025172801393362E-030
   1.1400000000000000E-002    -4.8969679315102876E-031
   1.1700000000000002E-002     3.2251828769956773E-030
   1.2000000000000004E-002    -6.4170388566790157E-030
   1.2300000000000002E-002     8.5536768891042041E-030
   1.2600000000000000E-002    -7.5537776341781130E-030
   1.2900000000000002E-002     1.4680038444651471E-030
   1.3200000000000000E-002     1.0249947024181222E-029
   1.3500000000000002E-002    -2.5290243168107058E-029
   1.3800000000000003E-002     3.7950885321676354E-029
   1.4100000000000001E-002    -4.0008137061381116E-029
   1.4400000000000000E-002     2.2783216181292885E-029
   1.4700000000000001E-002     1.9317363730354176E-029
   1.4999999999999999E-002    -8.2682016656729482E-029
   1.5300000000000001E-002     1.4398801273372924E-028
   1.5600000000000003E-002    -1.5800533975395864E-028
   1.5899999999999997E-002     9.8332136977619338E-029
   1.6199999999999999E-002    -1.0700842985529137E-029
   1.6500000000000001E-002    -6.2921969734920611E-029
   1.6800000000000002E-002     2.5844534183852922E-028
   1.7100000000000004E-002    -7.5774884406124862E-028
   1.7400000000000006E-002     1.2030703123238384E-027
   1.7700000000000000E-002    -5.4037923502489328E-028
   1.8000000000000002E-002    -1.5628114538068430E-027
   1.8300000000000004E-002     2.8723119412592342E-027
   1.8600000000000005E-002    -4.3869535873409974E-028
   1.8900000000000000E-002    -3.4579930125650283E-027
   1.9200000000000002E-002     8.8305190217745943E-028
   1.9500000000000003E-002     1.0102700337961373E-026
   1.9799999999999998E-002    -1.4905701712533125E-026
   2.0100000000000000E-002    -1.0284638831751290E-026
   2.0400000000000001E-002     6.9544805559651877E-026
   2.0700000000000003E-002    -8.9464545405623479E-026
   2.0999999999999998E-002    -1.1457362938920221E-025
   2.1299999999999999E-002     5.6143554030343925E-025
   2.1600000000000001E-002    -3.6865153875297675E-025
   2.1900000000000003E-002    -1.4713323531650548E-024
   2.2200000000000004E-002    -4.2201447929152648E-025
   2.2500000000000006E-002     2.0763924974324878E-023
   2.2800000000000001E-002    -3.2403091919250410E-023
   2.3100000000000002E-002    -1.6111850506911104E-022
   2.3400000000000004E-002     8.0220741071119230E-022
   2.3699999999999999E-002    -1.0127810789929865E-021
   2.4000000000000000E-002    -2.9393788351071246E-021
   2.4300000000000002E-002     1.4654031297838173E-020
   2.4599999999999997E-002    -2.2767414057930316E-020
   2.4900000000000005E-002    -1.5231251135387793E-020
   2.5200000000000000E-002     1.4984084240362591E-019
   2.5499999999999995E-002    -3.4961740217342706E-019
   2.5800000000000003E-002     3.5719129731793991E-019
   2.6099999999999998E-002     5.9094088184725522E-019
   2.6400000000000007E-002    -4.0188370432054482E-018
   2.6700000000000002E-002     9.9398132666737849E-018
   2.6999999999999996E-002    -7.1080442764686113E-018
   2.7300000000000005E-002    -3.6932281555231016E-017
   2.7600000000000000E-002     1.4111311481623882E-016
   2.7900000000000008E-002    -1.7768505102998624E-016
   2.8200000000000003E-002    -2.6613368269386452E-016
   2.8499999999999998E-002     1.5809186270216138E-015
   2.8800000000000006E-002    -2.5998086793068273E-015
   2.9100000000000001E-002    -1.9128592817265840E-015
   2.9400000000000003E-002     1.8287908255351298E-014
   2.9700000000000004E-002    -3.0052454283237285E-014
   3.0000000000000006E-002    -3.4507582125052038E-014
   3.0300000000000001E-002     2.1669097841937307E-013
   3.0600000000000002E-002    -1.9768777975378251E-013
   3.0900000000000004E-002    -7.1731015923294576E-013
   3.1199999999999999E-002     1.9096316989037833E-012
   3.1500000000000007E-002     6.5653258966919483E-013
   3.1800000000000002E-002    -8.7816658688794472E-012
   3.2099999999999997E-002     6.9034391106188404E-012
   3.2400000000000005E-002     2.7292462397778888E-011
   3.2700000000000000E-002    -5.0898546579926215E-011
   3.3000000000000002E-002    -5.6795915517457593E-011
   3.3300000000000003E-002     2.2254663705885769E-010
   3.3599999999999998E-002     4.1502689555437881E-011
   3.3900000000000000E-002    -7.6497729075644230E-010
   3.4200000000000001E-002     2.8495610172002811E-010
   3.4500000000000003E-002     2.2710362995797990E-009
   3.4799999999999998E-002    -1.8119105897850837E-009
   3.5099999999999999E-002    -6.1551711550909148E-009
   3.5400000000000001E-002     6.9000406588668421E-009
   3.5699999999999996E-002     1.4943371700321827E-008
   3.6000000000000004E-002    -2.4720351820626429E-008
   3.6299999999999999E-002    -4.1969143545319579E-008
   3.6600000000000008E-002     6.9021080694272956E-008
   3.6900000000000002E-002     1.4082143188937783E-007
   3.7199999999999997E-002     8.9366379990314505E-008
   3.7500000000000006E-002     1.1241716335240263E-006
   3.7800000000000000E-002     5.6609683098209780E-006
   3.8100000000000009E-002     1.4531649893715063E-005
   3.8400000000000004E-002     2.4952341953670879E-005
   3.8699999999999998E-002     3.3610083273439005E-005
   3.9000000000000007E-002     4.2090610248442313E-005
   3.9300000000000002E-002     5.7265556606747267E-005
   3.9600000000000003E-002     8.5979414953113819E-005
   3.9900000000000005E-002     1.3162156342800093E-004
   4.0200000000000000E-002     1.9722695658207787E-004
   4.0500000000000001E-002     2.9051339472216321E-004
   4.0800000000000003E-002     4.2376367407042146E-004
   4.1100000000000005E-002     6.0847495828068757E-004
   4.1399999999999999E-002     8.5256059753791849E-004
   4.1700000000000008E-002     1.1649495480114788E-003
   4.2000000000000003E-002     1.5598871102017009E-003
   4.2299999999999997E-002     2.0511892144939635E-003
   4.2600000000000006E-002     2.6426052600675527E-003
   4.2900000000000001E-002     3.3267151297315138E-003
   4.3200000000000002E-002     4.0880534625193522E-003
   4.3500000000000004E-002     4.8975878105592683E-003
   4.3799999999999999E-002     5.7015278615047266E-003
   4.4100000000000000E-002     6.4133412707674522E-003
   4.4400000000000002E-002     6.9075313039877731E-003
   4.4700000000000004E-002     7.0192139761643697E-003
   4.4999999999999998E-002     6.5565681495613724E-003
   4.5300000000000000E-002     5.3113982305483280E-003
   4.5600000000000002E-002     3.0537219588896527E-003
   4.5899999999999996E-002    -4.5956549315092081E-004
   4.6200000000000005E-002    -5.4367159035478467E-003
   4.6500000000000000E-002    -1.2001601367749245E-002
   4.6799999999999994E-002    -2.0186483307652794E-002
   4.7100000000000003E-002    -2.9924367721763184E-002
   4.7399999999999998E-002    -4.1000673939765531E-002
   4.7700000000000006E-002    -5.3010613055364815E-002
   4.8000000000000001E-002    -6.5376969058615064E-002
   4.8300000000000010E-002    -7.7387335087052547E-002
   4.8600000000000004E-002    -8.8225864507122595E-002
   4.8899999999999999E-002    -9.7043397137446516E-002
   4.9200000000000008E-002   -0.10307252781147852     
   4.9500000000000002E-002   -0.10573040901117234     
   4.9800000000000011E-002   -0.10468590241631046     
   5.0100000000000006E-002    -9.9930814461105327E-002
   5.0400000000000000E-002    -9.1844339303467235E-002
   5.0700000000000009E-002    -8.1205974251822619E-002
   5.1000000000000004E-002    -6.9122530714909300E-002
   5.1299999999999998E-002    -5.6901764180371975E-002
   5.1600000000000007E-002    -4.5880212211176427E-002
   5.1900000000000002E-002    -3.7218628537903378E-002
   5.2200000000000010E-002    -3.1704878847858435E-002
   5.2500000000000005E-002    -2.9601153458060026E-002
   5.2800000000000000E-002    -3.0521241616861317E-002
   5.3099999999999994E-002    -3.3399419771209041E-002
   5.3400000000000003E-002    -3.6605504047084535E-002
   5.3699999999999998E-002    -3.8149436209488297E-002
   5.4000000000000006E-002    -3.6043413042412778E-002
   5.4300000000000001E-002    -2.8624548872903180E-002
   5.4599999999999996E-002    -1.4937417998003622E-002
   5.4900000000000004E-002     4.8512715111987811E-003
   5.5199999999999999E-002     2.9341387206446093E-002
   5.5499999999999994E-002     5.5856417027906391E-002
   5.5800000000000002E-002     8.0537547475993218E-002
   5.6099999999999997E-002     9.8744684241145353E-002
   5.6400000000000006E-002    0.10568912769154627     
   5.6700000000000000E-002     9.7000070254462611E-002
   5.6999999999999995E-002     6.9505377481360681E-002
   5.7300000000000004E-002     2.1880683114021041E-002
   5.7599999999999998E-002    -4.4965626158285157E-002
   5.7900000000000007E-002   -0.12748921021974047     
   5.8200000000000002E-002   -0.21972813697782800     
   5.8499999999999996E-002   -0.31368825190585625     
   5.8800000000000005E-002   -0.39994266633020670     
   5.9100000000000000E-002   -0.46855700280945844     
   5.9400000000000008E-002   -0.51014189198778426     
   5.9700000000000003E-002   -0.51683367100829714     
   6.0000000000000012E-002   -0.48314776665500991     
   6.0300000000000006E-002   -0.40665915829455507     
   6.0600000000000001E-002   -0.28832601694693732     
   6.0900000000000010E-002   -0.13242215219454559     
   6.1200000000000004E-002     5.3797878592071961E-002
   6.1500000000000013E-002    0.26081596098741028     
   6.1800000000000008E-002    0.47769538412403967     
   6.2100000000000002E-002    0.69299810352961899     
   6.2399999999999997E-002    0.89567415907239156     
   6.2700000000000006E-002     1.0760156944689201     
   6.3000000000000000E-002     1.2260576941134715     
   6.3300000000000009E-002     1.3399417202853869     
   6.3600000000000004E-002     1.4140848862028803     
   6.3899999999999998E-002     1.4469124463349710     
   6.4199999999999993E-002     1.4386796564693414     
   6.4500000000000002E-002     1.3909925443852369     
   6.4800000000000010E-002     1.3065433180420127     
   6.5100000000000005E-002     1.1887860141982380     
   6.5400000000000000E-002     1.0416453121873441     
   6.5700000000000008E-002    0.86955397071828111     
   6.5999999999999989E-002    0.67745090818828912     
   6.6299999999999998E-002    0.47073468475875402     
   6.6600000000000006E-002    0.25538007276995445     
   6.6900000000000001E-002     3.7910672369476088E-002
   6.7199999999999996E-002   -0.17475027884601463     
   6.7500000000000004E-002   -0.37566685960960061     
   6.7800000000000013E-002   -0.55810803893429495     
   6.8099999999999994E-002   -0.71622331376758863     
   6.8400000000000002E-002   -0.84540190267175896     
   6.8700000000000011E-002   -0.94281447766943338     
   6.8999999999999992E-002    -1.0077210409679687     
   6.9300000000000000E-002    -1.0413905294287837     
   6.9600000000000009E-002    -1.0470945550990527     
   6.9900000000000004E-002    -1.0296177369310389     
   7.0199999999999999E-002   -0.99471229109673764     
   7.0500000000000007E-002   -0.94825045843594546     
   7.0800000000000016E-002   -0.89542891898715493     
   7.1099999999999997E-002   -0.84033339045929512     
   7.1400000000000005E-002   -0.78523634281303778     
   7.1700000000000000E-002   -0.73059015221463208     
   7.1999999999999995E-002   -0.67523150010270205     
   7.2300000000000003E-002   -0.61689690661127161     
   7.2600000000000012E-002   -0.55282588469248051     
   7.2900000000000006E-002   -0.48055795924008404     
   7.3200000000000001E-002   -0.39929745756496104     
   7.3499999999999996E-002   -0.31002001160360010     
   7.3800000000000004E-002   -0.21616525462010550     
   7.4099999999999999E-002   -0.12378128931774385     
   7.4400000000000008E-002    -4.0872752831397553E-002
   7.4700000000000003E-002     2.3304163432623058E-002
   7.5000000000000011E-002     5.9316394053875787E-002
   7.5299999999999992E-002     5.8759554088322799E-002
   7.5600000000000001E-002     1.5758747790991900E-002
   7.5900000000000009E-002    -7.2133671932806592E-002
   7.6200000000000004E-002   -0.20314777636571263     
   7.6499999999999999E-002   -0.37093478063075691     
   7.6800000000000007E-002   -0.56499839930654416     
   7.7099999999999988E-002   -0.77119176935670053     
   7.7399999999999997E-002   -0.97327184389184951     
   7.7700000000000005E-002    -1.1541772170648728     
   7.8000000000000014E-002    -1.2978712207230232     
   7.8299999999999995E-002    -1.3908282407906232     
   7.8600000000000003E-002    -1.4233108989772829     
   7.8900000000000012E-002    -1.3904577886355323     
   7.9199999999999993E-002    -1.2924097059343713     
   7.9500000000000001E-002    -1.1342850695494913     
   7.9800000000000010E-002   -0.92534267727156672     
   8.0100000000000018E-002   -0.67779152425112366     
   8.0399999999999999E-002   -0.40561374726463223     
   8.0700000000000008E-002   -0.12273802520698751     
   8.1000000000000003E-002    0.15812103744794609     
   8.1299999999999997E-002    0.42664451963446037     
   8.1600000000000006E-002    0.67563322439821549     
   8.1900000000000014E-002    0.90113642602360566     
   8.2199999999999995E-002     1.1022782394672972     
   8.2500000000000004E-002     1.2806615314436527     
   8.2799999999999999E-002     1.4392648743930474     
   8.3100000000000007E-002     1.5813387906002061     
   8.3400000000000002E-002     1.7098248231580122     
   8.3700000000000011E-002     1.8260416276214970     
   8.4000000000000005E-002     1.9293033816711254     
   8.4300000000000000E-002     2.0172338134875862     
   8.4599999999999995E-002     2.0855076496586742     
   8.4900000000000003E-002     2.1288515904252860     
   8.5199999999999998E-002     2.1416674320049687     
   8.5500000000000007E-002     2.1192884332688608     
   8.5800000000000001E-002     2.0585348719938339     
   8.6100000000000010E-002     1.9582500646380567     
   8.6399999999999991E-002     1.8200937266469372     
   8.6699999999999999E-002     1.6480467505682670     
   8.7000000000000008E-002     1.4480461409621799     
   8.7300000000000003E-002     1.2274487265450684     
   8.7599999999999997E-002    0.99415285661404917     
   8.7900000000000006E-002    0.75555765194254043     
   8.8200000000000014E-002    0.51794035430342877     
   8.8499999999999995E-002    0.28607912994337936     
   8.8800000000000004E-002     6.2967435829111046E-002
   8.9100000000000013E-002   -0.14963361310360623     
   8.9399999999999993E-002   -0.35117962886631021     
   8.9700000000000002E-002   -0.54130785896105771     
   9.0000000000000011E-002   -0.71889945004216549     
   9.0299999999999991E-002   -0.88200486949141732     
   9.0600000000000000E-002    -1.0268356140456663     
   9.0900000000000009E-002    -1.1482950700372385     
   9.1200000000000017E-002    -1.2399535794580441     
   9.1499999999999998E-002    -1.2950502503280430     
   9.1800000000000007E-002    -1.3077980769061657     
   9.2100000000000001E-002    -1.2741255840185211     
   9.2399999999999996E-002    -1.1930009110659987     
   9.2700000000000005E-002    -1.0676310766144765     
   9.3000000000000013E-002   -0.90558949546112233     
   9.3300000000000008E-002   -0.71856031628395012     
   9.3600000000000003E-002   -0.52254279898632383     
   9.3899999999999997E-002   -0.33580616913586181     
   9.4200000000000006E-002   -0.17732704250983275     
   9.4500000000000001E-002    -6.5728426352594335E-002
   9.4800000000000009E-002    -1.6036074990809918E-002
   9.5100000000000004E-002    -3.8878873802364246E-002
   9.5399999999999999E-002   -0.13880444248801516     
   9.5699999999999993E-002   -0.31303095312203588     
   9.6000000000000002E-002   -0.55189814352289523     
   9.6300000000000011E-002   -0.83907270495456299     
   9.6600000000000005E-002    -1.1527282555196987     
   9.6900000000000000E-002    -1.4673324604865876     
   9.7200000000000009E-002    -1.7556803086928223     
   9.7499999999999989E-002    -1.9910827157936826     
   9.7799999999999998E-002    -2.1495317028503882     
   9.8100000000000007E-002    -2.2113590110567909     
   9.8400000000000015E-002    -2.1627913110147041     
   9.8699999999999996E-002    -1.9969398527284712     
   9.9000000000000005E-002    -1.7134593561606595     
   9.9300000000000013E-002    -1.3191368737595657     
   9.9599999999999994E-002   -0.82666002117443615     
   9.9900000000000003E-002   -0.25351460271264631     
  0.10020000000000001         0.37845392456833316     
  0.10049999999999999          1.0450082914431598     
  0.10080000000000000          1.7202144780314756     
  0.10110000000000001          2.3774284029693975     
  0.10140000000000000          2.9901158060684185     
  0.10170000000000000          3.5326888440284510     
  0.10200000000000001          3.9810503913421567     
  0.10230000000000002          4.3130343634899866     
  0.10260000000000000          4.5097326121132149     
  0.10290000000000001          4.5557678485265267     
  0.10320000000000000          4.4404442353288447     
  0.10350000000000001          4.1587890293560292     
  0.10380000000000000          3.7124168849712227     
  0.10410000000000001          3.1100701736023675     
  0.10440000000000001          2.3676846312907456     
  0.10470000000000000          1.5089354161164630     
  0.10500000000000000         0.56352080749077893     
  0.10530000000000000        -0.43344298362419759     
  0.10560000000000000         -1.4433313587582048     
  0.10590000000000001         -2.4263681415674880     
  0.10620000000000000         -3.3436146261542232     
  0.10650000000000001         -4.1592728414061497     
  0.10679999999999999         -4.8427844691628676     
  0.10710000000000000         -5.3705796692079932     
  0.10740000000000001         -5.7262231483101500     
  0.10770000000000000         -5.9021732146477914     
  0.10800000000000000         -5.8989281346010563     
  0.10830000000000001         -5.7236706273503284     
  0.10859999999999999         -5.3909025016756900     
  0.10890000000000000         -4.9197540094743895     
  0.10920000000000001         -4.3328663020285383     
  0.10950000000000001         -3.6552556929154019     
  0.10979999999999999         -2.9127625320966732     
  0.11009999999999999         -2.1309398035397389     
  0.11040000000000001         -1.3339001472760978     
  0.11070000000000001        -0.54417553688604281     
  0.11100000000000000         0.21849935694002895     
  0.11130000000000000         0.93704217810546275     
  0.11160000000000002          1.5974832965820616     
  0.11190000000000001          2.1889249346099851     
  0.11220000000000001          2.7033198699912289     
  0.11250000000000000          3.1354673911826954     
  0.11280000000000000          3.4823780482223272     
  0.11309999999999999          3.7434945344407193     
  0.11340000000000001          3.9193467589350108     
  0.11369999999999998          4.0124294206061117     
  0.11400000000000000          4.0258141863776142     
  0.11430000000000000          3.9630273545650860     
  0.11460000000000002          3.8292513891253082     
  0.11489999999999999          3.6292062371736451     
  0.11520000000000001          3.3692578669803206     
  0.11550000000000001          3.0570406031749870     
  0.11580000000000000          2.7007104303988920     
  0.11609999999999999          2.3105676847116214     
  0.11640000000000002          1.8978448170319488     
  0.11670000000000001          1.4748567800785319     
  0.11700000000000001          1.0544751444049809     
  0.11730000000000000         0.64953783620447580     
  0.11760000000000000         0.27105574957653011     
  0.11789999999999999         -7.1096349059094385E-002
  0.11820000000000001        -0.37012099374676194     
  0.11850000000000001        -0.62320692507698650     
  0.11880000000000000        -0.83011787474236787     
  0.11910000000000000        -0.99501240190653872     
  0.11940000000000002         -1.1250085586728045     
  0.11970000000000001         -1.2290843538654914     
  0.12000000000000001         -1.3180351297330442     
  0.12030000000000000         -1.4020939722748054     
  0.12060000000000000         -1.4907524921696704     
  0.12089999999999999         -1.5907061123260615     
  0.12119999999999999         -1.7061794770272884     
  0.12150000000000001         -1.8375567771671766     
  0.12180000000000001         -1.9816986770071825     
  0.12210000000000000         -2.1325232706524542     
  0.12239999999999999         -2.2809859668996486     
  0.12270000000000002         -2.4167293435845574     
  0.12300000000000001         -2.5286431861723377     
  0.12330000000000001         -2.6060981549767130     
  0.12360000000000000         -2.6395589867537819     
  0.12390000000000000         -2.6221415205601026     
  0.12419999999999999         -2.5494988079696528     
  0.12450000000000001         -2.4201069577547942     
  0.12480000000000001         -2.2365169413041945     
  0.12509999999999999         -2.0030977541976895     
  0.12540000000000001         -1.7275755979746901     
  0.12570000000000003         -1.4195074172286628     
  0.12600000000000000         -1.0894370865664575     
  0.12630000000000002        -0.74892727369852841     
  0.12659999999999999        -0.40843170621572822     
  0.12690000000000001         -7.7960757773644002E-002
  0.12719999999999998         0.23435682842011271     
  0.12750000000000000         0.52303371664834586     
  0.12780000000000002         0.78481471853483442     
  0.12809999999999999          1.0192939436950605     
  0.12840000000000001          1.2283741341625021     
  0.12869999999999998          1.4161523178304822     
  0.12900000000000000          1.5881956673677426     
  0.12930000000000003          1.7507025345877967     
  0.12959999999999999          1.9093889895253007     
  0.12990000000000002          2.0688475145631608     
  0.13019999999999998          2.2321192223895743     
  0.13050000000000000          2.3984869514525360     
  0.13080000000000003          2.5658000797979748     
  0.13109999999999999          2.7281264408783388     
  0.13140000000000002          2.8770860821980273     
  0.13169999999999998          3.0030184918694767     
  0.13200000000000001          3.0958180953246224     
  0.13229999999999997          3.1454286513284524     
  0.13260000000000000          3.1442169406948608     
  0.13290000000000002          3.0881115814241058     
  0.13319999999999999          2.9760780302710614     
  0.13350000000000001          2.8124482493407790     
  0.13380000000000003          2.6062388421715470     
  0.13410000000000000          2.3690562787099188     
  0.13440000000000002          2.1166318189121283     
  0.13469999999999999          1.8645344960179955     
  0.13500000000000001          1.6276122647602405     
  0.13529999999999998          1.4174444522650880     
  0.13560000000000000          1.2402630134027319     
  0.13590000000000002          1.0955853787413841     
  0.13619999999999999         0.97558696828520008     
  0.13650000000000001         0.86508125038161710     
  0.13680000000000003         0.74254505750924860     
  0.13710000000000000         0.58333108009234624     
  0.13740000000000002         0.36250501168001009     
  0.13769999999999999          5.9115708165356218E-002
  0.13800000000000001        -0.33907104201963861     
  0.13829999999999998        -0.83192773275154386     
  0.13860000000000000         -1.4033730035703886     
  0.13890000000000002         -2.0202326504247843     
  0.13919999999999999         -2.6321160817276090     
  0.13950000000000001         -3.1750154798529744     
  0.13979999999999998         -3.5766456342619790     
  0.14010000000000000         -3.7639378744136964     
  0.14040000000000002         -3.6728253872057692     
  0.14069999999999999         -3.2574293939199088     
  0.14100000000000001         -2.5005597528067307     
  0.14130000000000004         -1.4194979626580042     
  0.14160000000000000         -7.1873899820754206E-002
  0.14189999999999997          1.4447695776558764     
  0.14219999999999999          2.9982803994968439     
  0.14250000000000002          4.4308035294413353     
  0.14279999999999998          5.5712043666785425     
  0.14310000000000000          6.2544494238089783     
  0.14339999999999997          6.3379302302747949     
  0.14369999999999999          5.7187585425859382     
  0.14400000000000002          4.3505445241326823     
  0.14429999999999998          2.2524785752988246     
  0.14460000000000001        -0.48675422054507145     
  0.14490000000000003         -3.7092531300216054     
  0.14520000000000000         -7.2002541872052923     
  0.14550000000000002         -10.702951208215614     
  0.14579999999999999         -13.940233381352611     
  0.14610000000000001         -16.638204340011796     
  0.14640000000000003         -18.551271769107387     
  0.14670000000000000         -19.484970034144602     
  0.14699999999999996         -19.313040308105716     
  0.14729999999999999         -17.990452895217352     
  0.14760000000000001         -15.558239967421486     
  0.14789999999999998         -12.139212338408029     
  0.14820000000000000         -7.9279654396875721     