  -1.4999999999999999E-002     0.0000000000000000     
  -1.4700000000000000E-002     0.0000000000000000     
  -1.4400000000000000E-002     0.0000000000000000     
  -1.4100000000000000E-002     0.0000000000000000     
  -1.3800000000000000E-002     0.0000000000000000     
  -1.3500000000000000E-002     0.0000000000000000     
  -1.3200000000000000E-002     1.2099899829219922E-036
  -1.2899999999999998E-002     5.6911519602981346E-035
  -1.2600000000000000E-002    -1.9633935337089957E-033
  -1.2299999999999998E-002    -3.7896379511195866E-032
  -1.2000000000000000E-002     6.2548617085897027E-031
  -1.1699999999999999E-002     4.3092477326227724E-030
  -1.1399999999999999E-002    -6.4236630025406071E-029
  -1.1099999999999999E-002    -1.0895309168472579E-028
  -1.0799999999999999E-002     2.6575576185822351E-027
  -1.0499999999999999E-002    -1.0084552776767223E-027
  -1.0199999999999999E-002    -5.3289059629479753E-026
  -9.8999999999999991E-003     6.6387363617802354E-026
  -9.5999999999999992E-003     6.1844758128671566E-025
  -9.2999999999999992E-003    -9.2924008989996505E-025
  -8.9999999999999993E-003    -5.0480062385420250E-024
  -8.6999999999999994E-003     6.3238792175007576E-024
  -8.3999999999999995E-003     3.4674783247734208E-023
  -8.0999999999999996E-003    -2.2228569765263943E-023
  -7.7999999999999988E-003    -2.1001650469577761E-022
  -7.4999999999999997E-003     8.4925435550898044E-024
  -7.1999999999999998E-003     1.0163551777433881E-021
  -6.8999999999999981E-003     5.2374985346791197E-022
  -6.5999999999999982E-003    -3.6920959462291202E-021
  -6.3000000000000000E-003    -4.3496179268675242E-021
  -6.0000000000000001E-003     9.2597289998766447E-021
  -5.6999999999999985E-003     1.8390794506927442E-020
  -5.3999999999999986E-003    -1.9834153756616974E-021
  -5.1000000000000004E-003    -5.0665125297668792E-020
  -4.7999999999999987E-003    -1.0508182244433333E-019
  -4.5000000000000005E-003     6.7680553124878664E-020
  -4.1999999999999989E-003     4.9099351437608541E-019
  -3.8999999999999990E-003     3.5983079273953028E-019
  -3.5999999999999990E-003    -1.4222770791402588E-018
  -3.2999999999999991E-003    -2.6393380261368968E-018
  -2.9999999999999992E-003     3.3031082974610383E-018
  -2.6999999999999993E-003     6.8337908725272402E-018
  -2.3999999999999994E-003    -4.5837907307626667E-018
  -2.0999999999999977E-003    -7.2900624184291878E-019
  -1.7999999999999995E-003    -6.5138831969160334E-018
  -1.4999999999999979E-003    -5.5354341777001175E-017
  -1.1999999999999997E-003     6.0205608762720331E-017
  -8.9999999999999976E-004     2.0161401519785551E-016
  -5.9999999999999810E-004    -1.7168154063955456E-016
  -2.9999999999999992E-004    -3.0706107972289748E-016
   0.0000000000000000          1.7335494436593031E-016
   3.0000000000000165E-004    -2.0189463569181974E-016
   5.9999999999999984E-004     5.7315410741660350E-016
   9.0000000000000149E-004     1.9887973425382763E-015
   1.2000000000000031E-003    -3.0254193213483277E-015
   1.5000000000000013E-003    -3.3581630529367512E-015
   1.8000000000000030E-003     6.8268400885763903E-015
   2.1000000000000012E-003    -4.5599149272108240E-015
   2.3999999999999994E-003    -7.2156550915845781E-015
   2.7000000000000010E-003     3.9892464543541596E-014
   2.9999999999999992E-003    -7.4995598279633678E-015
   3.3000000000000008E-003    -1.1709850967277338E-013
   3.6000000000000025E-003     5.8150890926796744E-014
   3.9000000000000007E-003     2.1122629293245675E-013
   4.2000000000000023E-003    -1.8551648899685924E-013
   4.5000000000000005E-003    -2.2539150888825467E-013
   4.7999999999999987E-003     4.7493612975723523E-013
   5.1000000000000004E-003     3.3212445333825109E-014
   5.4000000000000020E-003    -1.0507367749888219E-012
   5.7000000000000037E-003     3.6284102838701045E-013
   5.9999999999999984E-003     1.9367724327636271E-012
   6.3000000000000000E-003    -7.0168879685353473E-013
   6.6000000000000017E-003    -2.7902103007750713E-012
   6.9000000000000034E-003     6.8240046044799700E-013
   7.2000000000000015E-003     2.9093530601244468E-012
   7.5000000000000032E-003    -5.4602911918582759E-013
   7.8000000000000014E-003    -2.1221833052480907E-012
   8.0999999999999996E-003     1.1415688439169555E-012
   8.4000000000000012E-003     2.2171484824854761E-012
   8.7000000000000029E-003    -2.3740800851855704E-012
   9.0000000000000011E-003    -6.6976725227577839E-012
   9.2999999999999992E-003     1.1123434915718782E-012
   9.6000000000000009E-003     1.6832560369697207E-011
   9.8999999999999991E-003     7.3293335325069688E-012
   1.0200000000000001E-002    -2.7034441174757660E-011
   1.0500000000000002E-002    -2.2177755631848093E-011
   1.0800000000000004E-002     2.7889948283291836E-011
   1.1099999999999999E-002     3.1938728536734394E-011
   1.1400000000000000E-002    -1.9537386998033315E-011
   1.1700000000000002E-002    -2.1260033819135427E-011
   1.2000000000000004E-002     2.2153433892512708E-011
   1.2300000000000002E-002    -2.0498375692174480E-011
   1.2600000000000000E-002    -7.0511558815229990E-011
   1.2900000000000002E-002     1.3584833201914333E-010
   1.3200000000000000E-002     2.2770322050761000E-010
   1.3500000000000002E-002    -5.4580236073014600E-010
   1.3800000000000003E-002    -7.6890791981067989E-010
   1.4100000000000001E-002     1.9315652463819752E-009
   1.4400000000000000E-002     2.9336947828932141E-009
   1.4700000000000001E-002    -5.5776987691045406E-009
   1.4999999999999999E-002    -1.1178757112812426E-008
   1.5300000000000001E-002     1.0879100373817295E-008
   1.5600000000000003E-002     3.4829534573603431E-008
   1.5899999999999997E-002    -7.8586585194811454E-009
   1.6199999999999999E-002    -7.9973840697474326E-008
   1.6500000000000001E-002    -1.9739417908236537E-008
   1.6800000000000002E-002     1.8748917706338289E-007
   1.7100000000000004E-002     4.6249613185982935E-007
   1.7400000000000006E-002     1.5739408496202970E-006
   1.7700000000000000E-002     5.9388951454073979E-006
   1.8000000000000002E-002     1.6456356108753793E-005
   1.8300000000000004E-002     3.3411265306797428E-005
   1.8600000000000005E-002     5.2171892742242848E-005
   1.8900000000000000E-002     6.5487140681436774E-005
   1.9200000000000002E-002     7.1923274641568665E-005
   1.9500000000000003E-002     8.4178165494550118E-005
   1.9799999999999998E-002     1.2380405228246686E-004
   2.0100000000000000E-002     1.9945656802773860E-004
   2.0400000000000001E-002     2.9227296052011234E-004
   2.0700000000000003E-002     3.7489336569338459E-004
   2.0999999999999998E-002     4.4764847507220036E-004
   2.1299999999999999E-002     5.4042547055854436E-004
   2.1600000000000001E-002     6.6568808828919984E-004
   2.1900000000000003E-002     7.7617118006445605E-004
   2.2200000000000004E-002     7.7593873938306248E-004
   2.2500000000000006E-002     5.5750064197970057E-004
   2.2800000000000001E-002     3.3168776965691849E-006
   2.3100000000000002E-002    -1.0544423929449991E-003
   2.3400000000000004E-002    -2.8725481610590432E-003
   2.3699999999999999E-002    -5.8136014914517645E-003
   2.4000000000000000E-002    -1.0354410752488550E-002
   2.4300000000000002E-002    -1.7084857324008568E-002
   2.4599999999999997E-002    -2.6683756685083354E-002
   2.4900000000000005E-002    -3.9892677733290888E-002
   2.5200000000000000E-002    -5.7507787974964711E-002
   2.5499999999999995E-002    -8.0351379878520840E-002
   2.5800000000000003E-002   -0.10915168095990188     
   2.6099999999999998E-002   -0.14436197831906356     
   2.6400000000000007E-002   -0.18600361216756769     
   2.6700000000000002E-002   -0.23355436145371861     
   2.6999999999999996E-002   -0.28578956574308489     
   2.7300000000000005E-002   -0.34054270660666730     
   2.7600000000000000E-002   -0.39450230894773475     
   2.7900000000000008E-002   -0.44313801520575491     
   2.8200000000000003E-002   -0.48077797835392444     
   2.8499999999999998E-002   -0.50070898657206619     
   2.8800000000000006E-002   -0.49546771000012979     
   2.9100000000000001E-002   -0.45725346769196884     
   2.9400000000000003E-002   -0.37860122476100089     
   2.9700000000000004E-002   -0.25313473888517374     
   3.0000000000000006E-002    -7.6424352242514121E-002
   3.0300000000000001E-002    0.15310012115755342     
   3.0600000000000002E-002    0.43328463552233315     
   3.0900000000000004E-002    0.75756251667943375     
   3.1199999999999999E-002     1.1145505591608180     
   3.1500000000000007E-002     1.4879794751906530     
   3.1800000000000002E-002     1.8571781317864895     
   3.2099999999999997E-002     2.1979091831319151     
   3.2400000000000005E-002     2.4838522473155962     
   3.2700000000000000E-002     2.6882951154631503     
   3.3000000000000002E-002     2.7863701097199520     
   3.3300000000000003E-002     2.7573214024417396     
   3.3599999999999998E-002     2.5868399294047353     
   3.3900000000000000E-002     2.2687946497414724     
   3.4200000000000001E-002     1.8068419379126328     
   3.4500000000000003E-002     1.2149485164035840     
   3.4799999999999998E-002    0.51769941902402627     
   3.5099999999999999E-002   -0.25126593519048157     
   3.5400000000000001E-002    -1.0505394575988070     
   3.5699999999999996E-002    -1.8343143470914800     
   3.6000000000000004E-002    -2.5546399169829876     
   3.6299999999999999E-002    -3.1660682432152800     
   3.6600000000000008E-002    -3.6280798839820694     
   3.6900000000000002E-002    -3.9092295138788415     
   3.7199999999999997E-002    -3.9889955640198096     
   3.7500000000000006E-002    -3.8600752350529737     
   3.7800000000000000E-002    -3.5288321734748527     
   3.8100000000000009E-002    -3.0150822202618581     
   3.8400000000000004E-002    -2.3507381967090120     
   3.8699999999999998E-002    -1.5775957409719585     
   3.9000000000000007E-002   -0.74444592436465462     
   3.9300000000000002E-002     9.6417502871707861E-002
   3.9600000000000003E-002    0.89245323458426729     
   3.9900000000000005E-002     1.5945270590745202     
   4.0200000000000000E-002     2.1594979673540129     
   4.0500000000000001E-002     2.5528898847662669     
   4.0800000000000003E-002     2.7505253586126930     
   4.1100000000000005E-002     2.7396715611729521     
   4.1399999999999999E-002     2.5191970163402466     
   4.1700000000000008E-002     2.0992299390913232     
   4.2000000000000003E-002     1.5003714607220449     
   4.2299999999999997E-002    0.75233423514243736     
   4.2600000000000006E-002   -0.10753081477761323     
   4.2900000000000001E-002    -1.0364415763572341     
   4.3200000000000002E-002    -1.9879332509446939     
   4.3500000000000004E-002    -2.9145660355593717     
   4.3799999999999999E-002    -3.7697874858651037     
   4.4100000000000000E-002    -4.5106261762949398     
   4.4400000000000002E-002    -5.0993619904105660     
   4.4700000000000004E-002    -5.5062294196344235     
   4.4999999999999998E-002    -5.7103308116654006     
   4.5300000000000000E-002    -5.7014317742179461     
   4.5600000000000002E-002    -5.4795871136173346     
   4.5899999999999996E-002    -5.0556129804401264     
   4.6200000000000005E-002    -4.4496157827622715     
   4.6500000000000000E-002    -3.6894314796174479     
   4.6799999999999994E-002    -2.8084944059705519     
   4.7100000000000003E-002    -1.8428102748034498     
   4.7399999999999998E-002   -0.82921823474105660     
   4.7700000000000006E-002    0.19766469380355822     
   4.8000000000000001E-002     1.2063956685340611     
   4.8300000000000010E-002     2.1710375856123720     
   4.8600000000000004E-002     3.0696150278955301     
   4.8899999999999999E-002     3.8857930443559789     
   4.9200000000000008E-002     4.6061057744891176     
   4.9500000000000002E-002     5.2206429333164310     
   4.9800000000000011E-002     5.7202563915245932     
   5.0100000000000006E-002     6.0976006403298104     
   5.0400000000000000E-002     6.3453070270002598     
   5.0700000000000009E-002     6.4583131150876145     
   5.1000000000000004E-002     6.4330240658882829     
   5.1299999999999998E-002     6.2707936688348127     
   5.1600000000000007E-002     5.9778684829572626     
   5.1900000000000002E-002     5.5684139745050203     
   5.2200000000000010E-002     5.0633168125955130     
   5.2500000000000005E-002     4.4920600639887445     
   5.2800000000000000E-002     3.8896372054930000     
   5.3099999999999994E-002     3.2955376365517641     
   5.3400000000000003E-002     2.7492359295555615     
   5.3699999999999998E-002     2.2877013149971863     
   5.4000000000000006E-002     1.9399797748070973     
   5.4300000000000001E-002     1.7255613556519385     
   5.4599999999999996E-002     1.6499207799325837     
   5.4900000000000004E-002     1.7052086463730678     
   5.5199999999999999E-002     1.8693499940851490     
   5.5499999999999994E-002     2.1092711444991998     
   5.5800000000000002E-002     2.3829761545959931     
   5.6099999999999997E-002     2.6452555239345541     
   5.6400000000000006E-002     2.8508710703492408     
   5.6700000000000000E-002     2.9607232604788312     
   5.6999999999999995E-002     2.9436859769251740     
   5.7300000000000004E-002     2.7801115772985963     
   5.7599999999999998E-002     2.4609673562455381     
   5.7900000000000007E-002     1.9882018055453017     
   5.8200000000000002E-002     1.3710897401638134     
   5.8499999999999996E-002    0.62296898590723382     
   5.8800000000000005E-002   -0.24220814130085641     
   5.9100000000000000E-002    -1.2134158422050532     
   5.9400000000000008E-002    -2.2839473915707327     
   5.9700000000000003E-002    -3.4515712906436429     
   6.0000000000000012E-002    -4.7163873758072157     
   6.0300000000000006E-002    -6.0755027535800865     
   6.0600000000000001E-002    -7.5176782792802417     
   6.0900000000000010E-002    -9.0161558328729576     
   6.1200000000000004E-002    -10.522266501505673     
   6.1500000000000013E-002    -11.961067113696574     
   6.1800000000000008E-002    -13.230240916728494     
   6.2100000000000002E-002    -14.202851059914703     
   6.2399999999999997E-002    -14.735238476053796     
   6.2700000000000006E-002    -14.679749858168329     
   6.3000000000000000E-002    -13.901291801284266     
   6.3300000000000009E-002    -12.295632267766907     
   6.3600000000000004E-002    -9.8090638657650899     
   6.3899999999999998E-002    -6.4541881152084333     
   6.4199999999999993E-002    -2.3226327747653244     
   6.4500000000000002E-002     2.4114338292340576     
   6.4800000000000010E-002     7.4936735255925289     
   6.5100000000000005E-002     12.604677695307117     
   6.5400000000000000E-002     17.379099940903551     
   6.5700000000000008E-002     21.437485593999323     
   6.5999999999999989E-002     24.416101117021370     
   6.6299999999999998E-002     26.005074619326205     
   6.6600000000000006E-002     25.975411891660737     
   6.6900000000000001E-002     24.209970333653516     
   6.7199999999999996E-002     20.714500587532228     
   6.7500000000000004E-002     15.628560324569047     
   6.7800000000000013E-002     9.2139650995608022     
   6.8099999999999994E-002     1.8414880355817740     
   6.8400000000000002E-002    -6.0414135187828917     
   6.8700000000000011E-002    -13.941867690159258     
   6.8999999999999992E-002    -21.363937774923080     
   6.9300000000000000E-002    -27.844559727892765     
   6.9600000000000009E-002    -32.990849256467229     
   6.9900000000000004E-002    -36.507039222879136     
   7.0199999999999999E-002    -38.213891008809505     
   7.0500000000000007E-002    -38.057010820335890     
   7.0800000000000016E-002    -36.103475159934902     
   7.1099999999999997E-002    -32.530074826748674     
   7.1400000000000005E-002    -27.601729382181158     
   7.1700000000000000E-002    -21.645226730720527     
   7.1999999999999995E-002    -15.021021712573837     
   7.2300000000000003E-002    -8.0918244541067672     
   7.2600000000000012E-002    -1.2000645529313667     
   7.2900000000000006E-002     5.3576336383947627     
   7.3200000000000001E-002     11.339819430043708     
   7.3499999999999996E-002     16.574347657948408     
   7.3800000000000004E-002     20.953788924756179     
   7.4099999999999999E-002     24.435038095651770     
   7.4400000000000008E-002     27.026535288949884     
   7.4700000000000003E-002     28.779938022603147     
   7.5000000000000011E-002     29.772597708273338     
   7.5299999999999992E-002     30.097942977760908     
   7.5600000000000001E-002     29.851132916701147     
   7.5900000000000009E-002     29.122406361365066     
   7.6200000000000004E-002     27.988049894398689     
   7.6499999999999999E-002     26.510072558129430     
   7.6800000000000007E-002     24.733006269655363     
   7.7099999999999988E-002     22.687948768154499     
   7.7399999999999997E-002     20.393419891128374     
   7.7700000000000005E-002     17.863909534048471     
   7.8000000000000014E-002     15.109280270726440     
   7.8299999999999995E-002     12.146256097625352     
   7.8600000000000003E-002     8.9943159813366069     
   7.8900000000000012E-002     5.6897144839879799     
   7.9199999999999993E-002     2.2736424306695708     
   7.9500000000000001E-002    -1.1926192024754121     
   7.9800000000000010E-002    -4.6440205039991307     
   8.0100000000000018E-002    -7.9981103050684723     
   8.0399999999999999E-002    -11.175566448358975     
   8.0700000000000008E-002    -14.087486707567841     
   8.1000000000000003E-002    -16.657288094777375     
   8.1299999999999997E-002    -18.808615266619395     
   8.1600000000000006E-002    -20.486982381448513     
   8.1900000000000014E-002    -21.645183247096622     
   8.2199999999999995E-002    -22.264856615034656     
   8.2500000000000004E-002    -22.339266413038580     
   8.2799999999999999E-002    -21.890150162022124     
   8.3100000000000007E-002    -20.951165488602182     
   8.3400000000000002E-002    -19.580239064567166     
   8.3700000000000011E-002    -17.842774335434996     
   8.4000000000000005E-002    -15.820506792787825     
   8.4300000000000000E-002    -13.596234246480918     
   8.4599999999999995E-002    -11.260061797559338     
   8.4900000000000003E-002    -8.8962330176041071     
   8.5199999999999998E-002    -6.5877294938863358     
   8.5500000000000007E-002    -4.4056453347889679     
   8.5800000000000001E-002    -2.4121520454521814     
   8.6100000000000010E-002   -0.65346189377723740     
   8.6399999999999991E-002    0.83799129149847151     
   8.6699999999999999E-002     2.0480276170580427     
   8.7000000000000008E-002     2.9773098080392373     
   8.7300000000000003E-002     3.6438615309873463     
   8.7599999999999997E-002     4.0779074702271654     
   8.7900000000000006E-002     4.3233435960072137     
   8.8200000000000014E-002     4.4293133172731478     
   8.8499999999999995E-002     4.4513919729374223     
   8.8800000000000004E-002     4.4427476521781220     
   8.9100000000000013E-002     4.4550444238324101     
   8.9399999999999993E-002     4.5288812393197793     
   8.9700000000000002E-002     4.6964409982628075     
   9.0000000000000011E-002     4.9742052524826459     
   9.0299999999999991E-002     5.3670007209464110     
   9.0600000000000000E-002     5.8618434619615529     
   9.0900000000000009E-002     6.4352519848195673     
   9.1200000000000017E-002     7.0494361098099878     
   9.1499999999999998E-002     7.6606079847123425     
   9.1800000000000007E-002     8.2164717636652025     
   9.2100000000000001E-002     8.6666623903174269     
   9.2399999999999996E-002     8.9603737802417349     
   9.2700000000000005E-002     9.0560877087045721     
   9.3000000000000013E-002     8.9194354822584128     
   9.3300000000000008E-002     8.5321380286269637     
   9.3600000000000003E-002     7.8881322993698682     
   9.3899999999999997E-002     6.9994269540529377     
   9.4200000000000006E-002     5.8921624463134794     
   9.4500000000000001E-002     4.6089647806184422     
   9.4800000000000009E-002     3.2024499402373672     
   9.5100000000000004E-002     1.7355265388361496     
   9.5399999999999999E-002    0.27428106000678854     
   9.5699999999999993E-002    -1.1140285107887131     
   9.6000000000000002E-002    -2.3680523995634797     
   9.6300000000000011E-002    -3.4339608416293572     
   9.6600000000000005E-002    -4.2715051971130773     
   9.6900000000000000E-002    -4.8542265035726491     
   9.7200000000000009E-002    -5.1734319220099261     
   9.7499999999999989E-002    -5.2354662135948784     
   9.7799999999999998E-002    -5.0641561944715185     
   9.8100000000000007E-002    -4.6945371340554738     
   9.8400000000000015E-002    -4.1744545955738612     
   9.8699999999999996E-002    -3.5560654452187688     
   9.9000000000000005E-002    -2.8963591640099633     
   9.9300000000000013E-002    -2.2488824231612488     
   9.9599999999999994E-002    -1.6644632089297133     
   9.9900000000000003E-002    -1.1828314152544410     
  0.10020000000000001        -0.83665774399270365     
  0.10049999999999999        -0.64283731571538083     
  0.10080000000000000        -0.60901027048834189     
  0.10110000000000001        -0.72817602004276283     
  0.10140000000000000        -0.98449739677063053     
  0.10170000000000000         -1.3505606356003270     
  0.10200000000000001         -1.7935222959285197     
  0.10230000000000002         -2.2744427619091354     
  0.10260000000000000         -2.7527803680062561     
  0.10290000000000001         -3.1877852834360563     
  0.10320000000000000         -3.5403496882201058     
  0.10350000000000001         -3.7762967577894946     
  0.10380000000000000         -3.8667461423366269     
  0.10410000000000001         -3.7914365200794666     
  0.10440000000000001         -3.5378339062445625     
  0.10470000000000000         -3.1053062589415861     
  0.10500000000000000         -2.5026365683648772     
  0.10530000000000000         -1.7515827513037214     
  0.10560000000000000        -0.88283152080184091     
  0.10590000000000001          6.0945466653810842E-002
  0.10620000000000000          1.0309126065764525     
  0.10650000000000001          1.9720902070191684     
  0.10679999999999999          2.8295761073275965     
  0.10710000000000000          3.5490794326821824     
  0.10740000000000001          4.0855676225118689     
  0.10770000000000000          4.4024632927934988     
  0.10800000000000000          4.4807035982079508     
  0.10830000000000001          4.3141121671779157     
  0.10859999999999999          3.9185010349763258     
  0.10890000000000000          3.3221091880782638     
  0.10920000000000001          2.5725365523794124     
  0.10950000000000001          1.7235984833318394     
  0.10979999999999999         0.84190985643513749     
  0.11009999999999999         -1.1446101583581059E-002
  0.11040000000000001        -0.77217483395119668     
  0.11070000000000001         -1.3928936710900908     
  0.11100000000000000         -1.8302905454563692     
  0.11130000000000000         -2.0652183310431589     
  0.11160000000000002         -2.0870409295548304     
  0.11190000000000001         -1.9102250895358939     
  0.11220000000000001         -1.5557801327361633     
  0.11250000000000000         -1.0646998054705550     
  0.11280000000000000        -0.47955388864703308     
  0.11309999999999999         0.14667185688611134     
  0.11340000000000001         0.76560595466854631     
  0.11369999999999998          1.3277921777166637     
  0.11400000000000000          1.7941861609260594     
  0.11430000000000000          2.1328918536598813     
  0.11460000000000002          2.3240969988606386     
  0.11489999999999999          2.3597540792925531     
  0.11520000000000001          2.2426794798087144     
  0.11550000000000001          1.9884422809603151     
  0.11580000000000000          1.6191997867312327     
  0.11609999999999999          1.1670138211050440     
  0.11640000000000002         0.66523388741583311     
  0.11670000000000001         0.15195179630742722     
  0.11700000000000001        -0.33926385456596497     
  0.11730000000000000        -0.77468613024923094     
  0.11760000000000000         -1.1301222872062135     
  0.11789999999999999         -1.3849191001746544     
  0.11820000000000001         -1.5306371475831226     
  0.11850000000000001         -1.5631015818794300     
  0.11880000000000000         -1.4911036028663012     
  0.11910000000000000         -1.3263220725155991     
  0.11940000000000002         -1.0908847584698400     
  0.11970000000000001        -0.80629252753796876     
  0.12000000000000001        -0.50225511532953526     
  0.12030000000000000        -0.20284184845557884     
  0.12060000000000000          6.2986170596120258E-002
  0.12089999999999999         0.27677745581127439     
  0.12119999999999999         0.41711064872259973     
  0.12150000000000001         0.47649630513852159     
  0.12180000000000001         0.44579910718394000     
  0.12210000000000000         0.33190961733288021     
  0.12239999999999999         0.13862097676407012     
  0.12270000000000002        -0.11426044373825182     
  0.12300000000000001        -0.41193574649071313     
  0.12330000000000001        -0.72627114638680568     
  0.12360000000000000         -1.0379026602898027     
  0.12390000000000000         -1.3171860521049874     
  0.12419999999999999         -1.5466437214418929     
  0.12450000000000001         -1.7022643039959466     
  0.12480000000000001         -1.7752851842666137     
  0.12509999999999999         -1.7528719101740688     
  0.12540000000000001         -1.6378186088994080     
  0.12570000000000003         -1.4302572972718961     
  0.12600000000000000         -1.1452033243715920     
  0.12630000000000002        -0.79400033735805997     
  0.12659999999999999        -0.40063398965810371     
  0.12690000000000001          1.6525577624376023E-002
  0.12719999999999998         0.42987798836276825     
  0.12750000000000000         0.82014924996143712     
  0.12780000000000002          1.1615823434472594     
  0.12809999999999999          1.4397223915932180     
  0.12840000000000001          1.6366492859918018     
  0.12869999999999998          1.7472284847914725     
  0.12900000000000000          1.7644465574238453     
  0.12930000000000003          1.6944340133329454     
  0.12959999999999999          1.5428924914716495     
  0.12990000000000002          1.3260560456732995     
  0.13019999999999998          1.0588960804019945     
  0.13050000000000000         0.76395151609205281     
  0.13080000000000003         0.46112502181004267     
  0.13109999999999999         0.17253921563401142     
  0.13140000000000002         -8.3262312680994405E-002
  0.13169999999999998        -0.28968065060648440     
  0.13200000000000001        -0.43517874439349824     
  0.13229999999999997        -0.51351407342228250     
  0.13260000000000000        -0.52248628765280558     
  0.13290000000000002        -0.46597972559601153     
  0.13319999999999999        -0.35145018398592781     
  0.13350000000000001        -0.19182430204525561     
  0.13380000000000003         -5.4994748617341604E-004
  0.13410000000000000         0.20495288672601020     
  0.13440000000000002         0.40846671149056724     
  0.13469999999999999         0.59259982931920119     
  0.13500000000000001         0.74376577076406447     
  0.13529999999999998         0.84824737383155202     
  0.13560000000000000         0.89868060444344700     
  0.13590000000000002         0.88830641690744105     
  0.13619999999999999         0.81880594171252907     
  0.13650000000000001         0.69137970270396520     
  0.13680000000000003         0.51672741226973928     
  0.13710000000000000         0.30287049744397648     
  0.13740000000000002          6.7713518887073915E-002
  0.13769999999999999        -0.17754803073724296     
  0.13800000000000001        -0.41214041847138372     
  0.13829999999999998        -0.62652183383136750     
  0.13860000000000000        -0.80181048495994278     
  0.13890000000000002        -0.93446661814736931     
  0.13919999999999999         -1.0113159383944701     
  0.13950000000000001         -1.0369856343292370     
  0.13979999999999998         -1.0054287106451025     
  0.14010000000000000        -0.92879181504553121     
  0.14040000000000002        -0.80741729731469547     
  0.14069999999999999        -0.65832621251545798     
  0.14100000000000001        -0.48547093160372268     
  0.14130000000000004        -0.30744721293449595     
  0.14160000000000000        -0.12905960963533331     
  0.14189999999999997          3.3144141821540025E-002
  0.14219999999999999         0.17554145782641209     
  0.14250000000000002         0.28614239489910287     
  0.14279999999999998         0.36404408335154748     
  0.14310000000000000         0.40327625903958231     
  0.14339999999999997         0.40675029081507841     
  0.14369999999999999         0.37457669305433933     
  0.14400000000000002         0.31332295076279681     
  0.14429999999999998         0.22798559323293421     
  0.14460000000000001         0.12793551728293576     
  0.14490000000000003          2.1131399434215555E-002
  0.14520000000000000         -8.2719949759276740E-002
  0.14550000000000002        -0.17635606062373552     
  0.14579999999999999        -0.25196342140299222     
  0.14610000000000001        -0.30477611151922157     
  0.14640000000000003        -0.33141934018704011     
  0.14670000000000000        -0.33172844333197221     
  0.14699999999999996        -0.30604162412144237     
  0.14729999999999999        -0.25859005026613180     
  0.14760000000000001        -0.19326565821665853     
  0.14789999999999998        -0.11609387626765266     
  0.14820000000000000         -3.2449704508729117E-002