  -1.4999999999999999E-002     0.0000000000000000     
  -1.4700000000000000E-002     0.0000000000000000     
  -1.4400000000000000E-002     0.0000000000000000     
  -1.4100000000000000E-002     0.0000000000000000     
  -1.3800000000000000E-002     0.0000000000000000     
  -1.3500000000000000E-002     0.0000000000000000     
  -1.3200000000000000E-002     0.0000000000000000     
  -1.2899999999999998E-002     0.0000000000000000     
  -1.2600000000000000E-002     0.0000000000000000     
  -1.2299999999999998E-002     0.0000000000000000     
  -1.2000000000000000E-002     0.0000000000000000     
  -1.1699999999999999E-002     0.0000000000000000     
  -1.1399999999999999E-002     0.0000000000000000     
  -1.1099999999999999E-002     0.0000000000000000     
  -1.0799999999999999E-002     0.0000000000000000     
  -1.0499999999999999E-002     0.0000000000000000     
  -1.0199999999999999E-002     0.0000000000000000     
  -9.8999999999999991E-003     0.0000000000000000     
  -9.5999999999999992E-003     0.0000000000000000     
  -9.2999999999999992E-003     0.0000000000000000     
  -8.9999999999999993E-003     0.0000000000000000     
  -8.6999999999999994E-003     0.0000000000000000     
  -8.3999999999999995E-003     0.0000000000000000     
  -8.0999999999999996E-003     0.0000000000000000     
  -7.7999999999999988E-003     0.0000000000000000     
  -7.4999999999999997E-003     0.0000000000000000     
  -7.1999999999999998E-003     0.0000000000000000     
  -6.8999999999999981E-003     0.0000000000000000     
  -6.5999999999999982E-003     0.0000000000000000     
  -6.3000000000000000E-003     0.0000000000000000     
  -6.0000000000000001E-003     0.0000000000000000     
  -5.6999999999999985E-003     0.0000000000000000     
  -5.3999999999999986E-003     0.0000000000000000     
  -5.1000000000000004E-003     0.0000000000000000     
  -4.7999999999999987E-003     0.0000000000000000     
  -4.5000000000000005E-003     0.0000000000000000     
  -4.1999999999999989E-003     0.0000000000000000     
  -3.8999999999999990E-003     0.0000000000000000     
  -3.5999999999999990E-003     0.0000000000000000     
  -3.2999999999999991E-003     0.0000000000000000     
  -2.9999999999999992E-003     0.0000000000000000     
  -2.6999999999999993E-003     0.0000000000000000     
  -2.3999999999999994E-003     0.0000000000000000     
  -2.0999999999999977E-003     0.0000000000000000     
  -1.7999999999999995E-003     0.0000000000000000     
  -1.4999999999999979E-003     0.0000000000000000     
  -1.1999999999999997E-003     0.0000000000000000     
  -8.9999999999999976E-004     0.0000000000000000     
  -5.9999999999999810E-004     0.0000000000000000     
  -2.9999999999999992E-004     0.0000000000000000     
   0.0000000000000000          0.0000000000000000     
   3.0000000000000165E-004     0.0000000000000000     
   5.9999999999999984E-004     0.0000000000000000     
   9.0000000000000149E-004     0.0000000000000000     
   1.2000000000000031E-003     0.0000000000000000     
   1.5000000000000013E-003     0.0000000000000000     
   1.8000000000000030E-003     0.0000000000000000     
   2.1000000000000012E-003     0.0000000000000000     
   2.3999999999999994E-003     0.0000000000000000     
   2.7000000000000010E-003     0.0000000000000000     
   2.9999999999999992E-003     0.0000000000000000     
   3.3000000000000008E-003     0.0000000000000000     
   3.6000000000000025E-003     0.0000000000000000     
   3.9000000000000007E-003     0.0000000000000000     
   4.2000000000000023E-003     0.0000000000000000     
   4.5000000000000005E-003     0.0000000000000000     
   4.7999999999999987E-003     0.0000000000000000     
   5.1000000000000004E-003     0.0000000000000000     
   5.4000000000000020E-003     0.0000000000000000     
   5.7000000000000037E-003     0.0000000000000000     
   5.9999999999999984E-003     0.0000000000000000     
   6.3000000000000000E-003     0.0000000000000000     
   6.6000000000000017E-003     0.0000000000000000     
   6.9000000000000034E-003     0.0000000000000000     
   7.2000000000000015E-003     0.0000000000000000     
   7.5000000000000032E-003     0.0000000000000000     
   7.8000000000000014E-003     0.0000000000000000     
   8.0999999999999996E-003     0.0000000000000000     
   8.4000000000000012E-003     0.0000000000000000     
   8.7000000000000029E-003     0.0000000000000000     
   9.0000000000000011E-003     0.0000000000000000     
   9.2999999999999992E-003     0.0000000000000000     
   9.6000000000000009E-003     0.0000000000000000     
   9.8999999999999991E-003     0.0000000000000000     
   1.0200000000000001E-002     0.0000000000000000     
   1.0500000000000002E-002     0.0000000000000000     
   1.0800000000000004E-002     0.0000000000000000     
   1.1099999999999999E-002     0.0000000000000000     
   1.1400000000000000E-002     0.0000000000000000     
   1.1700000000000002E-002     0.0000000000000000     
   1.2000000000000004E-002     0.0000000000000000     
   1.2300000000000002E-002     0.0000000000000000     
   1.2600000000000000E-002     0.0000000000000000     
   1.2900000000000002E-002     0.0000000000000000     
   1.3200000000000000E-002     0.0000000000000000     
   1.3500000000000002E-002     0.0000000000000000     
   1.3800000000000003E-002     0.0000000000000000     
   1.4100000000000001E-002     0.0000000000000000     
   1.4400000000000000E-002     0.0000000000000000     
   1.4700000000000001E-002     0.0000000000000000     
   1.4999999999999999E-002     0.0000000000000000     
   1.5300000000000001E-002     0.0000000000000000     
   1.5600000000000003E-002     0.0000000000000000     
   1.5899999999999997E-002     0.0000000000000000     
   1.6199999999999999E-002     0.0000000000000000     
   1.6500000000000001E-002     0.0000000000000000     
   1.6800000000000002E-002     0.0000000000000000     
   1.7100000000000004E-002     0.0000000000000000     
   1.7400000000000006E-002     0.0000000000000000     
   1.7700000000000000E-002     0.0000000000000000     
   1.8000000000000002E-002     0.0000000000000000     
   1.8300000000000004E-002     0.0000000000000000     
   1.8600000000000005E-002     0.0000000000000000     
   1.8900000000000000E-002     0.0000000000000000     
   1.9200000000000002E-002     0.0000000000000000     
   1.9500000000000003E-002     0.0000000000000000     
   1.9799999999999998E-002     0.0000000000000000     
   2.0100000000000000E-002     0.0000000000000000     
   2.0400000000000001E-002     0.0000000000000000     
   2.0700000000000003E-002     0.0000000000000000     
   2.0999999999999998E-002     0.0000000000000000     
   2.1299999999999999E-002     0.0000000000000000     
   2.1600000000000001E-002     0.0000000000000000     
   2.1900000000000003E-002     0.0000000000000000     
   2.2200000000000004E-002     0.0000000000000000     
   2.2500000000000006E-002     0.0000000000000000     
   2.2800000000000001E-002     0.0000000000000000     
   2.3100000000000002E-002     0.0000000000000000     
   2.3400000000000004E-002     0.0000000000000000     
   2.3699999999999999E-002     0.0000000000000000     
   2.4000000000000000E-002     0.0000000000000000     
   2.4300000000000002E-002     0.0000000000000000     
   2.4599999999999997E-002     0.0000000000000000     
   2.4900000000000005E-002     0.0000000000000000     
   2.5200000000000000E-002     0.0000000000000000     
   2.5499999999999995E-002     0.0000000000000000     
   2.5800000000000003E-002     0.0000000000000000     
   2.6099999999999998E-002     0.0000000000000000     
   2.6400000000000007E-002     0.0000000000000000     
   2.6700000000000002E-002     0.0000000000000000     
   2.6999999999999996E-002     0.0000000000000000     
   2.7300000000000005E-002     0.0000000000000000     
   2.7600000000000000E-002     0.0000000000000000     
   2.7900000000000008E-002     0.0000000000000000     
   2.8200000000000003E-002     0.0000000000000000     
   2.8499999999999998E-002     0.0000000000000000     
   2.8800000000000006E-002     0.0000000000000000     
   2.9100000000000001E-002     0.0000000000000000     
   2.9400000000000003E-002     0.0000000000000000     
   2.9700000000000004E-002     0.0000000000000000     
   3.0000000000000006E-002     0.0000000000000000     
   3.0300000000000001E-002    -2.6585802650673429E-044
   3.0600000000000002E-002     2.1060449199567853E-042
   3.0900000000000004E-002     1.0627427595420553E-041
   3.1199999999999999E-002     1.8005986243385049E-041
   3.1500000000000007E-002     1.5078357452035513E-039
   3.1800000000000002E-002     3.5927748154668688E-037
   3.2099999999999997E-002     6.0347808718442625E-037
   3.2400000000000005E-002     3.3547218828672884E-036
   3.2700000000000000E-002    -1.0331951871382053E-034
   3.3000000000000002E-002     5.6093305633823119E-034
   3.3300000000000003E-002    -3.5321953352590232E-033
   3.3599999999999998E-002     1.4263597608695571E-032
   3.3900000000000000E-002    -5.1861834810518956E-032
   3.4200000000000001E-002     1.7584872248454903E-031
   3.4500000000000003E-002    -5.5214620943450407E-031
   3.4799999999999998E-002     1.5775820868358632E-030
   3.5099999999999999E-002    -3.9153964260426670E-030
   3.5400000000000001E-002     7.3329653422080886E-030
   3.5699999999999996E-002    -3.1277754346624146E-030
   3.6000000000000004E-002    -6.0014426608966359E-029
   3.6299999999999999E-002     4.0371110862635639E-028
   3.6600000000000008E-002    -1.8345916441963227E-027
   3.6900000000000002E-002     6.9191212368692316E-027
   3.7199999999999997E-002    -2.2806649098943989E-026
   3.7500000000000006E-002     6.6410435918945610E-026
   3.7800000000000000E-002    -1.6810844589017566E-025
   3.8100000000000009E-002     3.4706167954114205E-025
   3.8400000000000004E-002    -4.4612245419186991E-025
   3.8699999999999998E-002    -5.4073081759477107E-025
   3.9000000000000007E-002     6.6118100112095093E-024
   3.9300000000000002E-002    -3.0132889464076217E-023
   3.9600000000000003E-002     1.0073433442039654E-022
   3.9900000000000005E-002    -2.6286689007759772E-022
   4.0200000000000000E-002     4.8525022194072086E-022
   4.0500000000000001E-002    -2.4597997957903031E-022
   4.0800000000000003E-002    -2.6296622955021831E-021
   4.1100000000000005E-002     1.3745379507843442E-020
   4.1399999999999999E-002    -4.0409271381782134E-020
   4.1700000000000008E-002     7.0417145316964216E-020
   4.2000000000000003E-002    -2.5085123042426359E-022
   4.2299999999999997E-002    -4.8229243528501586E-019
   4.2600000000000006E-002     1.8052820870267201E-018
   4.2900000000000001E-002    -3.3345304527198111E-018
   4.3200000000000002E-002    -2.4116026553515304E-020
   4.3500000000000004E-002     2.0915676352220065E-017
   4.3799999999999999E-002    -6.6332091287568197E-017
   4.4100000000000000E-002     7.6807816336219387E-017
   4.4400000000000002E-002     1.6535128589828743E-016
   4.4700000000000004E-002    -9.0431498901707693E-016
   4.4999999999999998E-002     1.4814915056233177E-015
   4.5300000000000000E-002     1.2326931382725932E-015
   4.5600000000000002E-002    -1.1048928049393839E-014
   4.5899999999999996E-002     1.8978974271758221E-014
   4.6200000000000005E-002     1.6131850716121320E-014
   4.6500000000000000E-002    -1.3100022358853203E-013
   4.6799999999999994E-002     1.7635542165837536E-013
   4.7100000000000003E-002     3.2050333900174792E-013
   4.7399999999999998E-002    -1.4125839512872640E-012
   4.7700000000000006E-002     7.7651431328337362E-013
   4.8000000000000001E-002     5.4076659556408506E-012
   4.8300000000000010E-002    -1.1151130888282332E-011
   4.8600000000000004E-002    -9.7908421887710013E-012
   4.8899999999999999E-002     6.0550193003281078E-011
   4.9200000000000008E-002    -2.2844763973459609E-011
   4.9500000000000002E-002    -2.3302828301156687E-010
   4.9800000000000011E-002     2.9194340731463069E-010
   5.0100000000000006E-002     7.2475785094915648E-010
   5.0400000000000000E-002    -1.5990437757998262E-009
   5.0700000000000009E-002    -1.9818623245523269E-009
   5.1000000000000004E-002     6.7642961399785112E-009
   5.1299999999999998E-002     5.4818054152872307E-009
   5.1600000000000007E-002    -2.4901527666923599E-008
   5.1900000000000002E-002    -1.9555233479646932E-008
   5.2200000000000010E-002     7.8670193732563844E-008
   5.2500000000000005E-002     8.1066324672708607E-008
   5.2800000000000000E-002    -2.1968121003809143E-007
   5.3099999999999994E-002    -3.7721471097227673E-007
   5.3400000000000003E-002     5.2303975480538276E-007
   5.3699999999999998E-002     2.7028764506684580E-006
   5.4000000000000006E-002     5.7610786447285041E-006
   5.4300000000000001E-002     1.0192980235292824E-005
   5.4599999999999996E-002     1.7125566764457485E-005
   5.4900000000000004E-002     2.6534587455760151E-005
   5.5199999999999999E-002     3.8805574927893019E-005
   5.5499999999999994E-002     5.8198964043293315E-005
   5.5800000000000002E-002     9.0677849842019564E-005
   5.6099999999999997E-002     1.3895324019083086E-004
   5.6400000000000006E-002     2.0588792030404020E-004
   5.6700000000000000E-002     3.0238591837310376E-004
   5.6999999999999995E-002     4.4494742050094072E-004
   5.7300000000000004E-002     6.4700366357277848E-004
   5.7599999999999998E-002     9.2108117311365213E-004
   5.7900000000000007E-002     1.2878679271011160E-003
   5.8200000000000002E-002     1.7751820199424968E-003
   5.8499999999999996E-002     2.4107730785652439E-003
   5.8800000000000005E-002     3.2222339007141011E-003
   5.9100000000000000E-002     4.2387014838156335E-003
   5.9400000000000008E-002     5.4853848164749747E-003
   5.9700000000000003E-002     6.9780919927284919E-003
   6.0000000000000012E-002     8.7195547844558761E-003
   6.0300000000000006E-002     1.0690450227913288E-002
   6.0600000000000001E-002     1.2840962267982601E-002
   6.0900000000000010E-002     1.5092184297421304E-002
   6.1200000000000004E-002     1.7332570726931919E-002
   6.1500000000000013E-002     1.9403063934258079E-002
   6.1800000000000008E-002     2.1093996638430215E-002
   6.2100000000000002E-002     2.2163258530982811E-002
   6.2399999999999997E-002     2.2352486015613994E-002
   6.2700000000000006E-002     2.1390114349260442E-002
   6.3000000000000000E-002     1.9015596218075817E-002
   6.3300000000000009E-002     1.5022139267675549E-002
   6.3600000000000004E-002     9.2926792056384818E-003
   6.3899999999999998E-002     1.8262307651304350E-003
   6.4199999999999993E-002    -7.2288455491565113E-003
   6.4500000000000002E-002    -1.7544644065715660E-002
   6.4800000000000010E-002    -2.8605702927184146E-002
   6.5100000000000005E-002    -3.9708058594978612E-002
   6.5400000000000000E-002    -4.9987270043137522E-002
   6.5700000000000008E-002    -5.8477123783872806E-002
   6.5999999999999989E-002    -6.4191549767883396E-002
   6.6299999999999998E-002    -6.6212455440076048E-002
   6.6600000000000006E-002    -6.3789556073918674E-002
   6.6900000000000001E-002    -5.6444918626009796E-002
   6.7199999999999996E-002    -4.4078885933162337E-002
   6.7500000000000004E-002    -2.7047126114869036E-002
   6.7800000000000013E-002    -6.2044111611930068E-003
   6.8099999999999994E-002     1.7078332395092655E-002
   6.8400000000000002E-002     4.0975061915776392E-002
   6.8700000000000011E-002     6.3319970985401139E-002
   6.8999999999999992E-002     8.1723399537583341E-002
   6.9300000000000000E-002     9.3742407148339452E-002
   6.9600000000000009E-002     9.7136174965942512E-002
   6.9900000000000004E-002     9.0020967704309146E-002
   7.0199999999999999E-002     7.1103831401904793E-002
   7.0500000000000007E-002     3.9857358980964736E-002
   7.0800000000000016E-002    -3.3750170549887333E-003
   7.1099999999999997E-002    -5.7320727964407125E-002
   7.1400000000000005E-002   -0.11972454676227501     
   7.1700000000000000E-002   -0.18747327077040693     
   7.1999999999999995E-002   -0.25667247883290323     
   7.2300000000000003E-002   -0.32291278403180118     
   7.2600000000000012E-002   -0.38148387042685089     
   7.2900000000000006E-002   -0.42770482188217207     
   7.3200000000000001E-002   -0.45720283657820060     
   7.3499999999999996E-002   -0.46626422901866105     
   7.3800000000000004E-002   -0.45214667221906857     
   7.4099999999999999E-002   -0.41331105770742238     
   7.4400000000000008E-002   -0.34966765822001278     
   7.4700000000000003E-002   -0.26271315647777799     
   7.5000000000000011E-002   -0.15553053243116688     
   7.5299999999999992E-002    -3.2652847240495053E-002
   7.5600000000000001E-002     9.9964112588523474E-002
   7.5900000000000009E-002    0.23545553628165528     
   7.6200000000000004E-002    0.36630615833788061     
   7.6499999999999999E-002    0.48489022830387463     
   7.6800000000000007E-002    0.58403743705047984     
   7.7099999999999988E-002    0.65747510913476970     
   7.7399999999999997E-002    0.70036882292110059     
   7.7700000000000005E-002    0.70976742805316440     
   7.8000000000000014E-002    0.68482628978166871     
   7.8299999999999995E-002    0.62694598113990052     
   7.8600000000000003E-002    0.53983685657131597     
   7.8900000000000012E-002    0.42912512893704013     
   7.9199999999999993E-002    0.30209887772121607     
   7.9500000000000001E-002    0.16718369132667554     
   7.9800000000000010E-002     3.3191960806739917E-002
   8.0100000000000018E-002    -9.1174153849710615E-002
   8.0399999999999999E-002   -0.19810954292937535     
   8.0700000000000008E-002   -0.28124578918986720     
   8.1000000000000003E-002   -0.33614673351933144     
   8.1299999999999997E-002   -0.36063112237881589     
   8.1600000000000006E-002   -0.35484923373492550     
   8.1900000000000014E-002   -0.32129263782042805     
   8.2199999999999995E-002   -0.26450241756594811     
   8.2500000000000004E-002   -0.19065838575888386     
   8.2799999999999999E-002   -0.10700703492273331     
   8.3100000000000007E-002    -2.1340461428584943E-002
   8.3400000000000002E-002     5.8775486697827312E-002
   8.3700000000000011E-002    0.12644086697106061     
   8.4000000000000005E-002    0.17605920787327031     
   8.4300000000000000E-002    0.20371902760099453     
   8.4599999999999995E-002    0.20739340096043876     
   8.4900000000000003E-002    0.18712321804772267     
   8.5199999999999998E-002    0.14488833498688006     
   8.5500000000000007E-002     8.4480823083155590E-002
   8.5800000000000001E-002     1.1182759679693217E-002
   8.6100000000000010E-002    -6.8669942112364768E-002
   8.6399999999999991E-002   -0.14814679106016546     
   8.6699999999999999E-002   -0.22018261793745536     
   8.7000000000000008E-002   -0.27808752072808607     
   8.7300000000000003E-002   -0.31605028179386357     
   8.7599999999999997E-002   -0.32952281766600217     
   8.7900000000000006E-002   -0.31560182285301269     
   8.8200000000000014E-002   -0.27325447419325249     
   8.8499999999999995E-002   -0.20341860742613066     
   8.8800000000000004E-002   -0.10909110497110550     
   8.9100000000000013E-002     4.9470254316055159E-003
   8.9399999999999993E-002    0.13231532883685285     
   8.9700000000000002E-002    0.26551863316801916     
   9.0000000000000011E-002    0.39640129470937591     
   9.0299999999999991E-002    0.51686012031103745     
   9.0600000000000000E-002    0.61941262186705759     
   9.0900000000000009E-002    0.69778319741285255     
   9.1200000000000017E-002    0.74740437605652099     
   9.1499999999999998E-002    0.76576491614815900     
   9.1800000000000007E-002    0.75263738839989969     
   9.2100000000000001E-002    0.70994315214878601     
   9.2399999999999996E-002    0.64159228910896249     
   9.2700000000000005E-002    0.55294109449193729     
   9.3000000000000013E-002    0.45030584768651671     
   9.3300000000000008E-002    0.34029479965805232     
   9.3600000000000003E-002    0.22905616613575419     
   9.3899999999999997E-002    0.12186970566688385     
   9.4200000000000006E-002     2.2524537286111465E-002
   9.4500000000000001E-002    -6.6848206221692644E-002
   9.4800000000000009E-002   -0.14577961045447607     
   9.5100000000000004E-002   -0.21534934609079032     
   9.5399999999999999E-002   -0.27782909463800687     
   9.5699999999999993E-002   -0.33616942537095529     
   9.6000000000000002E-002   -0.39345944554222534     
   9.6300000000000011E-002   -0.45246326251604385     
   9.6600000000000005E-002   -0.51499720575270802     
   9.6900000000000000E-002   -0.58170163891744253     
   9.7200000000000009E-002   -0.65193885779660776     
   9.7499999999999989E-002   -0.72368691978394206     
   9.7799999999999998E-002   -0.79380532716199270     
   9.8100000000000007E-002   -0.85834125220425272     
   9.8400000000000015E-002   -0.91307050902537523     
   9.8699999999999996E-002   -0.95381472148461843     
   9.9000000000000005E-002   -0.97706261232203162     
   9.9300000000000013E-002   -0.98018076548568711     
   9.9599999999999994E-002   -0.96193895257761586     
   9.9900000000000003E-002   -0.92235147956802965     
  0.10020000000000001        -0.86274161090317336     
  0.10049999999999999        -0.78577182230791465     
  0.10080000000000000        -0.69494591853311660     
  0.10110000000000001        -0.59427640187319719     
  0.10140000000000000        -0.48802658706539614     
  0.10170000000000000        -0.38020023432566580     
  0.10200000000000001        -0.27425352736972358     
  0.10230000000000002        -0.17283109881108874     
  0.10260000000000000         -7.7687094490483943E-002
  0.10290000000000001          1.0433988626956303E-002
  0.10320000000000000          9.1623921181640866E-002
  0.10350000000000001         0.16678633533879830     
  0.10380000000000000         0.23713730675807754     
  0.10410000000000001         0.30415197413657225     
  0.10440000000000001         0.36920466479443931     
  0.10470000000000000         0.43313843628413035     
  0.10500000000000000         0.49611583259159620     
  0.10530000000000000         0.55755390893497159     
  0.10560000000000000         0.61583445885144017     
  0.10590000000000001         0.66854568879345566     
  0.10620000000000000         0.71251908747199511     
  0.10650000000000001         0.74426313213126361     
  0.10679999999999999         0.76012736077502274     
  0.10710000000000000         0.75691004192851019     
  0.10740000000000001         0.73206038835264997     
  0.10770000000000000         0.68441742479469458     
  0.10800000000000000         0.61420347018443344     
  0.10830000000000001         0.52343473098999471     
  0.10859999999999999         0.41602328831310698     
  0.10890000000000000         0.29751474670065547     
  0.10920000000000001         0.17485278472345006     
  0.10950000000000001          5.5956423369755010E-002
  0.10979999999999999         -5.0869857216441577E-002
  0.11009999999999999        -0.13776864714594478     
  0.11040000000000001        -0.19781167972761277     
  0.11070000000000001        -0.22567990293962820     
  0.11100000000000000        -0.21837843546194907     
  0.11130000000000000        -0.17518923355638200     
  0.11160000000000002         -9.8167790231753788E-002
  0.11190000000000001          8.1420132821578891E-003
  0.11220000000000001         0.13706058392700707     
  0.11250000000000000         0.28024074836796276     
  0.11280000000000000         0.42813147751874964     
  0.11309999999999999         0.57097332101702858     
  0.11340000000000001         0.69921854641854064     
  0.11369999999999998         0.80409585131603833     
  0.11400000000000000         0.87830966218783313     
  0.11430000000000000         0.91611806407669860     
  0.11460000000000002         0.91373912532090684     
  0.11489999999999999         0.86933442593298338     
  0.11520000000000001         0.78288763471791867     
  0.11550000000000001         0.65641945260333978     
  0.11580000000000000         0.49351616354764705     
  0.11609999999999999         0.29949143733116174     
  0.11640000000000002          8.1208524072099442E-002
  0.11670000000000001        -0.15299856386633887     
  0.11700000000000001        -0.39367761197860263     
  0.11730000000000000        -0.63025128642946626     
  0.11760000000000000        -0.85158736385376543     
  0.11789999999999999         -1.0463513394870465     
  0.11820000000000001         -1.2036507464760944     
  0.11850000000000001         -1.3138753388742359     
  0.11880000000000000         -1.3691939122532655     
  0.11910000000000000         -1.3645128220627665     
  0.11940000000000002         -1.2980740076502055     
  0.11970000000000001         -1.1715908335566716     
  0.12000000000000001        -0.99063343784439839     
  0.12030000000000000        -0.76447534346245560     
  0.12060000000000000        -0.50551423651767013     
  0.12089999999999999        -0.22845605839615918     
  0.12119999999999999          5.0509434704275227E-002
  0.12150000000000001         0.31473747564412868     
  0.12180000000000001         0.54855200621804256     
  0.12210000000000000         0.73818481224144061     
  0.12239999999999999         0.87244891820576387     
  0.12270000000000002         0.94373241996891100     
  0.12300000000000001         0.94846487756570208     
  0.12330000000000001         0.88690606277346873     
  0.12360000000000000         0.76327514351998471     
  0.12390000000000000         0.58546004991288136     
  0.12419999999999999         0.36430161729765032     
  0.12450000000000001         0.11306986434328337     
  0.12480000000000001        -0.15349463432605420     
  0.12509999999999999        -0.41980581543947515     
  0.12540000000000001        -0.67055372702901650     
  0.12570000000000003        -0.89136728081019179     
  0.12600000000000000         -1.0695680109007613     
  0.12630000000000002         -1.1949765694628347     
  0.12659999999999999         -1.2603375866034019     
  0.12690000000000001         -1.2619474889324263     
  0.12719999999999998         -1.1996844110622411     
  0.12750000000000000         -1.0769054682260093     
  0.12780000000000002        -0.90057171589865082     
  0.12809999999999999        -0.68049874352633810     
  0.12840000000000001        -0.42871161914738420     
  0.12869999999999998        -0.15887473756875489     
  0.12900000000000000         0.11467788025100645     
  0.12930000000000003         0.37821790502012159     
  0.12959999999999999         0.61891384887189405     
  0.12990000000000002         0.82607584456905758     
  0.13019999999999998         0.99165959594352326     
  0.13050000000000000          1.1104463976620558     
  0.13080000000000003          1.1804539511893206     
  0.13109999999999999          1.2027801632185460     
  0.13140000000000002          1.1812391113014569     
  0.13169999999999998          1.1218550740475597     
  0.13200000000000001          1.0322391947592355     
  0.13229999999999997         0.92101476574101926     
  0.13260000000000000         0.79692060272020149     
  0.13290000000000002         0.66835305616843099     
  0.13319999999999999         0.54269353833684553     
  0.13350000000000001         0.42595958127515893     
  0.13380000000000003         0.32249742762046785     
  0.13410000000000000         0.23522756049168486     
  0.13440000000000002         0.16514540300325017     
  0.13469999999999999         0.11197174412598779     
  0.13500000000000001          7.4275971730926302E-002
  0.13529999999999998          4.9456429773644034E-002
  0.13560000000000000          3.4484604315483114E-002
  0.13590000000000002          2.5953519399773826E-002
  0.13619999999999999          2.0134458722964148E-002
  0.13650000000000001          1.3365288565977126E-002
  0.13680000000000003          2.2138798489340496E-003
  0.13710000000000000         -1.6334441455951931E-002
  0.13740000000000002         -4.4844248017614566E-002
  0.13769999999999999         -8.5088840429705270E-002
  0.13800000000000001        -0.13795233480893004     
  0.13829999999999998        -0.20332411897989561     
  0.13860000000000000        -0.27991599216030150     
  0.13890000000000002        -0.36504119702618687     
  0.13919999999999999        -0.45512460830849244     
  0.13950000000000001        -0.54553961673842566     
  0.13979999999999998        -0.63095027814841498     
  0.14010000000000000        -0.70602503544020490     
  0.14040000000000002        -0.76559262814412055     
  0.14069999999999999        -0.80546420652659800     
  0.14100000000000001        -0.82283722514526225     
  0.14130000000000004        -0.81660385532206681     
  0.14160000000000000        -0.78772334531226984     
  0.14189999999999997        -0.73911551197642855     
  0.14219999999999999        -0.67532030194263593     
  0.14250000000000002        -0.60225765256264974     
  0.14279999999999998        -0.52659452875779900     
  0.14310000000000000        -0.45464669073887298     
  0.14339999999999997        -0.39201327977184014     
  0.14369999999999999        -0.34285699844815998     
  0.14400000000000002        -0.30904792928291180     
  0.14429999999999998        -0.29029997472554558     
  0.14460000000000001        -0.28381660659808761     
  0.14490000000000003        -0.28459107804881911     
  0.14520000000000000        -0.28604340267750400     
  0.14550000000000002        -0.28052428211612201     
  0.14579999999999999        -0.26005708385961290     
  0.14610000000000001        -0.21770489681791411     
  0.14640000000000003        -0.14762159578022313     
  0.14670000000000000         -4.6328253757073279E-002
  0.14699999999999996          8.6950271854290051E-002
  0.14729999999999999         0.25037189957807726     
  0.14760000000000001         0.43903484604117637     
  0.14789999999999998         0.64527064023400504     
  0.14820000000000000         0.85941789110749822     