  -1.4999999999999999E-002     0.0000000000000000     
  -1.4700000000000000E-002    -9.0901812880643782E-013
  -1.4400000000000000E-002    -1.8521476914364475E-010
  -1.4100000000000000E-002    -4.1229968694093258E-010
  -1.3800000000000000E-002     9.6971603766661206E-009
  -1.3500000000000000E-002     9.5721778928961498E-009
  -1.3200000000000000E-002    -6.5865733914521727E-008
  -1.2899999999999998E-002    -8.8750804002022307E-008
  -1.2600000000000000E-002     1.3130124474668895E-007
  -1.2299999999999998E-002     3.4417255812405216E-007
  -1.2000000000000000E-002     1.7899747947147160E-007
  -1.1699999999999999E-002    -6.2706401894704585E-007
  -1.1399999999999999E-002    -1.1520329102212424E-006
  -1.1099999999999999E-002    -4.1811454852166844E-007
  -1.0799999999999999E-002     1.5135839639668000E-006
  -1.0499999999999999E-002     3.4239120830320033E-006
  -1.0199999999999999E-002     2.0819210307133391E-006
  -9.8999999999999991E-003    -3.9812625105380439E-006
  -9.5999999999999992E-003    -8.2821673349536053E-006
  -9.2999999999999992E-003    -4.0620432665826997E-006
  -8.9999999999999993E-003     4.7843604346519694E-006
  -8.6999999999999994E-003     1.1932341773911154E-005
  -8.3999999999999995E-003     1.2556383075374769E-005
  -8.0999999999999996E-003     1.7158223507675406E-007
  -7.7999999999999988E-003    -1.6669482086225109E-005
  -7.4999999999999997E-003    -2.1762651230340534E-005
  -7.1999999999999998E-003    -4.7979904672946970E-006
  -6.8999999999999981E-003     2.6392476715791673E-005
  -6.5999999999999982E-003     4.5990369096344686E-005
  -6.3000000000000000E-003     6.3618203145990115E-005
  -6.0000000000000001E-003     8.5145968138646236E-005
  -5.6999999999999985E-003     1.0563162429521278E-004
  -5.3999999999999986E-003     1.4054317805026973E-004
  -5.1000000000000004E-003     1.7038417681040512E-004
  -4.7999999999999987E-003     2.0721323576204558E-004
  -4.5000000000000005E-003     2.8744247193516050E-004
  -4.1999999999999989E-003     4.1986659224575441E-004
  -3.8999999999999990E-003     6.5857856107221120E-004
  -3.5999999999999990E-003     9.7503694208537931E-004
  -3.2999999999999991E-003     1.3186605527994858E-003
  -2.9999999999999992E-003     1.6674226359330510E-003
  -2.6999999999999993E-003     1.9305441399448090E-003
  -2.3999999999999994E-003     2.0649743570571688E-003
  -2.0999999999999977E-003     1.8867592616767534E-003
  -1.7999999999999995E-003     1.1524300637377879E-003
  -1.4999999999999979E-003    -3.6688378639159136E-004
  -1.1999999999999997E-003    -3.1906537199426661E-003
  -8.9999999999999976E-004    -7.8950379143176205E-003
  -5.9999999999999810E-004    -1.5370063309492737E-002
  -2.9999999999999992E-004    -2.6919328668636819E-002
   0.0000000000000000         -4.3951593395310851E-002
   3.0000000000000165E-004    -6.8549777210068330E-002
   5.9999999999999984E-004   -0.10309016825328349     
   9.0000000000000149E-004   -0.15025631283947552     
   1.2000000000000031E-003   -0.21356575684050624     
   1.5000000000000013E-003   -0.29659463734734515     
   1.8000000000000030E-003   -0.40346787894347891     
   2.1000000000000012E-003   -0.53896675786365167     
   2.3999999999999994E-003   -0.70755789731913721     
   2.7000000000000010E-003   -0.91408357911116644     
   2.9999999999999992E-003    -1.1631766344418200     
   3.3000000000000008E-003    -1.4588100710994951     
   3.6000000000000025E-003    -1.8047877393470784     
   3.9000000000000007E-003    -2.2030162736109045     
   4.2000000000000023E-003    -2.6532046852284710     
   4.5000000000000005E-003    -3.1526603954564512     
   4.7999999999999987E-003    -3.6943932110983302     
   5.1000000000000004E-003    -4.2669244707390321     
   5.4000000000000020E-003    -4.8528744144964371     
   5.7000000000000037E-003    -5.4265172006911673     
   5.9999999999999984E-003    -5.9541599917336478     
   6.3000000000000000E-003    -6.3926676193420882     
   6.6000000000000017E-003    -6.6890825450855065     
   6.9000000000000034E-003    -6.7823634089305811     
   7.2000000000000015E-003    -6.6042700384366420     
   7.5000000000000032E-003    -6.0836120684975690     
   7.8000000000000014E-003    -5.1513363173589015     
   8.0999999999999996E-003    -3.7462047253110455     
   8.4000000000000012E-003    -1.8237044160734974     
   8.7000000000000029E-003    0.63578885036229704     
   9.0000000000000011E-003     3.6191918587247076     
   9.2999999999999992E-003     7.0725812408461843     
   9.6000000000000009E-003     10.896187042449645     
   9.8999999999999991E-003     14.943858665431405     
   1.0200000000000001E-002     19.023577586115266     
   1.0500000000000002E-002     22.905740017744350     
   1.0800000000000004E-002     26.335872251332912     
   1.1099999999999999E-002     29.049457430965060     
   1.1400000000000000E-002     30.794590090387263     
   1.1700000000000002E-002     31.352466800910108     
   1.2000000000000004E-002     30.558525318532347     
   1.2300000000000002E-002     28.323776373982692     
   1.2600000000000000E-002     24.647039314845117     
   1.2900000000000002E-002     19.623298201146994     
   1.3200000000000000E-002     13.445871415556370     
   1.3500000000000002E-002     6.3936967979468005     
   1.3800000000000003E-002    -1.1834526912693921     
   1.4100000000000001E-002    -8.8873183304894763     
   1.4400000000000000E-002    -16.303365037592275     
   1.4700000000000001E-002    -23.030408695402564     
   1.4999999999999999E-002    -28.708963645943008     
   1.5300000000000001E-002    -33.051657276017586     
   1.5600000000000003E-002    -35.861799963998060     
   1.5899999999999997E-002    -37.046328348907451     
   1.6199999999999999E-002    -36.620493593767414     
   1.6500000000000001E-002    -34.703737697888911     
   1.6800000000000002E-002    -31.501087306974306     
   1.7100000000000004E-002    -27.289067944600422     
   1.7400000000000006E-002    -22.387831922745047     
   1.7700000000000000E-002    -17.131293073360911     
   1.8000000000000002E-002    -11.845654771028686     
   1.8300000000000004E-002    -6.8233994167557439     
   1.8600000000000005E-002    -2.3016679232382486     
   1.8900000000000000E-002     1.5460861264062580     
   1.9200000000000002E-002     4.6179647698327697     
   1.9500000000000003E-002     6.8847052252904852     
   1.9799999999999998E-002     8.3797647759977316     
   2.0100000000000000E-002     9.1896393068553390     
   2.0400000000000001E-002     9.4399587317007967     
   2.0700000000000003E-002     9.2769995376914469     
   2.0999999999999998E-002     8.8523129851936844     
   2.1299999999999999E-002     8.3093517319906489     
   2.1600000000000001E-002     7.7694021815086725     
   2.1900000000000003E-002     7.3240919405302618     
   2.2200000000000004E-002     7.0329765470712191     
   2.2500000000000006E-002     6.9173067291385220     
   2.2800000000000001E-002     6.9682409741722573     
   2.3100000000000002E-002     7.1486494026293448     
   2.3400000000000004E-002     7.3999201420548903     
   2.3699999999999999E-002     7.6529590082922070     
   2.4000000000000000E-002     7.8335462930858393     
   2.4300000000000002E-002     7.8727094043023200     
   2.4599999999999997E-002     7.7130123484257691     
   2.4900000000000005E-002     7.3132811863663036     
   2.5200000000000000E-002     6.6542140238305949     
   2.5499999999999995E-002     5.7390266484623025     
   2.5800000000000003E-002     4.5943451693259769     
   2.6099999999999998E-002     3.2674405997230229     
   2.6400000000000007E-002     1.8232101205778790     
   2.6700000000000002E-002    0.33848865098624226     
   2.6999999999999996E-002    -1.1044661779654161     
   2.7300000000000005E-002    -2.4231804886824806     
   2.7600000000000000E-002    -3.5427970430101170     
   2.7900000000000008E-002    -4.4018747739993174     
   2.8200000000000003E-002    -4.9566405044792461     
   2.8499999999999998E-002    -5.1859000133055195     
   2.8800000000000006E-002    -5.0899446465855132     
   2.9100000000000001E-002    -4.6930969142541317     
   2.9400000000000003E-002    -4.0397584630915908     
   2.9700000000000004E-002    -3.1888325113883043     
   3.0000000000000006E-002    -2.2141372691081669     
   3.0300000000000001E-002    -1.1919873070938640     
   3.0600000000000002E-002   -0.19907234820154268     
   3.0900000000000004E-002    0.69203561105704181     
   3.1199999999999999E-002     1.4234291068484377     
   3.1500000000000007E-002     1.9483994332163528     
   3.1800000000000002E-002     2.2394869673467244     
   3.2099999999999997E-002     2.2875304743889244     
   3.2400000000000005E-002     2.0999148497291120     
   3.2700000000000000E-002     1.7026695614297085     
   3.3000000000000002E-002     1.1350378316266709     
   3.3300000000000003E-002    0.44583523924467755     
   3.3599999999999998E-002   -0.30637644101487366     
   3.3900000000000000E-002    -1.0637341809750955     
   3.4200000000000001E-002    -1.7683633880619201     
   3.4500000000000003E-002    -2.3675435129107121     
   3.4799999999999998E-002    -2.8199070232270556     
   3.5099999999999999E-002    -3.0938735879008163     
   3.5400000000000001E-002    -3.1727443682619945     
   3.5699999999999996E-002    -3.0554996477787761     
   3.6000000000000004E-002    -2.7537036806417228     
   3.6299999999999999E-002    -2.2931886437253421     
   3.6600000000000008E-002    -1.7105116166988323     
   3.6900000000000002E-002    -1.0485083132069664     
   3.7199999999999997E-002   -0.35472920473320896     
   3.7500000000000006E-002    0.32229739272711777     
   3.7800000000000000E-002    0.93990242013837433     
   3.8100000000000009E-002     1.4595607111524882     
   3.8400000000000004E-002     1.8527161857155066     
   3.8699999999999998E-002     2.1027108351096215     
   3.9000000000000007E-002     2.2021642920598534     
   3.9300000000000002E-002     2.1553534279652351     
   3.9600000000000003E-002     1.9777315821508636     
   3.9900000000000005E-002     1.6910451515987357     
   4.0200000000000000E-002     1.3248313383266017     
   4.0500000000000001E-002    0.91219766263727364     
   4.0800000000000003E-002    0.48663755505330231     
   4.1100000000000005E-002     8.1131123689021048E-002
   4.1399999999999999E-002   -0.27455197822357497     
   4.1700000000000008E-002   -0.55714542688295832     
   4.2000000000000003E-002   -0.74839505228392977     
   4.2299999999999997E-002   -0.83913038113152738     
   4.2600000000000006E-002   -0.82761137432525034     
   4.2900000000000001E-002   -0.71980684065689116     
   4.3200000000000002E-002   -0.52873473257941506     
   4.3500000000000004E-002   -0.27348826635872153     
   4.3799999999999999E-002     2.4622995728868089E-002
   4.4100000000000000E-002    0.34041894342984630     
   4.4400000000000002E-002    0.64950763400667888     
   4.4700000000000004E-002    0.92985916763684762     
   4.4999999999999998E-002     1.1608972742906976     
   4.5300000000000000E-002     1.3284333063385976     
   4.5600000000000002E-002     1.4218867233305312     
   4.5899999999999996E-002     1.4356676818940914     
   4.6200000000000005E-002     1.3696749734031426     
   4.6500000000000000E-002     1.2264539542010842     
   4.6799999999999994E-002     1.0129372405724932     
   4.7100000000000003E-002    0.73875718177257976     
   4.7399999999999998E-002    0.41409764806476468     
   4.7700000000000006E-002     5.2648508089994148E-002
   4.8000000000000001E-002   -0.33170203559331374     
   4.8300000000000010E-002   -0.72429388539045947     
   4.8600000000000004E-002    -1.1081631339696314     
   4.8899999999999999E-002    -1.4664377324509188     
   4.9200000000000008E-002    -1.7812001064721188     
   4.9500000000000002E-002    -2.0343492776826175     
   4.9800000000000011E-002    -2.2094608273524901     
   5.0100000000000006E-002    -2.2913120848586863     
   5.0400000000000000E-002    -2.2698527523249368     
   5.0700000000000009E-002    -2.1380516257215905     
   5.1000000000000004E-002    -1.8960004952990082     
   5.1299999999999998E-002    -1.5516879330591873     
   5.1600000000000007E-002    -1.1191243683610048     
   5.1900000000000002E-002   -0.62037532260011108     
   5.2200000000000010E-002    -8.4048106674652914E-002
   5.2500000000000005E-002    0.45839678375210474     
   5.2800000000000000E-002    0.97200977479943307     
   5.3099999999999994E-002     1.4222613264678465     
   5.3400000000000003E-002     1.7793178514478978     
   5.3699999999999998E-002     2.0175005334451641     
   5.4000000000000006E-002     2.1206063250936840     
   5.4300000000000001E-002     2.0824762778278685     
   5.4599999999999996E-002     1.9058538737981343     
   5.4900000000000004E-002     1.6055430008024181     
   5.5199999999999999E-002     1.2052164800238179     
   5.5499999999999994E-002    0.73457232774746972     
   5.5800000000000002E-002    0.22984674411530695     
   5.6099999999999997E-002   -0.27175707499088048     
   5.6400000000000006E-002   -0.73565609498882212     
   5.6700000000000000E-002    -1.1294723546767433     
   5.6999999999999995E-002    -1.4284731135290625     
   5.7300000000000004E-002    -1.6172430602150467     
   5.7599999999999998E-002    -1.6871557328460256     
   5.7900000000000007E-002    -1.6407986893333457     
   5.8200000000000002E-002    -1.4882000548135899     
   5.8499999999999996E-002    -1.2457083119577135     
   5.8800000000000005E-002   -0.93541741462659833     
   5.9100000000000000E-002   -0.58190152556082708     
   5.9400000000000008E-002   -0.20941717354354958     
   5.9700000000000003E-002    0.15734894513768871     
   6.0000000000000012E-002    0.49806064871238864     
   6.0300000000000006E-002    0.79567336245397580     
   6.0600000000000001E-002     1.0369610235789508     
   6.0900000000000010E-002     1.2147103080015962     
   6.1200000000000004E-002     1.3254041246747366     
   6.1500000000000013E-002     1.3693848426377602     
   6.1800000000000008E-002     1.3521639851367409     
   6.2100000000000002E-002     1.2806946726981130     
   6.2399999999999997E-002     1.1647930756506140     
   6.2700000000000006E-002     1.0156240982266440     
   6.3000000000000000E-002    0.84518234142750392     
   6.3300000000000009E-002    0.66512182500053962     
   6.3600000000000004E-002    0.48654957719550546     
   6.3899999999999998E-002    0.31875063112310842     
   6.4199999999999993E-002    0.16978299894469770     
   6.4500000000000002E-002     4.4315814297679397E-002
   6.4800000000000010E-002    -5.4631980731656128E-002
   6.5100000000000005E-002   -0.12672909983810415     
   6.5400000000000000E-002   -0.17401896543067125     
   6.5700000000000008E-002   -0.19967957060882519     
   6.5999999999999989E-002   -0.20863257560762904     
   6.6299999999999998E-002   -0.20602221913201055     
   6.6600000000000006E-002   -0.19686064109172399     
   6.6900000000000001E-002   -0.18636101324430970     
   6.7199999999999996E-002   -0.17792118768131285     
   6.7500000000000004E-002   -0.17456790342764536     
   6.7800000000000013E-002   -0.17857141227488307     
   6.8099999999999994E-002   -0.19042196219368182     
   6.8400000000000002E-002   -0.21050962100658516     
   6.8700000000000011E-002   -0.23875459326251505     
   6.8999999999999992E-002   -0.27291730848012363     
   6.9300000000000000E-002   -0.31196314965630095     
   6.9600000000000009E-002   -0.35340167058173266     
   6.9900000000000004E-002   -0.39436073191615034     
   7.0199999999999999E-002   -0.43242571981630590     
   7.0500000000000007E-002   -0.46413089215554343     
   7.0800000000000016E-002   -0.48617009817136164     
   7.1099999999999997E-002   -0.49635817217343742     
   7.1400000000000005E-002   -0.49161164605019597     
   7.1700000000000000E-002   -0.47121946641286616     
   7.1999999999999995E-002   -0.43483777383066841     
   7.2300000000000003E-002   -0.38320980843759278     
   7.2600000000000012E-002   -0.31792203723516632     
   7.2900000000000006E-002   -0.24209750549256825     
   7.3200000000000001E-002   -0.15911821055474079     
   7.3499999999999996E-002    -7.3094749796783112E-002
   7.3800000000000004E-002     1.2016666771715713E-002
   7.4099999999999999E-002     9.2484054277614983E-002
   7.4400000000000008E-002    0.16546227809298675     
   7.4700000000000003E-002    0.22795646907022568     
   7.5000000000000011E-002    0.27815092819712312     
   7.5299999999999992E-002    0.31508590156272875     
   7.5600000000000001E-002    0.33749426854566472     
   7.5900000000000009E-002    0.34614868456358494     
   7.6200000000000004E-002    0.34093327792929989     
   7.6499999999999999E-002    0.32284329728532435     
   7.6800000000000007E-002    0.29334179833607560     
   7.7099999999999988E-002    0.25362042691457137     
   7.7399999999999997E-002    0.20577287072120296     
   7.7700000000000005E-002    0.15255350541594842     
   7.8000000000000014E-002     9.6076284143174498E-002
   7.8299999999999995E-002     3.9110539449702914E-002
   7.8600000000000003E-002    -1.5315775157151660E-002
   7.8900000000000012E-002    -6.5034652468207457E-002
   7.9199999999999993E-002   -0.10798601441240514     
   7.9500000000000001E-002   -0.14188510661185721     
   7.9800000000000010E-002   -0.16601834244407584     
   8.0100000000000018E-002   -0.17982765108852697     
   8.0399999999999999E-002   -0.18297988711796384     
   8.0700000000000008E-002   -0.17682768893977446     
   8.1000000000000003E-002   -0.16207032321731515     
   8.1299999999999997E-002   -0.13999390915173909     
   8.1600000000000006E-002   -0.11315690948827978     
   8.1900000000000014E-002    -8.2748458918848689E-002
   8.2199999999999995E-002    -5.1340043675617779E-002
   8.2500000000000004E-002    -2.1038181336222022E-002
   8.2799999999999999E-002     6.6051298428392918E-003
   8.3100000000000007E-002     2.9357286341242218E-002
   8.3400000000000002E-002     4.6380846290448821E-002
   8.3700000000000011E-002     5.6566240762927843E-002
   8.4000000000000005E-002     5.9065034674697196E-002
   8.4300000000000000E-002     5.4863290497339505E-002
   8.4599999999999995E-002     4.3536488474475207E-002
   8.4900000000000003E-002     2.7140490249029797E-002
   8.5199999999999998E-002     6.7373084686671312E-003
   8.5500000000000007E-002    -1.6338276507985583E-002
   8.5800000000000001E-002    -3.9882365389791161E-002
   8.6100000000000010E-002    -6.2728871110291809E-002
   8.6399999999999991E-002    -8.3915037182219654E-002
   8.6699999999999999E-002   -0.10196705645722978     
   8.7000000000000008E-002   -0.11707055302020639     
   8.7300000000000003E-002   -0.12872450503415928     
   8.7599999999999997E-002   -0.13687003051480337     
   8.7900000000000006E-002   -0.14244468846086511     
   8.8200000000000014E-002   -0.14541930224330429     
   8.8499999999999995E-002   -0.14616002330584896     
   8.8800000000000004E-002   -0.14496442784143654     
   8.9100000000000013E-002   -0.14228253111134198     
   8.9399999999999993E-002   -0.13729104363027314     
   8.9700000000000002E-002   -0.13052329317734707     
   9.0000000000000011E-002   -0.12190319453989622     
   9.0299999999999991E-002   -0.11004724902036922     
   9.0600000000000000E-002    -9.5457186582882519E-002
   9.0900000000000009E-002    -7.7394088408094128E-002
   9.1200000000000017E-002    -5.4856100720130870E-002
   9.1499999999999998E-002    -2.8426362161038037E-002
   9.1800000000000007E-002     2.2253106013732046E-003
   9.2100000000000001E-002     3.7503102088219505E-002
   9.2399999999999996E-002     7.6266639665512712E-002
   9.2700000000000005E-002    0.11788422652572647     
   9.3000000000000013E-002    0.16139623557056545     
   9.3300000000000008E-002    0.20434060724654596     
   9.3600000000000003E-002    0.24506311161628438     
   9.3899999999999997E-002    0.28212902043495536     
   9.4200000000000006E-002    0.31243968132798572     
   9.4500000000000001E-002    0.33486080328900253     
   9.4800000000000009E-002    0.34844699715542665     
   9.5100000000000004E-002    0.35135355821768666     
   9.5399999999999999E-002    0.34444529064254864     
   9.5699999999999993E-002    0.32856020601904218     
   9.6000000000000002E-002    0.30377111090919323     
   9.6300000000000011E-002    0.27306223171253752     
   9.6600000000000005E-002    0.23757674058566314     
   9.6900000000000000E-002    0.19881792606698948     
   9.7200000000000009E-002    0.15959194547956915     
   9.7499999999999989E-002    0.12088543417016863     
   9.7799999999999998E-002     8.4306294596043205E-002
   9.8100000000000007E-002     5.0915463259487308E-002
   9.8400000000000015E-002     2.1792328226784178E-002
   9.8699999999999996E-002    -2.8299075564354459E-003
   9.9000000000000005E-002    -2.1954359885187010E-002
   9.9300000000000013E-002    -3.5251836068756842E-002
   9.9599999999999994E-002    -4.2951467648120266E-002
   9.9900000000000003E-002    -4.4752727736376889E-002
  0.10020000000000001         -4.1161033930513506E-002
  0.10049999999999999         -3.3331937892079604E-002
  0.10080000000000000         -2.2106990042308192E-002
  0.10110000000000001         -8.7604798887793798E-003
  0.10140000000000000          4.5514780354434939E-003
  0.10170000000000000          1.6693374590546716E-002
  0.10200000000000001          2.5207065345115773E-002
  0.10230000000000002          2.9276080604987022E-002
  0.10260000000000000          2.7305535786102314E-002
  0.10290000000000001          1.8926921687957184E-002
  0.10320000000000000          3.7966947319757779E-003
  0.10350000000000001         -1.8114298204918819E-002
  0.10380000000000000         -4.5881504173820684E-002
  0.10410000000000001         -7.8839751209399150E-002
  0.10440000000000001        -0.11610526091278339     
  0.10470000000000000        -0.15558059756606690     
  0.10500000000000000        -0.19675842185257120     
  0.10530000000000000        -0.23766494061732540     
  0.10560000000000000        -0.27647915744110407     
  0.10590000000000001        -0.31225487872630214     
  0.10620000000000000        -0.34292817422253408     
  0.10650000000000001        -0.36621329495220517     
  0.10679999999999999        -0.38178530679118988     
  0.10710000000000000        -0.38708865994888697     
  0.10740000000000001        -0.38112417205182164     
  0.10770000000000000        -0.36389598596422024     
  0.10800000000000000        -0.33376431771795645     
  0.10830000000000001        -0.29119393482063699     
  0.10859999999999999        -0.23726949310121778     
  0.10890000000000000        -0.17177839709615314     
  0.10920000000000001         -9.7123362718384176E-002
  0.10950000000000001         -1.5423147020776008E-002
  0.10979999999999999          7.1956456563000634E-002
  0.11009999999999999         0.16094547660056827     
  0.11040000000000001         0.24843286181906840     
  0.11070000000000001         0.33148241335269579     
  0.11100000000000000         0.40472880346950435     
  0.11130000000000000         0.46525451948057706     
  0.11160000000000002         0.50879252421325694     
  0.11190000000000001         0.53191042450871473     
  0.11220000000000001         0.53211743162228409     
  0.11250000000000000         0.50824857285608138     
  0.11280000000000000         0.46004122987904489     
  0.11309999999999999         0.38912424871151202     
  0.11340000000000001         0.29861870742124297     
  0.11369999999999998         0.19286567186931289     
  0.11400000000000000          7.7270136022408092E-002
  0.11430000000000000         -4.1672800361263536E-002
  0.11460000000000002        -0.15776938397683071     
  0.11489999999999999        -0.26522004934936216     
  0.11520000000000001        -0.35790226279844040     
  0.11550000000000001        -0.43250489732300063     
  0.11580000000000000        -0.48571229532697091     
  0.11609999999999999        -0.51566088759762052     
  0.11640000000000002        -0.52339625933299383     
  0.11670000000000001        -0.50918305472698189     
  0.11700000000000001        -0.47579801603678840     
  0.11730000000000000        -0.42651695499301706     
  0.11760000000000000        -0.36448580459292940     
  0.11789999999999999        -0.29365739589524681     
  0.11820000000000001        -0.21857990627685714     
  0.11850000000000001        -0.14247460881854626     
  0.11880000000000000         -6.8820492706623798E-002
  0.11910000000000000         -9.1296828064451696E-004
  0.11940000000000002          5.9014641126460647E-002
  0.11970000000000001         0.10950179527068711     
  0.12000000000000001         0.14874848905002877     
  0.12030000000000000         0.17713231074708596     
  0.12060000000000000         0.19538150993474010     
  0.12089999999999999         0.20343114694905337     
  0.12119999999999999         0.20365509647255120     
  0.12150000000000001         0.19761872545497641     
  0.12180000000000001         0.18594634737215138     
  0.12210000000000000         0.17193731866222808     
  0.12239999999999999         0.15534052428816983     
  0.12270000000000002         0.13725209384137638     
  0.12300000000000001         0.11870684618478501     
  0.12330000000000001          9.8848440956029876E-002
  0.12360000000000000          7.8036406124654289E-002
  0.12390000000000000          5.6280643595640695E-002
  0.12419999999999999          3.2922100731164590E-002
  0.12450000000000001          8.6394046100196648E-003
  0.12480000000000001         -1.5809115258633277E-002
  0.12509999999999999         -3.9745290451841039E-002
  0.12540000000000001         -6.1567836410519106E-002
  0.12570000000000003         -7.9767123897383357E-002
  0.12600000000000000         -9.2580379097415774E-002
  0.12630000000000002         -9.8544039756741905E-002
  0.12659999999999999         -9.6055746626523678E-002
  0.12690000000000001         -8.4245212448686727E-002
  0.12719999999999998         -6.3029780624360709E-002
  0.12750000000000000         -3.2074819212849014E-002
  0.12780000000000002          7.2698096612153432E-003
  0.12809999999999999          5.3978892333782419E-002
  0.12840000000000001         0.10587419096819571     
  0.12869999999999998         0.16055699013957844     
  0.12900000000000000         0.21531178421810304     
  0.12930000000000003         0.26738152315766706     
  0.12959999999999999         0.31403562871108959     
  0.12990000000000002         0.35234413010309223     
  0.13019999999999998         0.38094744572539685     
  0.13050000000000000         0.39745206120743803     
  0.13080000000000003         0.40131575325947927     
  0.13109999999999999         0.39285955267422734     
  0.13140000000000002         0.37166867027613765     
  0.13169999999999998         0.33977765146622479     
  0.13200000000000001         0.29866773122471263     
  0.13229999999999997         0.24958701566861885     
  0.13260000000000000         0.19559508620231084     
  0.13290000000000002         0.13843472296582632     
  0.13319999999999999          7.9173608719913580E-002
  0.13350000000000001          2.0783099064586412E-002
  0.13380000000000003         -3.6767391282643509E-002
  0.13410000000000000         -9.1898011174042268E-002
  0.13440000000000002        -0.14330309836017835     
  0.13469999999999999        -0.19090730179860216     
  0.13500000000000001        -0.23307788607959451     
  0.13529999999999998        -0.26921731480319139     
  0.13560000000000000        -0.29821259043465398     
  0.13590000000000002        -0.31875854996880776     
  0.13619999999999999        -0.32998743920830748     
  0.13650000000000001        -0.33133927265646596     
  0.13680000000000003        -0.32168290287367746     
  0.13710000000000000        -0.30129900833061923     
  0.13740000000000002        -0.27071836842582414     
  0.13769999999999999        -0.23050321866377635     
  0.13800000000000001        -0.18286107697607989     
  0.13829999999999998        -0.12921461660439237     
  0.13860000000000000         -7.2235362583432355E-002
  0.13890000000000002         -1.4728925092315381E-002
  0.13919999999999999          4.0871000229749106E-002
  0.13950000000000001          9.1352237816694701E-002
  0.13979999999999998         0.13448570538262988     
  0.14010000000000000         0.16845519745552112     
  0.14040000000000002         0.19069570229529945     
  0.14069999999999999         0.20051690897951810     
  0.14100000000000001         0.19752286385245083     
  0.14130000000000004         0.18120031094646580     
  0.14160000000000000         0.15342429360370460     
  0.14189999999999997         0.11502929140945689     
  0.14219999999999999          6.8207153339293544E-002
  0.14250000000000002          1.6577772357494157E-002
  0.14279999999999998         -3.8181411711662096E-002
  0.14310000000000000         -9.1994187583238823E-002
  0.14339999999999997        -0.14202994006613925     
  0.14369999999999999        -0.18607070973986303     
  0.14400000000000002        -0.22153973547099742     
  0.14429999999999998        -0.24669277660818409     
  0.14460000000000001        -0.26142236627900750     
  0.14490000000000003        -0.26507884338680104     
  0.14520000000000000        -0.25825718153235627     
  0.14550000000000002        -0.24263286750585686     
  0.14579999999999999        -0.21895496732832923     
  0.14610000000000001        -0.18994158731978572     
  0.14640000000000003        -0.15705468013954460     
  0.14670000000000000        -0.12217396763174815     
  0.14699999999999996         -8.7517070527100144E-002
  0.14729999999999999         -5.4236332752108596E-002
  0.14760000000000001         -2.3545127918905624E-002
  0.14789999999999998          3.4935046092925597E-003
  0.14820000000000000          2.6629932448549106E-002