  -1.4999999999999999E-002     0.0000000000000000     
  -1.4700000000000000E-002     0.0000000000000000     
  -1.4400000000000000E-002     0.0000000000000000     
  -1.4100000000000000E-002     0.0000000000000000     
  -1.3800000000000000E-002     0.0000000000000000     
  -1.3500000000000000E-002     0.0000000000000000     
  -1.3200000000000000E-002     0.0000000000000000     
  -1.2899999999999998E-002     0.0000000000000000     
  -1.2600000000000000E-002     0.0000000000000000     
  -1.2299999999999998E-002     0.0000000000000000     
  -1.2000000000000000E-002     0.0000000000000000     
  -1.1699999999999999E-002     0.0000000000000000     
  -1.1399999999999999E-002     0.0000000000000000     
  -1.1099999999999999E-002     0.0000000000000000     
  -1.0799999999999999E-002     0.0000000000000000     
  -1.0499999999999999E-002     0.0000000000000000     
  -1.0199999999999999E-002     0.0000000000000000     
  -9.8999999999999991E-003     0.0000000000000000     
  -9.5999999999999992E-003     0.0000000000000000     
  -9.2999999999999992E-003     0.0000000000000000     
  -8.9999999999999993E-003     0.0000000000000000     
  -8.6999999999999994E-003     0.0000000000000000     
  -8.3999999999999995E-003     0.0000000000000000     
  -8.0999999999999996E-003     0.0000000000000000     
  -7.7999999999999988E-003     0.0000000000000000     
  -7.4999999999999997E-003     0.0000000000000000     
  -7.1999999999999998E-003     0.0000000000000000     
  -6.8999999999999981E-003     0.0000000000000000     
  -6.5999999999999982E-003     0.0000000000000000     
  -6.3000000000000000E-003     0.0000000000000000     
  -6.0000000000000001E-003     0.0000000000000000     
  -5.6999999999999985E-003     0.0000000000000000     
  -5.3999999999999986E-003     0.0000000000000000     
  -5.1000000000000004E-003     0.0000000000000000     
  -4.7999999999999987E-003     0.0000000000000000     
  -4.5000000000000005E-003     0.0000000000000000     
  -4.1999999999999989E-003     9.6463598930674617E-043
  -3.8999999999999990E-003     6.4210957712002309E-038
  -3.5999999999999990E-003    -4.8633642828643055E-037
  -3.2999999999999991E-003     7.5872667428681015E-036
  -2.9999999999999992E-003    -3.6697668698689664E-035
  -2.6999999999999993E-003     1.8595466023388878E-034
  -2.3999999999999994E-003    -1.0024196647046914E-033
  -2.0999999999999977E-003     3.5860401020647922E-033
  -1.7999999999999995E-003    -9.7264688813699393E-033
  -1.4999999999999979E-003     2.0345462071700141E-032
  -1.1999999999999997E-003    -2.5950404399723488E-032
  -8.9999999999999976E-004    -1.1270198800286373E-032
  -5.9999999999999810E-004     1.8496652373979154E-031
  -2.9999999999999992E-004    -6.3879921447911414E-031
   0.0000000000000000          1.4307842707589176E-030
   3.0000000000000165E-004    -2.1397919606738048E-030
   5.9999999999999984E-004     1.1634607394865694E-030
   9.0000000000000149E-004     4.7335330474672504E-030
   1.2000000000000031E-003    -1.9157374154934751E-029
   1.5000000000000013E-003     4.1494685837507600E-029
   1.8000000000000030E-003    -5.8713398201196472E-029
   2.1000000000000012E-003     3.7333354856296653E-029
   2.3999999999999994E-003     7.1130563515871293E-029
   2.7000000000000010E-003    -2.9387939086168944E-028
   2.9999999999999992E-003     5.7635065399304308E-028
   3.3000000000000008E-003    -7.3379869380271054E-028
   3.6000000000000025E-003     4.5442879999909022E-028
   3.9000000000000007E-003     5.7159151196258569E-028
   4.2000000000000023E-003    -2.3458778062285672E-027
   4.5000000000000005E-003     4.2969734353639986E-027
   4.7999999999999987E-003    -5.2968126088250162E-027
   5.1000000000000004E-003     3.8768551468043578E-027
   5.4000000000000020E-003     9.3140106551965605E-028
   5.7000000000000037E-003    -8.5017053277748735E-027
   5.9999999999999984E-003     1.8362078733480668E-026
   6.3000000000000000E-003    -3.1329021435196893E-026
   6.6000000000000017E-003     3.9429696957142909E-026
   6.9000000000000034E-003    -1.9456144767540798E-026
   7.2000000000000015E-003    -3.9960233002255669E-026
   7.5000000000000032E-003     1.0283479664256485E-025
   7.8000000000000014E-003    -9.9560093814575113E-026
   8.0999999999999996E-003     3.0164213649312021E-026
   8.4000000000000012E-003    -9.1671742399957695E-026
   8.7000000000000029E-003     3.8679304808588830E-025
   9.0000000000000011E-003    -2.3572827548654649E-025
   9.2999999999999992E-003    -1.0841131876820831E-024
   9.6000000000000009E-003     2.0268112977724017E-024
   9.8999999999999991E-003     8.9452189536786434E-026
   1.0200000000000001E-002    -3.5214390197000140E-024
   1.0500000000000002E-002     1.5382664066344998E-024
   1.0800000000000004E-002     7.7081404246169885E-024
   1.1099999999999999E-002    -1.0308606118559529E-023
   1.1400000000000000E-002    -1.2184820699223256E-023
   1.1700000000000002E-002     4.1538458509565317E-023
   1.2000000000000004E-002    -2.1021602139200931E-023
   1.2300000000000002E-002    -6.3066641748785054E-023
   1.2600000000000000E-002     1.4882085427691110E-022
   1.2900000000000002E-002    -1.0502758294826699E-022
   1.3200000000000000E-002    -3.2054149073173045E-022
   1.3500000000000002E-002     9.6316535655687042E-022
   1.3800000000000003E-002    -2.5725718906486698E-022
   1.4100000000000001E-002    -3.0012123464006247E-021
   1.4400000000000000E-002     4.5785848199243735E-021
   1.4700000000000001E-002     3.8354532921894064E-021
   1.4999999999999999E-002    -1.7886859654856156E-020
   1.5300000000000001E-002     8.5809188260578462E-021
   1.5600000000000003E-002     3.9746539256526639E-020
   1.5899999999999997E-002    -6.1776259915436910E-020
   1.6199999999999999E-002    -3.9706970517827025E-020
   1.6500000000000001E-002     1.8348591883986907E-019
   1.6800000000000002E-002    -7.7045370207496849E-020
   1.7100000000000004E-002    -3.3255565811450525E-019
   1.7400000000000006E-002     4.5913472109149148E-019
   1.7700000000000000E-002     2.9004838237733886E-019
   1.8000000000000002E-002    -1.1890385272725582E-018
   1.8300000000000004E-002     3.9397196098280142E-019
   1.8600000000000005E-002     2.1450589086008208E-018
   1.8900000000000000E-002    -2.5673846469293609E-018
   1.9200000000000002E-002    -2.5458280017636227E-018
   1.9500000000000003E-002     7.4036055155734725E-018
   1.9799999999999998E-002    -3.6051093621295734E-019
   2.0100000000000000E-002    -8.7654301674597200E-018
   2.0400000000000001E-002    -1.0269713878414757E-017
   2.0700000000000003E-002    -8.7197102621895295E-018
   2.0999999999999998E-002     2.3455369417796203E-016
   2.1299999999999999E-002    -2.4672476136058896E-016
   2.1600000000000001E-002    -1.3805542141888892E-015
   2.1900000000000003E-002     3.3639656389175970E-015
   2.2200000000000004E-002     3.3391445773644706E-015
   2.2500000000000006E-002    -2.0267997861062942E-014
   2.2800000000000001E-002     6.0238199791596716E-015
   2.3100000000000002E-002     7.8226161338017610E-014
   2.3400000000000004E-002    -8.9214403137347602E-014
   2.3699999999999999E-002    -2.0947410436525631E-013
   2.4000000000000000E-002     4.2394485451073784E-013
   2.4300000000000002E-002     3.8703273808405705E-013
   2.4599999999999997E-002    -1.2368963216317771E-012
   2.4900000000000005E-002    -6.0061405361646284E-013
   2.5200000000000000E-002     1.8575026101809826E-012
   2.5499999999999995E-002     2.8161602967311355E-012
   2.5800000000000003E-002     3.5630202935332697E-012
   2.6099999999999998E-002    -2.3378940303702777E-011
   2.6400000000000007E-002    -4.1084095272563270E-011
   2.6700000000000002E-002     1.4930239266599181E-010
   2.6999999999999996E-002     2.0945326764745307E-010
   2.7300000000000005E-002    -7.5413343289914970E-010
   2.7600000000000000E-002    -8.9173832483703730E-010
   2.7900000000000008E-002     3.2432070280585014E-009
   2.8200000000000003E-002     3.7591780841458449E-009
   2.8499999999999998E-002    -1.2367040851893848E-008
   2.8800000000000006E-002    -1.7245840467228379E-008
   2.9100000000000001E-002     3.9157528024275403E-008
   2.9400000000000003E-002     7.4639249170600099E-008
   2.9700000000000004E-002    -1.0805347823385458E-007
   3.0000000000000006E-002    -3.2772240536668661E-007
   3.0300000000000001E-002     3.1238739138058203E-007
   3.0600000000000002E-002     2.6674235941149541E-006
   3.0900000000000004E-002     6.5849545691320960E-006
   3.1199999999999999E-002     1.1780498860811506E-005
   3.1500000000000007E-002     1.9718352828339590E-005
   3.1800000000000002E-002     3.2882941510286111E-005
   3.2099999999999997E-002     5.1768979944274608E-005
   3.2400000000000005E-002     7.5381109965872280E-005
   3.2700000000000000E-002     1.0656617089883311E-004
   3.3000000000000002E-002     1.5410816353430984E-004
   3.3300000000000003E-002     2.2702636552607926E-004
   3.3599999999999998E-002     3.3042198790175613E-004
   3.3900000000000000E-002     4.7157322476979314E-004
   3.4200000000000001E-002     6.6655874412648215E-004
   3.4500000000000003E-002     9.3343889519365247E-004
   3.4799999999999998E-002     1.2803125524029296E-003
   3.5099999999999999E-002     1.7082119650462639E-003
   3.5400000000000001E-002     2.2238495986767453E-003
   3.5699999999999996E-002     2.8351004485743761E-003
   3.6000000000000004E-002     3.5266439723545006E-003
   3.6299999999999999E-002     4.2471647570545661E-003
   3.6600000000000008E-002     4.9182118812961294E-003
   3.6900000000000002E-002     5.4285154780444288E-003
   3.7199999999999997E-002     5.5945048472265425E-003
   3.7500000000000006E-002     5.1337131350145011E-003
   3.7800000000000000E-002     3.6886699423194424E-003
   3.8100000000000009E-002     8.5590492539740258E-004
   3.8400000000000004E-002    -3.8412723051252278E-003
   3.8699999999999998E-002    -1.0988037815008136E-002
   3.9000000000000007E-002    -2.1234600890254491E-002
   3.9300000000000002E-002    -3.5189202034107019E-002
   3.9600000000000003E-002    -5.3343979446254922E-002
   3.9900000000000005E-002    -7.6035748659513652E-002
   4.0200000000000000E-002   -0.10335477837432167     
   4.0500000000000001E-002   -0.13497488022432705     
   4.0800000000000003E-002   -0.16999646088049630     
   4.1100000000000005E-002   -0.20684875130040450     
   4.1399999999999999E-002   -0.24323678669304649     
   4.1700000000000008E-002   -0.27606761138223468     
   4.2000000000000003E-002   -0.30147091857802455     
   4.2299999999999997E-002   -0.31487676416824761     
   4.2600000000000006E-002   -0.31126847345329084     
   4.2900000000000001E-002   -0.28546532280652170     
   4.3200000000000002E-002   -0.23257189211959456     
   4.3500000000000004E-002   -0.14841812219918096     
   4.3799999999999999E-002    -3.0174926126477500E-002
   4.4100000000000000E-002    0.12312476663351046     
   4.4400000000000002E-002    0.31002683644100643     
   4.4700000000000004E-002    0.52630123396904949     
   4.4999999999999998E-002    0.76469042606332116     
   4.5300000000000000E-002     1.0149175880579726     
   4.5600000000000002E-002     1.2639046675624011     
   4.5899999999999996E-002     1.4963698029518921     
   4.6200000000000005E-002     1.6956656196535764     
   4.6500000000000000E-002     1.8448713683214830     
   4.6799999999999994E-002     1.9280282117321543     
   4.7100000000000003E-002     1.9314933611185654     
   4.7399999999999998E-002     1.8452078778801413     
   4.7700000000000006E-002     1.6638760874816256     
   4.8000000000000001E-002     1.3877352720481759     
   4.8300000000000010E-002     1.0229927014293732     
   4.8600000000000004E-002    0.58180937786399090     
   4.8899999999999999E-002     8.1761311206665854E-002
   4.9200000000000008E-002   -0.45507764396551248     
   4.9500000000000002E-002    -1.0037642406604366     
   4.9800000000000011E-002    -1.5379122478372549     
   5.0100000000000006E-002    -2.0317107516349187     
   5.0400000000000000E-002    -2.4616148523516972     
   5.0700000000000009E-002    -2.8079984963316527     
   5.1000000000000004E-002    -3.0562896374290225     
   5.1299999999999998E-002    -3.1978425066473397     
   5.1600000000000007E-002    -3.2300058157617788     
   5.1900000000000002E-002    -3.1560458470479906     
   5.2200000000000010E-002    -2.9843119158238731     
   5.2500000000000005E-002    -2.7272303066055819     
   5.2800000000000000E-002    -2.3999442192681983     
   5.3099999999999994E-002    -2.0190643794841101     
   5.3400000000000003E-002    -1.6014084585200512     
   5.3699999999999998E-002    -1.1631554213545194     
   5.4000000000000006E-002   -0.71885793508947238     
   5.4300000000000001E-002   -0.28132958257023022     
   5.4599999999999996E-002    0.13888865058348202     
   5.4900000000000004E-002    0.53281431609013241     
   5.5199999999999999E-002    0.89339580560159781     
   5.5499999999999994E-002     1.2146060824987754     
   5.5800000000000002E-002     1.4917627664011683     
   5.6099999999999997E-002     1.7208058813520808     
   5.6400000000000006E-002     1.8989630461382534     
   5.6700000000000000E-002     2.0238830909159402     
   5.6999999999999995E-002     2.0948801331312934     
   5.7300000000000004E-002     2.1121565889859819     
   5.7599999999999998E-002     2.0779517423015585     
   5.7900000000000007E-002     1.9957869039962892     
   5.8200000000000002E-002     1.8711494972328211     
   5.8499999999999996E-002     1.7107627306304811     
   5.8800000000000005E-002     1.5227322103553680     
   5.9100000000000000E-002     1.3156955754399975     
   5.9400000000000008E-002     1.0986100269857360     
   5.9700000000000003E-002    0.88007068449456616     
   6.0000000000000012E-002    0.66763357771948273     
   6.0300000000000006E-002    0.46774544168289389     
   6.0600000000000001E-002    0.28491984238465956     
   6.0900000000000010E-002    0.12212040583198613     
   6.1200000000000004E-002    -1.9987319929527625E-002
   6.1500000000000013E-002   -0.14215670786091317     
   6.1800000000000008E-002   -0.24697662879662163     
   6.2100000000000002E-002   -0.33778420492508787     
   6.2399999999999997E-002   -0.41894332548878926     
   6.2700000000000006E-002   -0.49430574559593410     
   6.3000000000000000E-002   -0.56765511379287925     
   6.3300000000000009E-002   -0.64100831949340864     
   6.3600000000000004E-002   -0.71528874688590161     
   6.3899999999999998E-002   -0.78873344742057072     
   6.4199999999999993E-002   -0.85816697969995925     
   6.4500000000000002E-002   -0.91785843992700999     
   6.4800000000000010E-002   -0.96129231626093214     
   6.5100000000000005E-002   -0.98051371145692867     
   6.5400000000000000E-002   -0.96854657504084685     
   6.5700000000000008E-002   -0.91909548346802650     
   6.5999999999999989E-002   -0.82884464113498102     
   6.6299999999999998E-002   -0.69721616457252489     
   6.6600000000000006E-002   -0.52796207357151925     
   6.6900000000000001E-002   -0.32849970485310953     
   6.7199999999999996E-002   -0.11044803795657843     
   6.7500000000000004E-002    0.11204194369632062     
   6.7800000000000013E-002    0.32271442317670362     
   6.8099999999999994E-002    0.50550632942615281     
   6.8400000000000002E-002    0.64551633818239340     
   6.8700000000000011E-002    0.73124301158635185     
   6.8999999999999992E-002    0.75545925852034346     
   6.9300000000000000E-002    0.71644857809064555     
   6.9600000000000009E-002    0.61807196136494036     
   6.9900000000000004E-002    0.46973900386939760     
   7.0199999999999999E-002    0.28537703812460846     
   7.0500000000000007E-002     8.1939257822873229E-002
   7.0800000000000016E-002   -0.12198146144337138     
   7.1099999999999997E-002   -0.30815813890694821     
   7.1400000000000005E-002   -0.46015715074906316     
   7.1700000000000000E-002   -0.56520276935622193     
   7.1999999999999995E-002   -0.61463413855846194     
   7.2300000000000003E-002   -0.60481666232221376     
   7.2600000000000012E-002   -0.53675410026175818     
   7.2900000000000006E-002   -0.41604744614287958     
   7.3200000000000001E-002   -0.25166268097201289     
   7.3499999999999996E-002    -5.5186754443477579E-002
   7.3800000000000004E-002    0.16039210817112454     
   7.4099999999999999E-002    0.38144013978192048     
   7.4400000000000008E-002    0.59503690473678195     
   7.4700000000000003E-002    0.78911184227011466     
   7.5000000000000011E-002    0.95332814886683170     
   7.5299999999999992E-002     1.0786089510421200     
   7.5600000000000001E-002     1.1582599436324061     
   7.5900000000000009E-002     1.1871350139353292     
   7.6200000000000004E-002     1.1624893754945129     
   7.6499999999999999E-002     1.0832063042694642     
   7.6800000000000007E-002    0.95082534412961262     
   7.7099999999999988E-002    0.76904130799162240     
   7.7399999999999997E-002    0.54436597579467627     
   7.7700000000000005E-002    0.28566672530633830     
   7.8000000000000014E-002     4.7001806140734223E-003
   7.8299999999999995E-002   -0.28498731048896042     
   7.8600000000000003E-002   -0.56794462822023539     
   7.8900000000000012E-002   -0.82812817600686761     
   7.9199999999999993E-002    -1.0491486071285794     
   7.9500000000000001E-002    -1.2163626845563713     
   7.9800000000000010E-002    -1.3169740887638794     
   8.0100000000000018E-002    -1.3419240767021123     
   8.0399999999999999E-002    -1.2855318471495800     
   8.0700000000000008E-002    -1.1470642575114387     
   8.1000000000000003E-002   -0.93006699656923519     
   8.1299999999999997E-002   -0.64285839005825629     
   8.1600000000000006E-002   -0.29750803029946238     
   8.1900000000000014E-002     9.0443714519453128E-002
   8.2199999999999995E-002    0.50287219438758646     
   8.2500000000000004E-002    0.91988952836820737     
   8.2799999999999999E-002     1.3206409040063791     
   8.3100000000000007E-002     1.6839466747915532     
   8.3400000000000002E-002     1.9890000874074554     
   8.3700000000000011E-002     2.2160256408656962     
   8.4000000000000005E-002     2.3466132620811013     
   8.4300000000000000E-002     2.3645829573251911     
   8.4599999999999995E-002     2.2563689827322846     
   8.4900000000000003E-002     2.0122952927813893     
   8.5199999999999998E-002     1.6270826444924313     
   8.5500000000000007E-002     1.1015282155738859     
   8.5800000000000001E-002    0.44263564252518406     
   8.6100000000000010E-002   -0.33419659623410680     
   8.6399999999999991E-002    -1.2059341795989014     
   8.6699999999999999E-002    -2.1400775198784512     
   8.7000000000000008E-002    -3.0968290462866728     
   8.7300000000000003E-002    -4.0288049311116172     
   8.7599999999999997E-002    -4.8844744399539124     
   8.7900000000000006E-002    -5.6096215809840917     
   8.8200000000000014E-002    -6.1520126395858696     
   8.8499999999999995E-002    -6.4642521290377681     
   8.8800000000000004E-002    -6.5089488817780765     
   8.9100000000000013E-002    -6.2613732655365686     
   8.9399999999999993E-002    -5.7135476664960176     
   8.9700000000000002E-002    -4.8754644445789355     
   9.0000000000000011E-002    -3.7766648909050096     
   9.0299999999999991E-002    -2.4647856063583973     
   9.0600000000000000E-002    -1.0035486509006628     
   9.0900000000000009E-002    0.53134003208665770     
   9.1200000000000017E-002     2.0572107603355647     
   9.1499999999999998E-002     3.4902750650677623     
   9.1800000000000007E-002     4.7518402198868088     
   9.2100000000000001E-002     5.7744885963281112     
   9.2399999999999996E-002     6.5070717682931711     
   9.2700000000000005E-002     6.9187299920546259     
   9.3000000000000013E-002     7.0008852984230519     
   9.3300000000000008E-002     6.7678055311654974     
   9.3600000000000003E-002     6.2550866340047016     
   9.3899999999999997E-002     5.5163275003919354     
   9.4200000000000006E-002     4.6183482503747415     
   9.4500000000000001E-002     3.6361816363550030     
   9.4800000000000009E-002     2.6465989427815755     
   9.5100000000000004E-002     1.7225677982760805     
   9.5399999999999999E-002    0.92766557285446183     
   9.5699999999999993E-002    0.31229150656766069     
   9.6000000000000002E-002    -8.9846994806657449E-002
   9.6300000000000011E-002   -0.26277309105706259     
   9.6600000000000005E-002   -0.20903521139548259     
   9.6900000000000000E-002     5.2068139982704820E-002
   9.7200000000000009E-002    0.48620553861015892     
   9.7499999999999989E-002     1.0473347258943408     
   9.7799999999999998E-002     1.6810230863837505     
   9.8100000000000007E-002     2.3285025047512846     
   9.8400000000000015E-002     2.9302887292894093     
   9.8699999999999996E-002     3.4303519252323489     
   9.9000000000000005E-002     3.7788723162395015     
   9.9300000000000013E-002     3.9353931267671420     
   9.9599999999999994E-002     3.8709263278517181     
   9.9900000000000003E-002     3.5701798441500858     
  0.10020000000000001          3.0316331275252661     
  0.10049999999999999          2.2688207006941941     
  0.10080000000000000          1.3084679319929200     
  0.10110000000000001         0.19044768902516485     
  0.10140000000000000         -1.0361409416707021     
  0.10170000000000000         -2.3134379357542318     
  0.10200000000000001         -3.5809644730172865     
  0.10230000000000002         -4.7768294886388567     
  0.10260000000000000         -5.8435466577387354     
  0.10290000000000001         -6.7297932219648668     
  0.10320000000000000         -7.3953460143369281     
  0.10350000000000001         -7.8118025730537006     
  0.10380000000000000         -7.9661483777226287     
  0.10410000000000001         -7.8590350716082611     
  0.10440000000000001         -7.5070593404952817     
  0.10470000000000000         -6.9384899496081784     
  0.10500000000000000         -6.1937624239354570     
  0.10530000000000000         -5.3200828072750657     
  0.10560000000000000         -4.3705516481800766     
  0.10590000000000001         -3.3975020451089435     
  0.10620000000000000         -2.4520865171321158     
  0.10650000000000001         -1.5780375043180417     
  0.10679999999999999        -0.81219154853913933     
  0.10710000000000000        -0.17952066624808094     
  0.10740000000000001         0.30508032267463392     
  0.10770000000000000         0.63858598545067025     
  0.10800000000000000         0.82656169536919533     
  0.10830000000000001         0.88301047150445444     
  0.10859999999999999         0.82565117193032278     
  0.10890000000000000         0.67373223257028414     
  0.10920000000000001         0.44429448982196545     
  0.10950000000000001         0.15010128152053434     
  0.10979999999999999        -0.20204184470489120     
  0.11009999999999999        -0.61180919648646681     
  0.11040000000000001         -1.0827051946516109     
  0.11070000000000001         -1.6200355504901669     
  0.11100000000000000         -2.2243682077915130     
  0.11130000000000000         -2.8886838946481439     
  0.11160000000000002         -3.5903214769387568     
  0.11190000000000001         -4.2890131237625884     
  0.11220000000000001         -4.9217099141098117     
  0.11250000000000000         -5.4064958767171118     
  0.11280000000000000         -5.6433605833603027     
  0.11309999999999999         -5.5255291647749667     
  0.11340000000000001         -4.9468267041764307     
  0.11369999999999998         -3.8197129745960243     
  0.11400000000000000         -2.0857245040454386     
  0.11430000000000000         0.26700225096679109     
  0.11460000000000002          3.1952238302903213     
  0.11489999999999999          6.5917914505165189     
  0.11520000000000001          10.287180758476653     
  0.11550000000000001          14.054633459869244     
  0.11580000000000000          17.625116773968255     
  0.11609999999999999          20.706312344392988     
  0.11640000000000002          23.008805945108112     
  0.11670000000000001          24.272402398169085     
  0.11700000000000001          24.293663744879474     
  0.11730000000000000          22.949740329369721     
  0.11760000000000000          20.215026740425813     
  0.11789999999999999          16.170886690570832     
  0.11820000000000001          11.004942903000281     
  0.11850000000000001          5.0006754358504990     
  0.11880000000000000         -1.4836008539711596     
  0.11910000000000000         -8.0408035252352743     
  0.11940000000000002         -14.248145439903592     
  0.11970000000000001         -19.701485912167239     
  0.12000000000000001         -24.046410679732446     
  0.12030000000000000         -27.006918740640391     
  0.12060000000000000         -28.404300846231866     
  0.12089999999999999         -28.169545373927033     
  0.12119999999999999         -26.343225930179582     
  0.12150000000000001         -23.068020068317026     
  0.12180000000000001         -18.573384855688847     
  0.12210000000000000         -13.152697742350092     
  0.12239999999999999         -7.1394370040210244     
  0.12270000000000002        -0.87965756353256186     
  0.12300000000000001          5.2894023011958069     
  0.12330000000000001          11.063541051607226     
  0.12360000000000000          16.182421963184172     
  0.12390000000000000          20.444350349111161     
  0.12419999999999999          23.705192451387290     
  0.12450000000000001          25.883780258020845     
  0.12480000000000001          26.951682288548518     
  0.12509999999999999          26.931179932583806     
  0.12540000000000001          25.883030448253383     
  0.12570000000000003          23.900804136162172     
  0.12600000000000000          21.099746147664419     
  0.12630000000000002          17.613170920663229     
  0.12659999999999999          13.582656289277386     
  0.12690000000000001          9.1564766138607823     
  0.12719999999999998          4.4831229230329468     
  0.12750000000000000        -0.28995489028159360     
  0.12780000000000002         -5.0189042748096799     
  0.12809999999999999         -9.5690468996724860     
  0.12840000000000001         -13.813574101247379     
  0.12869999999999998         -17.640206698253991     
  0.12900000000000000         -20.949956430599002     
  0.12930000000000003         -23.664258535375208     
  0.12959999999999999         -25.723048180265824     
  0.12990000000000002         -27.091105603877626     
  0.13019999999999998         -27.753463420099283     
  0.13050000000000000         -27.721691336596201     
  0.13080000000000003         -27.026884129621450     
  0.13109999999999999         -25.722298244182969     
  0.13140000000000002         -23.875326399972657     
  0.13169999999999998         -21.568163804652400     
  0.13200000000000001         -18.887880389232777     
  0.13229999999999997         -15.926029662993944     
  0.13260000000000000         -12.770254845394057     
  0.13290000000000002         -9.5025822717324200     
  0.13319999999999999         -6.1949401035685252     
  0.13350000000000001         -2.9078344195073580     
  0.13380000000000003         0.30913567728701219     
  0.13410000000000000          3.4195709046352825     
  0.13440000000000002          6.3935082274804547     
  0.13469999999999999          9.2099180150859468     
  0.13500000000000001          11.848150574644892     
  0.13529999999999998          14.290941110395964     
  0.13560000000000000          16.514387254427746     
  0.13590000000000002          18.495526795869015     
  0.13619999999999999          20.200982838920854     
  0.13650000000000001          21.599097663280144     
  0.13680000000000003          22.650002444396421     
  0.13710000000000000          23.319776840988659     
  0.13740000000000002          23.572869523439284     
  0.13769999999999999          23.386283578908852     
  0.13800000000000001          22.743202816606917     
  0.13829999999999998          21.645465890605845     
  0.13860000000000000          20.106982118159500     
  0.13890000000000002          18.162954271110372     
  0.13919999999999999          15.862464743595648     
  0.13950000000000001          13.273215163057028     
  0.13979999999999998          10.472961118863140     
  0.14010000000000000          7.5516665145093214     
  0.14040000000000002          4.6008160171666361     
  0.14069999999999999          1.7138901276713403     
  0.14100000000000001         -1.0246545984525861     
  0.14130000000000004         -3.5369125660496668     
  0.14160000000000000         -5.7635246288337614     
  0.14189999999999997         -7.6593731743034077     
  0.14219999999999999         -9.2016473308082212     
  0.14250000000000002         -10.385298340927047     
  0.14279999999999998         -11.225343740798792     
  0.14310000000000000         -11.751660202127312     
  0.14339999999999997         -12.009137374792880     
  0.14369999999999999         -12.049398498823287     
  0.14400000000000002         -11.930462054497564     
  0.14429999999999998         -11.708080744895955     
  0.14460000000000001         -11.434502758777624     
  0.14490000000000003         -11.151598146558852     
  0.14520000000000000         -10.891779405063893     
  0.14550000000000002         -10.671946562148927     
  0.14579999999999999         -10.496601555501091     
  0.14610000000000001         -10.354342988364536     
  0.14640000000000003         -10.224329675475662     
  0.14670000000000000         -10.073599867693417     
  0.14699999999999996         -9.8656312533262938     
  0.14729999999999999         -9.5597484313156968     
  0.14760000000000001         -9.1188072528331396     
  0.14789999999999998         -8.5098200540000537     
  0.14820000000000000         -7.7101966965566788     