  -1.4999999999999999E-002     0.0000000000000000     
  -1.4700000000000000E-002     0.0000000000000000     
  -1.4400000000000000E-002     0.0000000000000000     
  -1.4100000000000000E-002     4.1634874974881385E-037
  -1.3800000000000000E-002     3.4457325329615519E-034
  -1.3500000000000000E-002    -2.7063641562067634E-031
  -1.3200000000000000E-002    -2.4108102859885320E-029
  -1.2899999999999998E-002     1.3508815164850713E-028
  -1.2600000000000000E-002     1.0801866186177661E-026
  -1.2299999999999998E-002    -4.4109620022299031E-026
  -1.2000000000000000E-002    -9.0412271938860472E-025
  -1.1699999999999999E-002     4.2898918772863771E-024
  -1.1399999999999999E-002     2.3370238497969549E-023
  -1.1099999999999999E-002    -1.3453206137849965E-022
  -1.0799999999999999E-002    -2.3472352782425333E-022
  -1.0499999999999999E-002     1.8425194685755706E-021
  -1.0199999999999999E-002     1.2660917000576359E-021
  -9.8999999999999991E-003    -1.3794365868663583E-020
  -9.5999999999999992E-003    -1.0235076281575681E-020
  -9.2999999999999992E-003     7.1991925092612401E-020
  -8.9999999999999993E-003     1.0221056869663494E-019
  -8.6999999999999994E-003    -3.0706166266758143E-019
  -8.3999999999999995E-003    -6.5385116315566309E-019
  -8.0999999999999996E-003     9.1689847421515616E-019
  -7.7999999999999988E-003     2.8007778212112156E-018
  -7.4999999999999997E-003    -8.2932818006660982E-019
  -7.1999999999999998E-003    -8.4276661910732276E-018
  -6.8999999999999981E-003    -6.9487560204024061E-018
  -6.5999999999999982E-003     1.3225092924767427E-017
  -6.3000000000000000E-003     3.9944785301233183E-017
  -6.0000000000000001E-003     3.0092188917403796E-017
  -5.6999999999999985E-003    -1.1521727142163530E-016
  -5.3999999999999986E-003    -2.7285437259747115E-016
  -5.1000000000000004E-003     1.6257621276882650E-016
  -4.7999999999999987E-003     8.8379802053450025E-016
  -4.5000000000000005E-003     2.3212980065989489E-016
  -4.1999999999999989E-003    -1.5919323167469993E-015
  -3.8999999999999990E-003    -1.4298266069228579E-015
  -3.5999999999999990E-003     3.5079546089981195E-016
  -3.2999999999999991E-003     7.2623667084201588E-016
  -2.9999999999999992E-003     9.6369359526671276E-015
  -2.6999999999999993E-003     8.7716865505581879E-015
  -2.3999999999999994E-003    -3.5193029165935595E-014
  -2.0999999999999977E-003    -2.4542147298139933E-014
  -1.7999999999999995E-003     4.7041374377134317E-014
  -1.4999999999999979E-003     1.5928597781026401E-014
  -1.1999999999999997E-003     6.1676669763202575E-014
  -8.9999999999999976E-004     4.7808449760733604E-014
  -5.9999999999999810E-004    -3.7766754402376360E-013
  -2.9999999999999992E-004    -6.9716584846224436E-014
   0.0000000000000000          6.1542835813526497E-013
   3.0000000000000165E-004    -3.5014766952310827E-013
   5.9999999999999984E-004     1.8450409835751901E-013
   9.0000000000000149E-004     1.7556866105944988E-012
   1.2000000000000031E-003    -3.0079619420243625E-012
   1.5000000000000013E-003    -3.6831420500043927E-012
   1.8000000000000030E-003     6.7511465514741784E-012
   2.1000000000000012E-003     2.8823230720020050E-012
   2.3999999999999994E-003    -6.4629776276004800E-012
   2.7000000000000010E-003     5.5165038679913273E-012
   2.9999999999999992E-003    -4.2210324608131110E-012
   3.3000000000000008E-003    -1.8350571859399084E-011
   3.6000000000000025E-003     2.5847641080588945E-011
   3.9000000000000007E-003     9.5284231505760805E-012
   4.2000000000000023E-003    -4.8428226838991050E-011
   4.5000000000000005E-003     6.6202937717555423E-011
   4.7999999999999987E-003     5.7654685892233288E-011
   5.1000000000000004E-003    -2.2629811418413575E-010
   5.4000000000000020E-003    -4.5886639597081081E-011
   5.7000000000000037E-003     4.0483615788949259E-010
   5.9999999999999984E-003     1.2142017181505532E-011
   6.3000000000000000E-003    -4.9170102875503042E-010
   6.6000000000000017E-003     3.8629831149939333E-011
   6.9000000000000034E-003     4.9366246241035460E-010
   7.2000000000000015E-003    -6.5111666368775742E-011
   7.5000000000000032E-003    -6.0894795043287129E-010
   7.8000000000000014E-003    -3.4414301871650936E-011
   8.0999999999999996E-003     9.7322254300479129E-010
   8.4000000000000012E-003     3.2025013048013106E-010
   8.7000000000000029E-003    -1.3115793997760046E-009
   9.0000000000000011E-003    -6.0743255786447471E-010
   9.2999999999999992E-003     1.1679779132176097E-009
   9.6000000000000009E-003     4.1417294397280610E-010
   9.8999999999999991E-003    -9.0219195493138856E-010
   1.0200000000000001E-002     9.2210923773807064E-010
   1.0500000000000002E-002     3.0123319795258442E-009
   1.0800000000000004E-002    -4.0501770541096674E-009
   1.1099999999999999E-002    -1.4855460370377290E-008
   1.1400000000000000E-002     5.0328849616308725E-009
   1.1700000000000002E-002     5.1709898689140366E-008
   1.2000000000000004E-002     2.3852101975652131E-008
   1.2300000000000002E-002    -1.2160581311899791E-007
   1.2600000000000000E-002    -1.5326458088640330E-007
   1.2900000000000002E-002     2.8004378373768710E-007
   1.3200000000000000E-002     1.2809431021747833E-006
   1.3500000000000002E-002     2.8039261353834645E-006
   1.3800000000000003E-002     4.8888202440232373E-006
   1.4100000000000001E-002     7.1336568328767453E-006
   1.4400000000000000E-002     9.0283667385774495E-006
   1.4700000000000001E-002     1.2986664485654906E-005
   1.4999999999999999E-002     2.5236192585615448E-005
   1.5300000000000001E-002     4.8730735857541021E-005
   1.5600000000000003E-002     7.6273194234514506E-005
   1.5899999999999997E-002     9.8329626710043561E-005
   1.6199999999999999E-002     1.1856772180550022E-004
   1.6500000000000001E-002     1.5208760170106337E-004
   1.6800000000000002E-002     2.0455515452895553E-004
   1.7100000000000004E-002     2.6414224954151211E-004
   1.7400000000000006E-002     3.2176049552827036E-004
   1.7700000000000000E-002     3.8577091975118387E-004
   1.8000000000000002E-002     4.5783449395304194E-004
   1.8300000000000004E-002     4.9701953223075883E-004
   1.8600000000000005E-002     4.2218291503578375E-004
   1.8900000000000000E-002     1.4176752669465859E-004
   1.9200000000000002E-002    -4.4624970305244343E-004
   1.9500000000000003E-002    -1.4958367745347989E-003
   1.9799999999999998E-002    -3.2504359402764590E-003
   2.0100000000000000E-002    -6.0523071481190177E-003
   2.0400000000000001E-002    -1.0346838026634804E-002
   2.0700000000000003E-002    -1.6701683932525156E-002
   2.0999999999999998E-002    -2.5832999928919478E-002
   2.1299999999999999E-002    -3.8625265240556858E-002
   2.1600000000000001E-002    -5.6136128293611476E-002
   2.1900000000000003E-002    -7.9575188450319898E-002
   2.2200000000000004E-002   -0.11026417691858836     
   2.2500000000000006E-002   -0.14958609426970179     
   2.2800000000000001E-002   -0.19891983898279059     
   2.3100000000000002E-002   -0.25953727100043350     
   2.3400000000000004E-002   -0.33245402432088234     
   2.3699999999999999E-002   -0.41826990767353678     
   2.4000000000000000E-002   -0.51701601891670868     
   2.4300000000000002E-002   -0.62798019595010635     
   2.4599999999999997E-002   -0.74952456147942970     
   2.4900000000000005E-002   -0.87894267298507145     
   2.5200000000000000E-002    -1.0124146891277488     
   2.5499999999999995E-002    -1.1450250467915637     
   2.5800000000000003E-002    -1.2708261059220403     
   2.6099999999999998E-002    -1.3830162172618210     
   2.6400000000000007E-002    -1.4742046474414425     
   2.6700000000000002E-002    -1.5368117512935398     
   2.6999999999999996E-002    -1.5635050685268959     
   2.7300000000000005E-002    -1.5476598874505241     
   2.7600000000000000E-002    -1.4838536611798472     
   2.7900000000000008E-002    -1.3683669120747672     
   2.8200000000000003E-002    -1.1995202833180580     
   2.8499999999999998E-002   -0.97796888328061260     
   2.8800000000000006E-002   -0.70683877484150071     
   2.9100000000000001E-002   -0.39184687156691339     
   2.9400000000000003E-002    -4.1024734179112704E-002
   2.9700000000000004E-002    0.33558579116159526     
   3.0000000000000006E-002    0.72612291482914437     
   3.0300000000000001E-002     1.1176528202278790     
   3.0600000000000002E-002     1.4966654782697131     
   3.0900000000000004E-002     1.8495443790229880     
   3.1199999999999999E-002     2.1636782801894547     
   3.1500000000000007E-002     2.4279864935029196     
   3.1800000000000002E-002     2.6336913350610316     
   3.2099999999999997E-002     2.7750872577217813     
   3.2400000000000005E-002     2.8500678790208562     
   3.2700000000000000E-002     2.8606071550203929     
   3.3000000000000002E-002     2.8129640463913490     
   3.3300000000000003E-002     2.7175697343680425     
   3.3599999999999998E-002     2.5886633176867324     
   3.3900000000000000E-002     2.4431017548177900     
   3.4200000000000001E-002     2.2993223749877236     
   3.4500000000000003E-002     2.1756513291967754     
   3.4799999999999998E-002     2.0881951598192270     
   3.5099999999999999E-002     2.0493047239135076     
   3.5400000000000001E-002     2.0655953980894113     
   3.5699999999999996E-002     2.1368069908966438     
   3.6000000000000004E-002     2.2551895049905224     
   3.6299999999999999E-002     2.4053111229072210     
   3.6600000000000008E-002     2.5652450060002603     
   3.6900000000000002E-002     2.7082230108038341     
   3.7199999999999997E-002     2.8048303841372677     
   3.7500000000000006E-002     2.8261266354336492     
   3.7800000000000000E-002     2.7462327620780558     
   3.8100000000000009E-002     2.5452351156597155     
   3.8400000000000004E-002     2.2110608203742070     
   3.8699999999999998E-002     1.7412730472705014     
   3.9000000000000007E-002     1.1432114425274367     
   3.9300000000000002E-002    0.43375081614339317     
   3.9600000000000003E-002   -0.36222492566287012     
   3.9900000000000005E-002    -1.2138140696296609     
   4.0200000000000000E-002    -2.0867838004505446     
   4.0500000000000001E-002    -2.9458868032275545     
   4.0800000000000003E-002    -3.7569341491525785     
   4.1100000000000005E-002    -4.4893267778766663     
   4.1399999999999999E-002    -5.1169779541292808     
   4.1700000000000008E-002    -5.6190265171331166     
   4.2000000000000003E-002    -5.9797961991464019     
   4.2299999999999997E-002    -6.1888365884177929     
   4.2600000000000006E-002    -6.2400650876348269     
   4.2900000000000001E-002    -6.1315817222195639     
   4.3200000000000002E-002    -5.8649973643848794     
   4.3500000000000004E-002    -5.4458662514267537     
   4.3799999999999999E-002    -4.8831606187951468     
   4.4100000000000000E-002    -4.1908960543037939     
   4.4400000000000002E-002    -3.3880824528151421     
   4.4700000000000004E-002    -2.4999847203061289     
   4.4999999999999998E-002    -1.5576464169435391     
   4.5300000000000000E-002   -0.59856642920402936     
   4.5600000000000002E-002    0.33483011805318019     
   4.5899999999999996E-002     1.1959830312371680     
   4.6200000000000005E-002     1.9380433713767657     
   4.6500000000000000E-002     2.5154913219337995     
   4.6799999999999994E-002     2.8887403536145455     
   4.7100000000000003E-002     3.0288970834708300     
   4.7399999999999998E-002     2.9196301005747141     
   4.7700000000000006E-002     2.5623344283773211     
   4.8000000000000001E-002     1.9788997589317576     
   4.8300000000000010E-002     1.2111749041466942     
   4.8600000000000004E-002    0.32314967057806643     
   4.8899999999999999E-002   -0.60337439996957865     
   4.9200000000000008E-002    -1.4724184147961397     
   4.9500000000000002E-002    -2.1796891432598513     
   4.9800000000000011E-002    -2.6213599319648475     
   5.0100000000000006E-002    -2.7043353929840364     
   5.0400000000000000E-002    -2.3551351847861013     
   5.0700000000000009E-002    -1.5314333399268070     
   5.1000000000000004E-002   -0.23046882566755222     
   5.1299999999999998E-002     1.5052334041468660     
   5.1600000000000007E-002     3.5841009546814950     
   5.1900000000000002E-002     5.8672005630812825     
   5.2200000000000010E-002     8.1752504800077759     
   5.2500000000000005E-002     10.299775802502186     
   5.2800000000000000E-002     12.017776850755055     
   5.3099999999999994E-002     13.112893964399593     
   5.3400000000000003E-002     13.393774872016809     
   5.3699999999999998E-002     12.715704840517711     
   5.4000000000000006E-002     10.999028756407668     
   5.4300000000000001E-002     8.2402073593751162     
   5.4599999999999996E-002     4.5210373590068942     
   5.4900000000000004E-002     6.9297546907121088E-003
   5.5199999999999999E-002    -5.0619150860212194     
   5.5499999999999994E-002    -10.384967287157217     
   5.5800000000000002E-002    -15.624109498783060     
   5.6099999999999997E-002    -20.431048649225829     
   5.6400000000000006E-002    -24.472676172455238     
   5.6700000000000000E-002    -27.460097247658013     
   5.6999999999999995E-002    -29.171649014191043     
   5.7300000000000004E-002    -29.469557350974213     
   5.7599999999999998E-002    -28.310994143911962     
   5.7900000000000007E-002    -25.750958515830352     
   5.8200000000000002E-002    -21.933010247547681     
   5.8499999999999996E-002    -17.078660465505635     
   5.8800000000000005E-002    -11.467618060303751     
   5.9100000000000000E-002    -5.4118228524213645     
   5.9400000000000008E-002    0.76498246637931278     
   5.9700000000000003E-002     6.7537598865481900     
   6.0000000000000012E-002     12.279846035383827     
   6.0300000000000006E-002     17.118751437959986     
   6.0600000000000001E-002     21.106282065993323     
   6.0900000000000010E-002     24.143227236512832     
   6.1200000000000004E-002     26.195463080728096     
   6.1500000000000013E-002     27.283773349402118     
   6.1800000000000008E-002     27.477614854296156     
   6.2100000000000002E-002     26.882542325361733     
   6.2399999999999997E-002     25.623565839136816     
   6.2700000000000006E-002     23.835916205333969     
   6.3000000000000000E-002     21.653478565393602     
   6.3300000000000009E-002     19.197584455385851     
   6.3600000000000004E-002     16.573242718397996     
   6.3899999999999998E-002     13.866545310439925     
   6.4199999999999993E-002     11.139597863327108     
   6.4500000000000002E-002     8.4388014024168321     
   6.4800000000000010E-002     5.7925032154362714     
   6.5100000000000005E-002     3.2158854459448607     
   6.5400000000000000E-002    0.72115942492556018     
   6.5700000000000008E-002    -1.6864703849590206     
   6.5999999999999989E-002    -3.9978856766312090     
   6.6299999999999998E-002    -6.1999001979528252     
   6.6600000000000006E-002    -8.2732486646573520     
   6.6900000000000001E-002    -10.192597087179941     
   6.7199999999999996E-002    -11.923448632581731     
   6.7500000000000004E-002    -13.427553404169895     
   6.7800000000000013E-002    -14.666285975589666     
   6.8099999999999994E-002    -15.596754645471453     
   6.8400000000000002E-002    -16.186390533461161     
   6.8700000000000011E-002    -16.407980450525169     
   6.8999999999999992E-002    -16.245650448205136     
   6.9300000000000000E-002    -15.700320378750735     
   6.9600000000000009E-002    -14.788136454681915     
   6.9900000000000004E-002    -13.540598578602035     
   7.0199999999999999E-002    -12.008792958033590     
   7.0500000000000007E-002    -10.254531965303119     
   7.0800000000000016E-002    -8.3510848414454912     
   7.1099999999999997E-002    -6.3799526903301178     
   7.1400000000000005E-002    -4.4204751249013805     
   7.1700000000000000E-002    -2.5523589232559849     
   7.1999999999999995E-002   -0.84485199047837933     
   7.2300000000000003E-002    0.64582778290235421     
   7.2600000000000012E-002     1.8762720813673599     
   7.2900000000000006E-002     2.8256935747923273     
   7.3200000000000001E-002     3.4877810982980799     
   7.3499999999999996E-002     3.8789328403567707     
   7.3800000000000004E-002     4.0291317418289463     
   7.4099999999999999E-002     3.9838641556122329     
   7.4400000000000008E-002     3.7993153946170821     
   7.4700000000000003E-002     3.5347148866300619     
   7.5000000000000011E-002     3.2519265268619826     
   7.5299999999999992E-002     3.0087662113614693     
   7.5600000000000001E-002     2.8510823636659950     
   7.5900000000000009E-002     2.8151902438547736     
   7.6200000000000004E-002     2.9214389550033468     
   7.6499999999999999E-002     3.1703037763883786     
   7.6800000000000007E-002     3.5500861809732673     
   7.7099999999999988E-002     4.0296283681553664     
   7.7399999999999997E-002     4.5663267219224597     
   7.7700000000000005E-002     5.1105436174123824     
   7.8000000000000014E-002     5.6038113851168996     
   7.8299999999999995E-002     5.9937206053771543     
   7.8600000000000003E-002     6.2294397698790762     
   7.8900000000000012E-002     6.2710069301554636     
   7.9199999999999993E-002     6.0926046052118803     
   7.9500000000000001E-002     5.6830155388633727     
   7.9800000000000010E-002     5.0477507914313415     
   8.0100000000000018E-002     4.2087417788984043     
   8.0399999999999999E-002     3.2018966851900261     
   8.0700000000000008E-002     2.0756863120001174     
   8.1000000000000003E-002    0.88710159540828526     
   8.1299999999999997E-002   -0.30382639590706761     
   8.1600000000000006E-002    -1.4341993756953606     
   8.1900000000000014E-002    -2.4480719475700115     
   8.2199999999999995E-002    -3.2951956756322476     
   8.2500000000000004E-002    -3.9356591980291231     
   8.2799999999999999E-002    -4.3451935757889144     
   8.3100000000000007E-002    -4.5120522836742092     
   8.3400000000000002E-002    -4.4411095783881622     
   8.3700000000000011E-002    -4.1513184949668736     
   8.4000000000000005E-002    -3.6755556865604877     
   8.4300000000000000E-002    -3.0579753244381545     
   8.4599999999999995E-002    -2.3502305554516436     
   8.4900000000000003E-002    -1.6082699668651383     
   8.5199999999999998E-002   -0.88848040439312381     
   8.5500000000000007E-002   -0.24301423520795612     
   8.5800000000000001E-002    0.28409042433387233     
   8.6100000000000010E-002    0.65727325071110421     
   8.6399999999999991E-002    0.85817607439905885     
   8.6699999999999999E-002    0.87972479749588683     
   8.7000000000000008E-002    0.73089728540031274     
   8.7300000000000003E-002    0.43390409696832133     
   8.7599999999999997E-002     2.1707568130788536E-002
   8.7900000000000006E-002   -0.46411560797819418     
   8.8200000000000014E-002   -0.97797678826560608     
   8.8499999999999995E-002    -1.4739813274247040     
   8.8800000000000004E-002    -1.9099759657420003     
   8.9100000000000013E-002    -2.2499585937283619     
   8.9399999999999993E-002    -2.4686214957548844     
   8.9700000000000002E-002    -2.5502544212755471     
   9.0000000000000011E-002    -2.4910160989706536     
   9.0299999999999991E-002    -2.2982704952764879     
   9.0600000000000000E-002    -1.9872406387464014     
   9.0900000000000009E-002    -1.5818308177343330     
   9.1200000000000017E-002    -1.1086743900809055     
   9.1499999999999998E-002   -0.59729278302490596     
   9.1800000000000007E-002    -7.5618728440295269E-002
   9.2100000000000001E-002    0.43041255991744232     
   9.2399999999999996E-002    0.89898459193750169     
   9.2700000000000005E-002     1.3128747319932392     
   9.3000000000000013E-002     1.6596232188851148     
   9.3300000000000008E-002     1.9306646073574827     
   9.3600000000000003E-002     2.1218856522171814     
   9.3899999999999997E-002     2.2317581488074514     
   9.4200000000000006E-002     2.2601294657504400     
   9.4500000000000001E-002     2.2113444780129807     
   9.4800000000000009E-002     2.0889137861024381     
   9.5100000000000004E-002     1.8996743523034874     
   9.5399999999999999E-002     1.6540664657602235     
   9.5699999999999993E-002     1.3614713803947562     
   9.6000000000000002E-002     1.0376147700359275     
   9.6300000000000011E-002    0.69811622112589233     
   9.6600000000000005E-002    0.36095772200620896     
   9.6900000000000000E-002     4.4778745650891252E-002
   9.7200000000000009E-002   -0.23218771439839922     
   9.7499999999999989E-002   -0.45578668009510792     
   9.7799999999999998E-002   -0.61281104739342640     
   9.8100000000000007E-002   -0.69801685829764004     
   9.8400000000000015E-002   -0.71104628592754837     
   9.8699999999999996E-002   -0.65722366419939970     
   9.9000000000000005E-002   -0.54868281019255161     
   9.9300000000000013E-002   -0.40219578361271024     
   9.9599999999999994E-002   -0.23643452349798366     
   9.9900000000000003E-002    -7.2526631233979288E-002
  0.10020000000000001          7.0231897333723856E-002
  0.10049999999999999         0.17599296603224099     
  0.10080000000000000         0.23377361066465324     
  0.10110000000000001         0.23682169843341136     
  0.10140000000000000         0.18746802027301201     
  0.10170000000000000          9.0930542713788573E-002
  0.10200000000000001         -4.0504517975937820E-002
  0.10230000000000002        -0.19290203122114996     
  0.10260000000000000        -0.34881115249056194     
  0.10290000000000001        -0.49281117192312862     
  0.10320000000000000        -0.60960902539862671     
  0.10350000000000001        -0.68748732246456346     
  0.10380000000000000        -0.71954621238325411     
  0.10410000000000001        -0.70205401722936078     
  0.10440000000000001        -0.63679120443573656     
  0.10470000000000000        -0.52928763757042019     
  0.10500000000000000        -0.38793790986677812     
  0.10530000000000000        -0.22497700468510184     
  0.10560000000000000         -5.2640515464468712E-002
  0.10590000000000001         0.11562520886751748     
  0.10620000000000000         0.26638935433999544     
  0.10650000000000001         0.38852810102336521     
  0.10679999999999999         0.47361028079797451     
  0.10710000000000000         0.51351284251645035     
  0.10740000000000001         0.50685421491719862     
  0.10770000000000000         0.45261130552247197     
  0.10800000000000000         0.35482404487896041     
  0.10830000000000001         0.22104449297179263     
  0.10859999999999999          5.9567072885713210E-002
  0.10890000000000000        -0.11659849864196864     
  0.10920000000000001        -0.29502319133494692     
  0.10950000000000001        -0.46254599071502667     
  0.10979999999999999        -0.60653037487664141     
  0.11009999999999999        -0.71559692574493505     
  0.11040000000000001        -0.78249276213509378     
  0.11070000000000001        -0.80133859637043570     
  0.11100000000000000        -0.76987560768157903     
  0.11130000000000000        -0.69094115662338695     
  0.11160000000000002        -0.56896368689327181     
  0.11190000000000001        -0.41175232814179930     
  0.11220000000000001        -0.22936827101930157     
  0.11250000000000000         -3.3787374077940316E-002
  0.11280000000000000         0.16439290661745343     
  0.11309999999999999         0.35318512758132137     
  0.11340000000000001         0.52211392807777990     
  0.11369999999999998         0.66387213650828070     
  0.11400000000000000         0.77022465066931867     
  0.11430000000000000         0.83878395453292010     
  0.11460000000000002         0.86701747949252983     
  0.11489999999999999         0.85503785681391486     
  0.11520000000000001         0.80629136865075457     
  0.11550000000000001         0.72531880945084948     
  0.11580000000000000         0.61703802027246391     
  0.11609999999999999         0.48988732520672285     
  0.11640000000000002         0.35182002636992321     
  0.11670000000000001         0.20982933197729164     
  0.11700000000000001          7.4316842248254855E-002
  0.11730000000000000         -4.8402997912454088E-002
  0.11760000000000000        -0.15124274527930703     
  0.11789999999999999        -0.22888571475319969     
  0.11820000000000001        -0.27818410264805671     
  0.11850000000000001        -0.29722973338803871     
  0.11880000000000000        -0.28766030768231371     
  0.11910000000000000        -0.25121407949979457     
  0.11940000000000002        -0.19321423090882101     
  0.11970000000000001        -0.11925724538394875     
  0.12000000000000001         -3.6124218884949821E-002
  0.12030000000000000          4.9082937267556040E-002
  0.12060000000000000         0.12973282550016133     
  0.12089999999999999         0.19967367826693525     
  0.12119999999999999         0.25464672159430612     
  0.12150000000000001         0.29078607948630852     
  0.12180000000000001         0.30709629392132970     
  0.12210000000000000         0.30190724544451919     
  0.12239999999999999         0.27790026260217138     
  0.12270000000000002         0.23575567770533101     
  0.12300000000000001         0.17867029810315838     
  0.12330000000000001         0.11078707451978795     
  0.12360000000000000          3.4905273193805438E-002
  0.12390000000000000         -4.4128879965391228E-002
  0.12419999999999999        -0.12260762488752089     
  0.12450000000000001        -0.19614206635245302     
  0.12480000000000001        -0.26132118553127076     
  0.12509999999999999        -0.31484043239655901     
  0.12540000000000001        -0.35369577183613654     
  0.12570000000000003        -0.37639677715056247     
  0.12600000000000000        -0.38199630203316975     
  0.12630000000000002        -0.37088459057404066     
  0.12659999999999999        -0.34339201010679327     
  0.12690000000000001        -0.30382620344843853     
  0.12719999999999998        -0.25298028256427235     
  0.12750000000000000        -0.19555149900539373     
  0.12780000000000002        -0.13543072561654310     
  0.12809999999999999         -7.5646512842452954E-002
  0.12840000000000001         -1.9767215994719953E-002
  0.12869999999999998          2.9814899863420702E-002
  0.12900000000000000          7.0928086338323967E-002
  0.12930000000000003         0.10298224101635861     
  0.12959999999999999         0.12484623022380004     
  0.12990000000000002         0.13705849596361436     
  0.13019999999999998         0.14068761698648097     
  0.13050000000000000         0.13573198302790726     
  0.13080000000000003         0.12416120254555618     
  0.13109999999999999         0.10688796245449467     
  0.13140000000000002          8.5436851257778487E-002
  0.13169999999999998          6.1221562008107341E-002
  0.13200000000000001          3.6717273978521245E-002
  0.13229999999999997          1.2081151917988267E-002
  0.13260000000000000         -9.9303331043843271E-003
  0.13290000000000002         -2.8613599137525217E-002
  0.13319999999999999         -4.3823612995317951E-002
  0.13350000000000001         -5.3618228649528865E-002
  0.13380000000000003         -5.9940015772261851E-002
  0.13410000000000000         -6.2563161462413516E-002
  0.13440000000000002         -6.3652421467940423E-002
  0.13469999999999999         -6.3661089260196896E-002
  0.13500000000000001         -6.5220742204200793E-002
  0.13529999999999998         -6.9351173711317604E-002
  0.13560000000000000         -7.6224588231303583E-002
  0.13590000000000002         -8.7506845092573338E-002
  0.13619999999999999        -0.10194430148442815     
  0.13650000000000001        -0.11773128043610583     
  0.13680000000000003        -0.13447975475342958     
  0.13710000000000000        -0.14962360046831466     
  0.13740000000000002        -0.16010511313448561     
  0.13769999999999999        -0.16552704480718561     
  0.13800000000000001        -0.16374290645281464     
  0.13829999999999998        -0.15289975855821408     
  0.13860000000000000        -0.13432088085024282     
  0.13890000000000002        -0.10707156921526174     
  0.13919999999999999         -7.2495501493777911E-002
  0.13950000000000001         -3.2389982310820846E-002
  0.13979999999999998          1.1636122812861562E-002
  0.14010000000000000          5.7750282999224870E-002
  0.14040000000000002         0.10341659928175598     
  0.14069999999999999         0.14613664257422831     
  0.14100000000000001         0.18493947690044546     
  0.14130000000000004         0.21594671511845906     
  0.14160000000000000         0.23901914645995348     
  0.14189999999999997         0.25213683085541055     
  0.14219999999999999         0.25433073581245175     
  0.14250000000000002         0.24583833511717923     
  0.14279999999999998         0.22718376550225594     
  0.14310000000000000         0.19894826824654060     
  0.14339999999999997         0.16354286559970296     
  0.14369999999999999         0.12368617073773708     
  0.14400000000000002          8.1536542366246051E-002
  0.14429999999999998          4.0478087167424348E-002
  0.14460000000000001          3.3314522661690004E-003
  0.14490000000000003         -2.8429392284061220E-002
  0.14520000000000000         -5.2170711941539466E-002
  0.14550000000000002         -6.7291352169730589E-002
  0.14579999999999999         -7.3939921389098634E-002
  0.14610000000000001         -7.2631879424504248E-002
  0.14640000000000003         -6.4156582159478351E-002
  0.14670000000000000         -5.1270281125586500E-002
  0.14699999999999996         -3.4898603773487073E-002
  0.14729999999999999         -1.6996749297440553E-002
  0.14760000000000001         -5.8077243162186695E-005
  0.14789999999999998          1.5577760569265969E-002
  0.14820000000000000          2.8190321761485344E-002