  -1.4999999999999999E-002     0.0000000000000000     
  -1.4700000000000000E-002     0.0000000000000000     
  -1.4400000000000000E-002     0.0000000000000000     
  -1.4100000000000000E-002     0.0000000000000000     
  -1.3800000000000000E-002     0.0000000000000000     
  -1.3500000000000000E-002     0.0000000000000000     
  -1.3200000000000000E-002     0.0000000000000000     
  -1.2899999999999998E-002     0.0000000000000000     
  -1.2600000000000000E-002     0.0000000000000000     
  -1.2299999999999998E-002     0.0000000000000000     
  -1.2000000000000000E-002     0.0000000000000000     
  -1.1699999999999999E-002     0.0000000000000000     
  -1.1399999999999999E-002     3.1090799116479897E-050
  -1.1099999999999999E-002     1.3253711166028657E-048
  -1.0799999999999999E-002     5.6334450228819473E-036
  -1.0499999999999999E-002    -1.2510099359355858E-034
  -1.0199999999999999E-002    -8.0500758032019186E-034
  -9.8999999999999991E-003     9.7262759744686300E-033
  -9.5999999999999992E-003    -3.6546084127322188E-033
  -9.2999999999999992E-003    -2.5138617858960177E-031
  -8.9999999999999993E-003     4.1384478882547130E-031
  -8.6999999999999994E-003     3.9365080529135858E-030
  -8.3999999999999995E-003    -9.3736851894181114E-030
  -8.0999999999999996E-003    -4.0940834311241812E-029
  -7.7999999999999988E-003     1.1529329661580629E-028
  -7.4999999999999997E-003     3.2172610849738079E-028
  -7.1999999999999998E-003    -8.9923424917954912E-028
  -6.8999999999999981E-003    -2.3104292268055467E-027
  -6.5999999999999982E-003     4.8801977373130940E-027
  -6.3000000000000000E-003     1.7371939635192002E-026
  -6.0000000000000001E-003    -2.7516171875054292E-026
  -5.6999999999999985E-003    -8.5161915105011514E-026
  -5.3999999999999986E-003     6.5522670600695324E-026
  -5.1000000000000004E-003     4.3332193079848027E-025
  -4.7999999999999987E-003     7.0469405441082281E-026
  -4.5000000000000005E-003    -2.3837820019424683E-024
  -4.1999999999999989E-003     1.0892764998324662E-024
  -3.8999999999999990E-003     1.9674297848376971E-024
  -3.5999999999999990E-003     5.5893128409358614E-024
  -3.2999999999999991E-003     7.5824230982195399E-024
  -2.9999999999999992E-003    -6.1988346210369866E-023
  -2.6999999999999993E-003     4.0132243887765389E-023
  -2.3999999999999994E-003    -2.5008037359937354E-023
  -2.0999999999999977E-003     2.1474104254013128E-022
  -1.7999999999999995E-003     3.8198750634094840E-022
  -1.4999999999999979E-003    -2.0286894028325829E-021
  -1.1999999999999997E-003     1.0535637523548301E-021
  -8.9999999999999976E-004     2.4632688374203954E-021
  -5.9999999999999810E-004    -3.0988759954404203E-021
  -2.9999999999999992E-004     6.2939890592442067E-021
   0.0000000000000000         -5.3305724648890991E-021
   3.0000000000000165E-004    -2.3533368252890522E-020
   5.9999999999999984E-004     2.0161734145646671E-020
   9.0000000000000149E-004     5.2647669254296084E-020
   1.2000000000000031E-003    -2.7163533339723577E-020
   1.5000000000000013E-003    -2.4499087919651663E-020
   1.8000000000000030E-003    -5.9028883285059355E-020
   2.1000000000000012E-003    -3.8191500897056309E-019
   2.3999999999999994E-003     8.2826550357539163E-019
   2.7000000000000010E-003     1.0407792915675099E-018
   2.9999999999999992E-003    -3.1820044406889272E-018
   3.3000000000000008E-003     7.8136604267734481E-019
   3.6000000000000025E-003     5.7864780897081813E-018
   3.9000000000000007E-003    -1.2630804926401504E-017
   4.2000000000000023E-003    -2.2788577712701300E-019
   4.5000000000000005E-003     4.5324683537703057E-017
   4.7999999999999987E-003    -3.4965759235214209E-017
   5.1000000000000004E-003    -9.5951027029850461E-017
   5.4000000000000020E-003     1.3400777881120120E-016
   5.7000000000000037E-003     1.0504087176698758E-016
   5.9999999999999984E-003    -3.2439064188269205E-016
   6.3000000000000000E-003     8.5175468520017674E-017
   6.6000000000000017E-003     5.9139691513300419E-016
   6.9000000000000034E-003    -6.8664565566993531E-016
   7.2000000000000015E-003    -8.4067642863058927E-016
   7.5000000000000032E-003     1.7238876361909316E-015
   7.8000000000000014E-003     8.8695821081693760E-016
   8.0999999999999996E-003    -2.6727063850738412E-015
   8.4000000000000012E-003    -5.4855244039869007E-016
   8.7000000000000029E-003     2.6088206893042984E-015
   9.0000000000000011E-003    -1.1043684950030735E-016
   9.2999999999999992E-003    -1.6220746560418483E-015
   9.6000000000000009E-003     3.6738974053094785E-016
   9.8999999999999991E-003     2.5106313426596979E-015
   1.0200000000000001E-002     2.3514188833716184E-015
   1.0500000000000002E-002    -9.2397881588729471E-015
   1.0800000000000004E-002    -1.6038308284955828E-014
   1.1099999999999999E-002     2.2029356183444568E-014
   1.1400000000000000E-002     5.9801224174735091E-014
   1.1700000000000002E-002    -4.4367319911517115E-014
   1.2000000000000004E-002    -1.6039199593715256E-013
   1.2300000000000002E-002     1.2768264072107316E-013
   1.2600000000000000E-002     3.1045027403749954E-013
   1.2900000000000002E-002    -4.3509108298068392E-013
   1.3200000000000000E-002    -3.6967885013687531E-013
   1.3500000000000002E-002     1.1960657361656086E-012
   1.3800000000000003E-002    -2.0454693003610252E-014
   1.4100000000000001E-002    -2.4079142285330124E-012
   1.4400000000000000E-002     1.3363255636446611E-012
   1.4700000000000001E-002     3.4498929668350404E-012
   1.4999999999999999E-002    -3.9495208076423931E-012
   1.5300000000000001E-002    -3.0164629517731981E-012
   1.5600000000000003E-002     8.6936596335780355E-012
   1.5899999999999997E-002    -2.0102408536684695E-012
   1.6199999999999999E-002    -1.9141417808819134E-011
   1.6500000000000001E-002     2.7004557155418155E-011
   1.6800000000000002E-002     3.9976711834763301E-011
   1.7100000000000004E-002    -1.4195042858899297E-010
   1.7400000000000006E-002    -4.0996895127141116E-011
   1.7700000000000000E-002     5.9869427736155944E-010
   1.8000000000000002E-002    -2.0868818069003788E-010
   1.8300000000000004E-002    -2.2090385354079653E-009
   1.8600000000000005E-002     1.6850597207659804E-009
   1.8900000000000000E-002     7.7166645934992963E-009
   1.9200000000000002E-002    -7.4716653048536012E-009
   1.9500000000000003E-002    -2.7977950024186213E-008
   1.9799999999999998E-002     2.1392388076833461E-008
   2.0100000000000000E-002     9.9006538130309507E-008
   2.0400000000000001E-002    -4.2910613136432714E-008
   2.0700000000000003E-002    -3.7855694329921682E-007
   2.0999999999999998E-002     9.0184115105329678E-009
   2.1299999999999999E-002     2.4967282371443158E-006
   2.1600000000000001E-002     7.4923460230246783E-006
   2.1900000000000003E-002     1.3866748180980158E-005
   2.2200000000000004E-002     2.0415421268037025E-005
   2.2500000000000006E-002     2.7804945979546741E-005
   2.2800000000000001E-002     3.8485561298962687E-005
   2.3100000000000002E-002     5.4695522745129671E-005
   2.3400000000000004E-002     7.7969704336722557E-005
   2.3699999999999999E-002     1.1196539549267205E-004
   2.4000000000000000E-002     1.6422266448784704E-004
   2.4300000000000002E-002     2.4195627854902818E-004
   2.4599999999999997E-002     3.4653848292768875E-004
   2.4900000000000005E-002     4.7567721954906370E-004
   2.5200000000000000E-002     6.3058888332217643E-004
   2.5499999999999995E-002     8.1658285759372005E-004
   2.5800000000000003E-002     1.0354376191286426E-003
   2.6099999999999998E-002     1.2774435469091929E-003
   2.6400000000000007E-002     1.5148027557386559E-003
   2.6700000000000002E-002     1.6949749124934579E-003
   2.6999999999999996E-002     1.7383015482831325E-003
   2.7300000000000005E-002     1.5359219915297968E-003
   2.7600000000000000E-002     9.3436288916898811E-004
   2.7900000000000008E-002    -2.8664246431504050E-004
   2.8200000000000003E-002    -2.4175906493034988E-003
   2.8499999999999998E-002    -5.8055314149837904E-003
   2.8800000000000006E-002    -1.0856725906495404E-002
   2.9100000000000001E-002    -1.8060405810790915E-002
   2.9400000000000003E-002    -2.7993958087459976E-002
   2.9700000000000004E-002    -4.1286545178578368E-002
   3.0000000000000006E-002    -5.8561827270790130E-002
   3.0300000000000001E-002    -8.0389578222609961E-002
   3.0600000000000002E-002   -0.10725089693888547     
   3.0900000000000004E-002   -0.13949906015572452     
   3.1199999999999999E-002   -0.17728933051747950     
   3.1500000000000007E-002   -0.22049520459679547     
   3.1800000000000002E-002   -0.26865039522155720     
   3.2099999999999997E-002   -0.32095034394501687     
   3.2400000000000005E-002   -0.37626199620968692     
   3.2700000000000000E-002   -0.43311016678307918     
   3.3000000000000002E-002   -0.48972760766472667     
   3.3300000000000003E-002   -0.54414226929362119     
   3.3599999999999998E-002   -0.59427269778743119     
   3.3900000000000000E-002   -0.63804003207564841     
   3.4200000000000001E-002   -0.67348053747570447     
   3.4500000000000003E-002   -0.69882687662837106     
   3.4799999999999998E-002   -0.71256962149448544     
   3.5099999999999999E-002   -0.71344574965388452     
   3.5400000000000001E-002   -0.70044287623404355     
   3.5699999999999996E-002   -0.67272242351406109     
   3.6000000000000004E-002   -0.62944074736759292     
   3.6299999999999999E-002   -0.56974144826785211     
   3.6600000000000008E-002   -0.49260263436308355     
   3.6900000000000002E-002   -0.39685578634703722     
   3.7199999999999997E-002   -0.28125406438146183     
   3.7500000000000006E-002   -0.14460580759903474     
   3.7800000000000000E-002     1.3893490355779395E-002
   3.8100000000000009E-002    0.19434480731190582     
   3.8400000000000004E-002    0.39573944649903858     
   3.8699999999999998E-002    0.61544163838967625     
   3.9000000000000007E-002    0.84891310016965316     
   3.9300000000000002E-002     1.0895935656680129     
   3.9600000000000003E-002     1.3288053731997291     
   3.9900000000000005E-002     1.5560278257439604     
   4.0200000000000000E-002     1.7596452888781848     
   4.0500000000000001E-002     1.9275998616448546     
   4.0800000000000003E-002     2.0485902644386673     
   4.1100000000000005E-002     2.1132622630269453     
   4.1399999999999999E-002     2.1151338518756577     
   4.1700000000000008E-002     2.0517817442856852     
   4.2000000000000003E-002     1.9254511279356836     
   4.2299999999999997E-002     1.7432347172533620     
   4.2600000000000006E-002     1.5168379111257324     
   4.2900000000000001E-002     1.2618392184489642     
   4.3200000000000002E-002    0.99623667958730833     
   4.3500000000000004E-002    0.73899512232530007     
   4.3799999999999999E-002    0.50822673001910357     
   4.4100000000000000E-002    0.31903254867289027     
   4.4400000000000002E-002    0.18214651105151039     
   4.4700000000000004E-002    0.10251539318528261     
   4.4999999999999998E-002     7.8464908081281884E-002
   4.5300000000000000E-002    0.10192761901703984     
   4.5600000000000002E-002    0.15891831637714363     
   4.5899999999999996E-002    0.23085945363857727     
   4.6200000000000005E-002    0.29642311723589426     
   4.6500000000000000E-002    0.33371580509306598     
   4.6799999999999994E-002    0.32268632026481597     
   4.7100000000000003E-002    0.24744153069267263     
   4.7399999999999998E-002     9.7960375318770665E-002
   4.7700000000000006E-002   -0.12823047043767088     
   4.8000000000000001E-002   -0.42551502687392534     
   4.8300000000000010E-002   -0.78027831104803980     
   4.8600000000000004E-002    -1.1718004362879775     
   4.8899999999999999E-002    -1.5737319762141668     
   4.9200000000000008E-002    -1.9565940816970890     
   4.9500000000000002E-002    -2.2902325233772167     
   4.9800000000000011E-002    -2.5463544058197169     
   5.0100000000000006E-002    -2.7018290729405785     
   5.0400000000000000E-002    -2.7404018607476162     
   5.0700000000000009E-002    -2.6546598586253314     
   5.1000000000000004E-002    -2.4472800306625535     
   5.1299999999999998E-002    -2.1305447490066678     
   5.1600000000000007E-002    -1.7259418467013685     
   5.1900000000000002E-002    -1.2628623753754253     
   5.2200000000000010E-002   -0.77556964923345739     
   5.2500000000000005E-002   -0.30105466991413204     
   5.2800000000000000E-002    0.12409559109516473     
   5.3099999999999994E-002    0.46711601236652467     
   5.3400000000000003E-002    0.70129956962171902     
   5.3699999999999998E-002    0.80853637450690796     
   5.4000000000000006E-002    0.78109266470003014     
   5.4300000000000001E-002    0.62181158207122456     
   5.4599999999999996E-002    0.34475815463234705     
   5.4900000000000004E-002    -2.6162242385956731E-002
   5.5199999999999999E-002   -0.45906904263234638     
   5.5499999999999994E-002   -0.91613976703417288     
   5.5800000000000002E-002    -1.3567482829973809     
   5.6099999999999997E-002    -1.7408061738928091     
   5.6400000000000006E-002    -2.0315357036524415     
   5.6700000000000000E-002    -2.1988051736420662     
   5.6999999999999995E-002    -2.2216168206196967     
   5.7300000000000004E-002    -2.0895245728225040     
   5.7599999999999998E-002    -1.8037912145962640     
   5.7900000000000007E-002    -1.3772939726164095     
   5.8200000000000002E-002   -0.83335882777521364     
   5.8499999999999996E-002   -0.20389888321884617     
   5.8800000000000005E-002    0.47323768483158962     
   5.9100000000000000E-002     1.1576412501260176     
   5.9400000000000008E-002     1.8095626655817996     
   5.9700000000000003E-002     2.3932801510024317     
   6.0000000000000012E-002     2.8800343451178487     
   6.0300000000000006E-002     3.2498036895478202     
   6.0600000000000001E-002     3.4930831507177991     
   6.0900000000000010E-002     3.6106764380074132     
   6.1200000000000004E-002     3.6128758437949609     
   6.1500000000000013E-002     3.5179346955387460     
   6.1800000000000008E-002     3.3493484301372076     
   6.2100000000000002E-002     3.1334906736535544     
   6.2399999999999997E-002     2.8962677516322795     
   6.2700000000000006E-002     2.6603671001657654     
   6.3000000000000000E-002     2.4436422184292068     
   6.3300000000000009E-002     2.2567528014019893     
   6.3600000000000004E-002     2.1032782272175163     
   6.3899999999999998E-002     1.9796459123730243     
   6.4199999999999993E-002     1.8757738498121457     
   6.4500000000000002E-002     1.7773714675816792     
   6.4800000000000010E-002     1.6674342749304985     
   6.5100000000000005E-002     1.5286443798838150     
   6.5400000000000000E-002     1.3459214490015647     
   6.5700000000000008E-002     1.1070534436117720     
   6.5999999999999989E-002    0.80568245515367631     
   6.6299999999999998E-002    0.44152440783214186     
   6.6600000000000006E-002     2.0059486926678177E-002
   6.6900000000000001E-002   -0.44668368745754494     
   6.7199999999999996E-002   -0.94177416200123798     
   6.7500000000000004E-002    -1.4445626070872390     
   6.7800000000000013E-002    -1.9316460626327399     
   6.8099999999999994E-002    -2.3796771498959743     
   6.8400000000000002E-002    -2.7665344384619721     
   6.8700000000000011E-002    -3.0730296425347166     
   6.8999999999999992E-002    -3.2849193970524726     
   6.9300000000000000E-002    -3.3937105164302319     
   6.9600000000000009E-002    -3.3973773960856275     
   6.9900000000000004E-002    -3.3017384030597370     
   7.0199999999999999E-002    -3.1198641210347144     
   7.0500000000000007E-002    -2.8715482995147656     
   7.0800000000000016E-002    -2.5833543455550050     
   7.1099999999999997E-002    -2.2868119255244896     
   7.1400000000000005E-002    -2.0162876486701715     
   7.1700000000000000E-002    -1.8084095248018033     
   7.1999999999999995E-002    -1.6977266728939446     
   7.2300000000000003E-002    -1.7147147112616394     
   7.2600000000000012E-002    -1.8822741036720869     
   7.2900000000000006E-002    -2.2115841791555120     
   7.3200000000000001E-002    -2.6998046575956161     
   7.3499999999999996E-002    -3.3264478723056561     
   7.3800000000000004E-002    -4.0515024156383665     
   7.4099999999999999E-002    -4.8158700410501583     
   7.4400000000000008E-002    -5.5418270028933314     
   7.4700000000000003E-002    -6.1378076870671361     
   7.5000000000000011E-002    -6.5046251904801480     
   7.5299999999999992E-002    -6.5433076632924871     
   7.5600000000000001E-002    -6.1658137942173648     
   7.5900000000000009E-002    -5.3064187288856433     
   7.6200000000000004E-002    -3.9324295551322317     
   7.6499999999999999E-002    -2.0536662568927118     
   7.6800000000000007E-002    0.27068947315829817     
   7.7099999999999988E-002     2.9302011898980393     
   7.7399999999999997E-002     5.7658842234808665     
   7.7700000000000005E-002     8.5783743770968623     
   7.8000000000000014E-002     11.142104773342135     
   7.8299999999999995E-002     13.223073761392840     
   7.8600000000000003E-002     14.600387467493155     
   7.8900000000000012E-002     15.088478977399122     
   7.9199999999999993E-002     14.557598984020693     
   7.9500000000000001E-002     12.951945137463595     
   7.9800000000000010E-002     10.299964589323800     
   8.0100000000000018E-002     6.7188667799729274     
   8.0399999999999999E-002     2.4115337722137111     
   8.0700000000000008E-002    -2.3482569332792633     
   8.1000000000000003E-002    -7.2328881486145269     
   8.1299999999999997E-002    -11.887413715849917     
   8.1600000000000006E-002    -15.959003441823429     
   8.1900000000000014E-002    -19.123316962804026     
   8.2199999999999995E-002    -21.114251471072823     
   8.2500000000000004E-002    -21.745978745612831     
   8.2799999999999999E-002    -20.925248505055634     
   8.3100000000000007E-002    -18.663190128488143     
   8.3400000000000002E-002    -15.071198504036067     
   8.3700000000000011E-002    -10.350983390445874     
   8.4000000000000005E-002    -4.7811149792928029     
   8.4300000000000000E-002     1.3085206310137627     
   8.4599999999999995E-002     7.5609858914779640     
   8.4900000000000003E-002     13.616578789265800     
   8.5199999999999998E-002     19.141074245661962     
   8.5500000000000007E-002     23.844142309840407     
   8.5800000000000001E-002     27.497169114380881     
   8.6100000000000010E-002     29.944551240963875     
   8.6399999999999991E-002     31.106885761044989     
   8.6699999999999999E-002     30.981227728019473     
   8.7000000000000008E-002     29.634023450049952     
   8.7300000000000003E-002     27.190801270081149     
   8.7599999999999997E-002     23.824176249655334     
   8.7900000000000006E-002     19.736380761500360     
   8.8200000000000014E-002     15.147488518617351     
   8.8499999999999995E-002     10.279290801482038     
   8.8800000000000004E-002     5.3430884724396801     
   8.9100000000000013E-002    0.52943568466072544     
   8.9399999999999993E-002    -3.9996032384475915     
   8.9700000000000002E-002    -8.1160463882567893     
   9.0000000000000011E-002    -11.728367489598572     
   9.0299999999999991E-002    -14.779982419368785     
   9.0600000000000000E-002    -17.248930917932661     
   9.0900000000000009E-002    -19.142857639275686     
   9.1200000000000017E-002    -20.490588345006223     
   9.1499999999999998E-002    -21.340270239814675     
   9.1800000000000007E-002    -21.748522971471754     
   9.2100000000000001E-002    -21.773154465869382     
   9.2399999999999996E-002    -21.472239678044097     
   9.2700000000000005E-002    -20.893729355717976     
   9.3000000000000013E-002    -20.073842144332747     
   9.3300000000000008E-002    -19.041296994389281     
   9.3600000000000003E-002    -17.809836353604407     
   9.3899999999999997E-002    -16.386139757343518     
   9.4200000000000006E-002    -14.773245612209498     
   9.4500000000000001E-002    -12.971890154633943     
   9.4800000000000009E-002    -10.986407834344337     
   9.5100000000000004E-002    -8.8305697090846920     
   9.5399999999999999E-002    -6.5260403990882683     
   9.5699999999999993E-002    -4.1066014343656532     
   9.6000000000000002E-002    -1.6188263369791014     
   9.6300000000000011E-002    0.88237244245033297     
   9.6600000000000005E-002     3.3339194774282048     
   9.6900000000000000E-002     5.6681693337460990     
   9.7200000000000009E-002     7.8195547529778082     
   9.7499999999999989E-002     9.7257285579915536     
   9.7799999999999998E-002     11.333958278263152     
   9.8100000000000007E-002     12.603417114064182     
   9.8400000000000015E-002     13.507265807613688     
   9.8699999999999996E-002     14.034278657814536     
   9.9000000000000005E-002     14.191304000377894     
   9.9300000000000013E-002     13.999047059436661     
   9.9599999999999994E-002     13.493139970423458     
   9.9900000000000003E-002     12.721852961622607     
  0.10020000000000001          11.739514954393158     
  0.10049999999999999          10.607579771496685     
  0.10080000000000000          9.3881277997063872     
  0.10110000000000001          8.1400474776484248     
  0.10140000000000000          6.9159706632172480     
  0.10170000000000000          5.7606900110947947     
  0.10200000000000001          4.7055661491384733     
  0.10230000000000002          3.7703038971327221     
  0.10260000000000000          2.9620236263060402     
  0.10290000000000001          2.2740810871839869     
  0.10320000000000000          1.6897440628923406     
  0.10350000000000001          1.1845127780322668     
  0.10380000000000000         0.72767999068546463     
  0.10410000000000001         0.28738135392382880     
  0.10440000000000001        -0.16606965939419896     
  0.10470000000000000        -0.65769175763635401     
  0.10500000000000000         -1.2050761649852724     
  0.10530000000000000         -1.8153238066940083     
  0.10560000000000000         -2.4860016211172087     
  0.10590000000000001         -3.2031671274432263     
  0.10620000000000000         -3.9438736091395654     
  0.10650000000000001         -4.6765172513172191     
  0.10679999999999999         -5.3649738226565056     
  0.10710000000000000         -5.9707177396919837     
  0.10740000000000001         -6.4561790006729849     
  0.10770000000000000         -6.7884439189769630     
  0.10800000000000000         -6.9417628097487842     
  0.10830000000000001         -6.9001439842559389     
  0.10859999999999999         -6.6594155939364974     
  0.10890000000000000         -6.2265118049568891     
  0.10920000000000001         -5.6212838260420117     
  0.10950000000000001         -4.8739864996231912     
  0.10979999999999999         -4.0222832873438312     
  0.11009999999999999         -3.1117757980492979     
  0.11040000000000001         -2.1899527236911154     
  0.11070000000000001         -1.3026434819693953     
  0.11100000000000000        -0.49424387981052142     
  0.11130000000000000         0.19945799182252860     
  0.11160000000000002         0.75146608515023061     
  0.11190000000000001          1.1444322586069751     
  0.11220000000000001          1.3745838062127036     
  0.11250000000000000          1.4480995840506603     
  0.11280000000000000          1.3831995408958597     
  0.11309999999999999          1.2062871051954225     
  0.11340000000000001         0.95075917839536261     
  0.11369999999999998         0.65464328744683531     
  0.11400000000000000         0.35645899564049649     
  0.11430000000000000          9.2768837061860843E-002
  0.11460000000000002        -0.10407149805637923     
  0.11489999999999999        -0.20948696130351754     
  0.11520000000000001        -0.20642413387825903     
  0.11550000000000001         -8.7883634555544501E-002
  0.11580000000000000         0.14340823493103849     
  0.11609999999999999         0.47714027299166289     
  0.11640000000000002         0.89316932727623299     
  0.11670000000000001          1.3668450762370365     
  0.11700000000000001          1.8697772898994822     
  0.11730000000000000          2.3699909358321971     
  0.11760000000000000          2.8371125586274539     
  0.11789999999999999          3.2422195992105274     
  0.11820000000000001          3.5587434051413900     
  0.11850000000000001          3.7658981669691745     
  0.11880000000000000          3.8476120874747197     
  0.11910000000000000          3.7936620157793648     
  0.11940000000000002          3.6009857033729382     
  0.11970000000000001          3.2729796612167070     
  0.12000000000000001          2.8201045046647923     
  0.12030000000000000          2.2596048116347727     
  0.12060000000000000          1.6146714388729617     
  0.12089999999999999         0.91534483059156835     
  0.12119999999999999         0.19455802963417973     
  0.12150000000000001        -0.51158328481104198     
  0.12180000000000001         -1.1655066523557791     
  0.12210000000000000         -1.7336647145161403     
  0.12239999999999999         -2.1854237218393244     
  0.12270000000000002         -2.4971336225676044     
  0.12300000000000001         -2.6560353262885879     
  0.12330000000000001         -2.6578442119705246     
  0.12360000000000000         -2.5110641936279396     
  0.12390000000000000         -2.2345935206217327     
  0.12419999999999999         -1.8560954249777242     
  0.12450000000000001         -1.4121241259078507     
  0.12480000000000001        -0.94223881095960427     
  0.12509999999999999        -0.48636997485570715     
  0.12540000000000001         -8.3791954867122737E-002
  0.12570000000000003         0.23476753296166311     
  0.12600000000000000         0.44561644545885243     
  0.12630000000000002         0.53583571329050061     
  0.12659999999999999         0.50513968096396644     
  0.12690000000000001         0.36291345762480265     
  0.12719999999999998         0.12959333109562166     
  0.12750000000000000        -0.16692286252758923     
  0.12780000000000002        -0.49396721657413789     
  0.12809999999999999        -0.81528183624177086     
  0.12840000000000001         -1.0976468757195685     
  0.12869999999999998         -1.3114647231316972     
  0.12900000000000000         -1.4331045791972665     
  0.12930000000000003         -1.4492074924904368     
  0.12959999999999999         -1.3554194624990945     
  0.12990000000000002         -1.1568347790391471     
  0.13019999999999998        -0.86943833566135942     
  0.13050000000000000        -0.51601341276544010     
  0.13080000000000003        -0.12538523518873351     
  0.13109999999999999         0.27031863632134318     
  0.13140000000000002         0.63886931306765171     
  0.13169999999999998         0.95013151952081243     
  0.13200000000000001          1.1795085036774524     
  0.13229999999999997          1.3086333912195018     
  0.13260000000000000          1.3279833262546465     
  0.13290000000000002          1.2372543249993992     
  0.13319999999999999          1.0438566754565930     
  0.13350000000000001         0.76509938849490489     
  0.13380000000000003         0.42362251457730221     
  0.13410000000000000          4.6438954450702383E-002
  0.13440000000000002        -0.33549661641341066     
  0.13469999999999999        -0.69233003301114049     
  0.13500000000000001        -0.99663107257758732     
  0.13529999999999998         -1.2229800811765628     
  0.13560000000000000         -1.3545437526266029     
  0.13590000000000002         -1.3800321320206455     
  0.13619999999999999         -1.2956432771370598     
  0.13650000000000001         -1.1066336025736474     
  0.13680000000000003        -0.82509003672971915     
  0.13710000000000000        -0.46906420465904225     
  0.13740000000000002         -6.2669114456203809E-002
  0.13769999999999999         0.36702112652959679     
  0.13800000000000001         0.79133186216008089     
  0.13829999999999998          1.1828421903295385     
  0.13860000000000000          1.5149795542133477     
  0.13890000000000002          1.7677795558949132     
  0.13919999999999999          1.9250674011456725     
  0.13950000000000001          1.9780379336983729     
  0.13979999999999998          1.9251622942571813     
  0.14010000000000000          1.7712138613451414     
  0.14040000000000002          1.5276326741202619     
  0.14069999999999999          1.2122672251762867     
  0.14100000000000001         0.84513907317944093     
  0.14130000000000004         0.45089840575898305     
  0.14160000000000000          5.3748688474004845E-002
  0.14189999999999997        -0.32259486453553521     
  0.14219999999999999        -0.65567419046060516     
  0.14250000000000002        -0.92807136578303973     
  0.14279999999999998         -1.1262175413662918     
  0.14310000000000000         -1.2414594335135756     
  0.14339999999999997         -1.2721856305676491     
  0.14369999999999999         -1.2209501914992973     
  0.14400000000000002         -1.0971782800431478     
  0.14429999999999998        -0.91393136062605052     
  0.14460000000000001        -0.68763158655621570     
  0.14490000000000003        -0.43710612892108963     
  0.14520000000000000        -0.18234722114063537     
  0.14550000000000002          5.8532211958241216E-002
  0.14579999999999999         0.26813168481762339     
  0.14610000000000001         0.43308564114182263     
  0.14640000000000003         0.54439481843404447     
  0.14670000000000000         0.59651348095118129     
  0.14699999999999996         0.58859792481887352     
  0.14729999999999999         0.52547904720154159     
  0.14760000000000001         0.41359194453596743     
  0.14789999999999998         0.26423378380237800     
  0.14820000000000000          9.0264588153850467E-002