  -1.4999999999999999E-002     0.0000000000000000     
  -1.4700000000000000E-002     0.0000000000000000     
  -1.4400000000000000E-002     0.0000000000000000     
  -1.4100000000000000E-002     0.0000000000000000     
  -1.3800000000000000E-002     0.0000000000000000     
  -1.3500000000000000E-002     0.0000000000000000     
  -1.3200000000000000E-002     0.0000000000000000     
  -1.2899999999999998E-002     0.0000000000000000     
  -1.2600000000000000E-002     0.0000000000000000     
  -1.2299999999999998E-002     0.0000000000000000     
  -1.2000000000000000E-002     0.0000000000000000     
  -1.1699999999999999E-002     0.0000000000000000     
  -1.1399999999999999E-002     0.0000000000000000     
  -1.1099999999999999E-002     0.0000000000000000     
  -1.0799999999999999E-002     0.0000000000000000     
  -1.0499999999999999E-002     0.0000000000000000     
  -1.0199999999999999E-002     0.0000000000000000     
  -9.8999999999999991E-003     0.0000000000000000     
  -9.5999999999999992E-003     0.0000000000000000     
  -9.2999999999999992E-003     0.0000000000000000     
  -8.9999999999999993E-003     0.0000000000000000     
  -8.6999999999999994E-003     0.0000000000000000     
  -8.3999999999999995E-003     0.0000000000000000     
  -8.0999999999999996E-003     0.0000000000000000     
  -7.7999999999999988E-003     0.0000000000000000     
  -7.4999999999999997E-003     0.0000000000000000     
  -7.1999999999999998E-003     0.0000000000000000     
  -6.8999999999999981E-003     0.0000000000000000     
  -6.5999999999999982E-003     0.0000000000000000     
  -6.3000000000000000E-003     0.0000000000000000     
  -6.0000000000000001E-003     0.0000000000000000     
  -5.6999999999999985E-003     0.0000000000000000     
  -5.3999999999999986E-003     0.0000000000000000     
  -5.1000000000000004E-003     0.0000000000000000     
  -4.7999999999999987E-003     0.0000000000000000     
  -4.5000000000000005E-003     0.0000000000000000     
  -4.1999999999999989E-003     0.0000000000000000     
  -3.8999999999999990E-003     0.0000000000000000     
  -3.5999999999999990E-003     0.0000000000000000     
  -3.2999999999999991E-003     0.0000000000000000     
  -2.9999999999999992E-003     0.0000000000000000     
  -2.6999999999999993E-003     0.0000000000000000     
  -2.3999999999999994E-003     0.0000000000000000     
  -2.0999999999999977E-003     0.0000000000000000     
  -1.7999999999999995E-003     0.0000000000000000     
  -1.4999999999999979E-003     0.0000000000000000     
  -1.1999999999999997E-003     0.0000000000000000     
  -8.9999999999999976E-004     0.0000000000000000     
  -5.9999999999999810E-004     0.0000000000000000     
  -2.9999999999999992E-004     0.0000000000000000     
   0.0000000000000000          0.0000000000000000     
   3.0000000000000165E-004     0.0000000000000000     
   5.9999999999999984E-004     0.0000000000000000     
   9.0000000000000149E-004     0.0000000000000000     
   1.2000000000000031E-003     0.0000000000000000     
   1.5000000000000013E-003     0.0000000000000000     
   1.8000000000000030E-003     0.0000000000000000     
   2.1000000000000012E-003     0.0000000000000000     
   2.3999999999999994E-003     0.0000000000000000     
   2.7000000000000010E-003     0.0000000000000000     
   2.9999999999999992E-003     0.0000000000000000     
   3.3000000000000008E-003     0.0000000000000000     
   3.6000000000000025E-003     0.0000000000000000     
   3.9000000000000007E-003     0.0000000000000000     
   4.2000000000000023E-003     0.0000000000000000     
   4.5000000000000005E-003     0.0000000000000000     
   4.7999999999999987E-003     0.0000000000000000     
   5.1000000000000004E-003     0.0000000000000000     
   5.4000000000000020E-003     0.0000000000000000     
   5.7000000000000037E-003     0.0000000000000000     
   5.9999999999999984E-003     0.0000000000000000     
   6.3000000000000000E-003     0.0000000000000000     
   6.6000000000000017E-003     0.0000000000000000     
   6.9000000000000034E-003     0.0000000000000000     
   7.2000000000000015E-003     0.0000000000000000     
   7.5000000000000032E-003     0.0000000000000000     
   7.8000000000000014E-003     0.0000000000000000     
   8.0999999999999996E-003     0.0000000000000000     
   8.4000000000000012E-003     0.0000000000000000     
   8.7000000000000029E-003     0.0000000000000000     
   9.0000000000000011E-003     0.0000000000000000     
   9.2999999999999992E-003     0.0000000000000000     
   9.6000000000000009E-003     0.0000000000000000     
   9.8999999999999991E-003     0.0000000000000000     
   1.0200000000000001E-002     0.0000000000000000     
   1.0500000000000002E-002     0.0000000000000000     
   1.0800000000000004E-002     0.0000000000000000     
   1.1099999999999999E-002     0.0000000000000000     
   1.1400000000000000E-002     0.0000000000000000     
   1.1700000000000002E-002     0.0000000000000000     
   1.2000000000000004E-002     0.0000000000000000     
   1.2300000000000002E-002     0.0000000000000000     
   1.2600000000000000E-002     0.0000000000000000     
   1.2900000000000002E-002     0.0000000000000000     
   1.3200000000000000E-002     0.0000000000000000     
   1.3500000000000002E-002     0.0000000000000000     
   1.3800000000000003E-002     0.0000000000000000     
   1.4100000000000001E-002     0.0000000000000000     
   1.4400000000000000E-002     0.0000000000000000     
   1.4700000000000001E-002     0.0000000000000000     
   1.4999999999999999E-002     0.0000000000000000     
   1.5300000000000001E-002     0.0000000000000000     
   1.5600000000000003E-002     0.0000000000000000     
   1.5899999999999997E-002     0.0000000000000000     
   1.6199999999999999E-002     0.0000000000000000     
   1.6500000000000001E-002     0.0000000000000000     
   1.6800000000000002E-002     0.0000000000000000     
   1.7100000000000004E-002     0.0000000000000000     
   1.7400000000000006E-002     0.0000000000000000     
   1.7700000000000000E-002     0.0000000000000000     
   1.8000000000000002E-002     0.0000000000000000     
   1.8300000000000004E-002     0.0000000000000000     
   1.8600000000000005E-002     0.0000000000000000     
   1.8900000000000000E-002     0.0000000000000000     
   1.9200000000000002E-002     0.0000000000000000     
   1.9500000000000003E-002     0.0000000000000000     
   1.9799999999999998E-002     0.0000000000000000     
   2.0100000000000000E-002     0.0000000000000000     
   2.0400000000000001E-002     0.0000000000000000     
   2.0700000000000003E-002     0.0000000000000000     
   2.0999999999999998E-002     0.0000000000000000     
   2.1299999999999999E-002     0.0000000000000000     
   2.1600000000000001E-002     0.0000000000000000     
   2.1900000000000003E-002     0.0000000000000000     
   2.2200000000000004E-002     0.0000000000000000     
   2.2500000000000006E-002     0.0000000000000000     
   2.2800000000000001E-002     0.0000000000000000     
   2.3100000000000002E-002     0.0000000000000000     
   2.3400000000000004E-002     0.0000000000000000     
   2.3699999999999999E-002     0.0000000000000000     
   2.4000000000000000E-002     3.3885401470736538E-058
   2.4300000000000002E-002     3.0087574327363489E-045
   2.4599999999999997E-002    -1.8935440271424188E-044
   2.4900000000000005E-002     9.9596718742594844E-044
   2.5200000000000000E-002     7.8801318280734087E-038
   2.5499999999999995E-002    -1.6098691492435086E-036
   2.5800000000000003E-002     2.3695528801755074E-035
   2.6099999999999998E-002    -9.5523082114741945E-035
   2.6400000000000007E-002     4.6543064312195731E-034
   2.6700000000000002E-002    -1.5279180549411317E-033
   2.6999999999999996E-002    -2.4048425269505296E-033
   2.7300000000000005E-002     4.9147286934612037E-032
   2.7600000000000000E-002    -2.6890738268135468E-031
   2.7900000000000008E-002     8.7824942030291256E-031
   2.8200000000000003E-002    -1.3260769446684613E-030
   2.8499999999999998E-002    -4.6220077094038096E-030
   2.8800000000000006E-002     4.6718737817923526E-029
   2.9100000000000001E-002    -2.2244362442600947E-028
   2.9400000000000003E-002     7.4833507804635884E-028
   2.9700000000000004E-002    -1.7872242055432559E-027
   3.0000000000000006E-002     2.0568371010277079E-027
   3.0300000000000001E-002     6.6106453294849240E-027
   3.0600000000000002E-002    -5.3577798134471660E-026
   3.0900000000000004E-002     2.1020319207941610E-025
   3.1199999999999999E-002    -5.6257834554539395E-025
   3.1500000000000007E-002     9.0450313183502440E-025
   3.1800000000000002E-002     4.2180254992771327E-025
   3.2099999999999997E-002    -9.0921254939667588E-024
   3.2400000000000005E-002     3.6471440890021728E-023
   3.2700000000000000E-002    -8.6709235875216001E-023
   3.3000000000000002E-002     9.3152500731130814E-023
   3.3300000000000003E-002     2.3221501225651793E-022
   3.3599999999999998E-002    -1.5133493751726722E-021
   3.3900000000000000E-002     4.1078183962910991E-021
   3.4200000000000001E-002    -5.2870160576924760E-021
   3.4500000000000003E-002    -6.3571259178580270E-021
   3.4799999999999998E-002     5.1682061194086814E-020
   3.5099999999999999E-002    -1.3022230844912669E-019
   3.5400000000000001E-002     1.2335261919782517E-019
   3.5699999999999996E-002     3.1386687037988816E-019
   3.6000000000000004E-002    -1.5253386299787757E-018
   3.6299999999999999E-002     2.6575155517336500E-018
   3.6600000000000008E-002     2.9214114215468872E-019
   3.6900000000000002E-002    -1.3305734739213726E-017
   3.7199999999999997E-002     3.1697212841239915E-017
   3.7500000000000006E-002    -1.5829247081624414E-017
   3.7800000000000000E-002    -1.0391552376541709E-016
   3.8100000000000009E-002     3.0246367252154549E-016
   3.8400000000000004E-002    -2.1784720258404876E-016
   3.8699999999999998E-002    -7.8744339424758389E-016
   3.9000000000000007E-002     2.4582056048267004E-015
   3.9300000000000002E-002    -1.7407998671450696E-015
   3.9600000000000003E-002    -5.8065748814753323E-015
   3.9900000000000005E-002     1.6287977520872948E-014
   4.0200000000000000E-002    -8.2067118463474802E-015
   4.0500000000000001E-002    -3.5607009771389512E-014
   4.0800000000000003E-002     7.3091353711746038E-014
   4.1100000000000005E-002    -2.4656981758078284E-014
   4.1399999999999999E-002    -5.8974281655343805E-014
   4.1700000000000008E-002     1.0274301136605368E-013
   4.2000000000000003E-002    -7.2487395389516794E-013
   4.2299999999999997E-002     2.1314868123103107E-012
   4.2600000000000006E-002     1.7456039768226045E-012
   4.2900000000000001E-002    -1.9176235684988672E-011
   4.3200000000000002E-002     1.7254890864131637E-011
   4.3500000000000004E-002     8.9781026440512602E-011
   4.3799999999999999E-002    -1.9035047750378808E-010
   4.4100000000000000E-002    -2.8038834108179730E-010
   4.4400000000000002E-002     1.1456001938411524E-009
   4.4700000000000004E-002     5.5259936723985838E-010
   4.4999999999999998E-002    -5.4252297673379581E-009
   4.5300000000000000E-002    -1.9773373181133231E-010
   4.5600000000000002E-002     2.2826678463598112E-008
   4.5899999999999996E-002    -2.7133265001769218E-009
   4.6200000000000005E-002    -9.1267621253666842E-008
   4.6500000000000000E-002    -5.1087841457824264E-009
   4.6799999999999994E-002     3.2570423821091388E-007
   4.7100000000000003E-002     1.2295212177744966E-007
   4.7399999999999998E-002    -1.0980110935999890E-006
   4.7700000000000006E-002    -9.6376855308998449E-007
   4.8000000000000001E-002     4.6349346687247937E-006
   4.8300000000000010E-002     1.5620494993731326E-005
   4.8600000000000004E-002     2.6308480421464549E-005
   4.8899999999999999E-002     3.4025407705921473E-005
   4.9200000000000008E-002     4.5600382665534578E-005
   4.9500000000000002E-002     7.0210214740234513E-005
   4.9800000000000011E-002     1.1064121589726252E-004
   5.0100000000000006E-002     1.6888467238027660E-004
   5.0400000000000000E-002     2.5572414098194577E-004
   5.0700000000000009E-002     3.8719786603041002E-004
   5.1000000000000004E-002     5.7697124482703963E-004
   5.1299999999999998E-002     8.4081328736695167E-004
   5.1600000000000007E-002     1.2047348437243647E-003
   5.1900000000000002E-002     1.7028245298094558E-003
   5.2200000000000010E-002     2.3722363517210791E-003
   5.2500000000000005E-002     3.2539135772974592E-003
   5.2800000000000000E-002     4.3921189414493295E-003
   5.3099999999999994E-002     5.8311989982718967E-003
   5.3400000000000003E-002     7.6151775988099199E-003
   5.3699999999999998E-002     9.7855214154104024E-003
   5.4000000000000006E-002     1.2364051803874345E-002
   5.4300000000000001E-002     1.5337855049771405E-002
   5.4599999999999996E-002     1.8658670953951826E-002
   5.4900000000000004E-002     2.2243923806361990E-002
   5.5199999999999999E-002     2.5961446835529426E-002
   5.5499999999999994E-002     2.9614503747615147E-002
   5.5800000000000002E-002     3.2943572204986546E-002
   5.6099999999999997E-002     3.5635079631039096E-002
   5.6400000000000006E-002     3.7335224038916245E-002
   5.6700000000000000E-002     3.7675007982135973E-002
   5.6999999999999995E-002     3.6309532909636691E-002
   5.7300000000000004E-002     3.2941066162125644E-002
   5.7599999999999998E-002     2.7358350236166975E-002
   5.7900000000000007E-002     1.9493096811970295E-002
   5.8200000000000002E-002     9.4740621319907362E-003
   5.8499999999999996E-002    -2.3561272578715054E-003
   5.8800000000000005E-002    -1.5448911701272001E-002
   5.9100000000000000E-002    -2.9065347787615315E-002
   5.9400000000000008E-002    -4.2286911693991236E-002
   5.9700000000000003E-002    -5.4114198409415205E-002
   6.0000000000000012E-002    -6.3570870836980917E-002
   6.0300000000000006E-002    -6.9835014452123659E-002
   6.0600000000000001E-002    -7.2341994431511403E-002
   6.0900000000000010E-002    -7.0941659161779747E-002
   6.1200000000000004E-002    -6.5952260099833432E-002
   6.1500000000000013E-002    -5.8238939911870929E-002
   6.1800000000000008E-002    -4.9201614122830077E-002
   6.2100000000000002E-002    -4.0748771146731921E-002
   6.2399999999999997E-002    -3.5154123130593073E-002
   6.2700000000000006E-002    -3.4852575553611140E-002
   6.3000000000000000E-002    -4.2230832387504733E-002
   6.3300000000000009E-002    -5.9304227201958250E-002
   6.3600000000000004E-002    -8.7558144985486128E-002
   6.3899999999999998E-002   -0.12761089086132063     
   6.4199999999999993E-002   -0.17906361302304735     
   6.4500000000000002E-002   -0.24032766162736943     
   6.4800000000000010E-002   -0.30862091562225091     
   6.5100000000000005E-002   -0.38000230128014184     
   6.5400000000000000E-002   -0.44949031602876127     
   6.5700000000000008E-002   -0.51132348580960385     
   6.5999999999999989E-002   -0.55925020755147148     
   6.6299999999999998E-002   -0.58695462431676959     
   6.6600000000000006E-002   -0.58838746089099481     
   6.6900000000000001E-002   -0.55831733690673491     
   6.7199999999999996E-002   -0.49270308727520584     
   6.7500000000000004E-002   -0.38924990326888570     
   6.7800000000000013E-002   -0.24760751803309217     
   6.8099999999999994E-002    -6.9872457630445389E-002
   6.8400000000000002E-002    0.13939496414099095     
   6.8700000000000011E-002    0.37301810256401002     
   6.8999999999999992E-002    0.62127534364399251     
   6.9300000000000000E-002    0.87242558605243048     
   6.9600000000000009E-002     1.1130437482441478     
   6.9900000000000004E-002     1.3288075497264278     
   7.0199999999999999E-002     1.5053516157926676     
   7.0500000000000007E-002     1.6292771801930455     
   7.0800000000000016E-002     1.6891809208718371     
   7.1099999999999997E-002     1.6765601161346446     
   7.1400000000000005E-002     1.5869079395289991     
   7.1700000000000000E-002     1.4200069531966379     
   7.1999999999999995E-002     1.1806367341161448     
   7.2300000000000003E-002    0.87831316349481414     
   7.2600000000000012E-002    0.52704887565933145     
   7.2900000000000006E-002    0.14452703338767373     
   7.3200000000000001E-002   -0.24913628795524079     
   7.3499999999999996E-002   -0.63247571290148963     
   7.3800000000000004E-002   -0.98455324782321474     
   7.4099999999999999E-002    -1.2862274277561749     
   7.4400000000000008E-002    -1.5217123801264585     
   7.4700000000000003E-002    -1.6797060512633160     
   7.5000000000000011E-002    -1.7542594209174835     
   7.5299999999999992E-002    -1.7451501637185685     
   7.5600000000000001E-002    -1.6575055903044251     
   7.5900000000000009E-002    -1.5017807126642708     
   7.6200000000000004E-002    -1.2920561741107379     
   7.6499999999999999E-002    -1.0453582793164775     
   7.6800000000000007E-002   -0.77965496716956373     
   7.7099999999999988E-002   -0.51269119550182363     
   7.7399999999999997E-002   -0.26020390137435817     
   7.7700000000000005E-002    -3.5175825318242433E-002
   7.8000000000000014E-002    0.15332077391600285     
   7.8299999999999995E-002    0.30041734445453783     
   7.8600000000000003E-002    0.40536571398069537     
   7.8900000000000012E-002    0.47105047904440001     
   7.9199999999999993E-002    0.50329230125942326     
   7.9500000000000001E-002    0.50994996336097065     
   7.9800000000000010E-002    0.49963377319001978     
   8.0100000000000018E-002    0.48070977873667298     
   8.0399999999999999E-002    0.46072312296517953     
   8.0700000000000008E-002    0.44524871739177285     
   8.1000000000000003E-002    0.43790512988433478     
   8.1299999999999997E-002    0.44021162305455375     
   8.1600000000000006E-002    0.45186889202857311     
   8.1900000000000014E-002    0.47096708475134769     
   8.2199999999999995E-002    0.49487593768545951     
   8.2500000000000004E-002    0.52055728301409954     
   8.2799999999999999E-002    0.54521321925836952     
   8.3100000000000007E-002    0.56678246898581919     
   8.3400000000000002E-002    0.58401577866198673     
   8.3700000000000011E-002    0.59649663123988672     
   8.4000000000000005E-002    0.60460929803398822     
   8.4300000000000000E-002    0.60913573252440500     
   8.4599999999999995E-002    0.61077634901630029     
   8.4900000000000003E-002    0.60983870755705327     
   8.5199999999999998E-002    0.60600839365032622     
   8.5500000000000007E-002    0.59771846083478131     
   8.5800000000000001E-002    0.58254305963192532     
   8.6100000000000010E-002    0.55705933370627392     
   8.6399999999999991E-002    0.51748226882934278     
   8.6699999999999999E-002    0.45971973791625931     
   8.7000000000000008E-002    0.38039531657419839     
   8.7300000000000003E-002    0.27711233179231770     
   8.7599999999999997E-002    0.14914946299166276     
   8.7900000000000006E-002    -2.1899970975728300E-003
   8.8200000000000014E-002   -0.17359501798540389     
   8.8499999999999995E-002   -0.35957990865807449     
   8.8800000000000004E-002   -0.55294935299236614     
   8.9100000000000013E-002   -0.74549118705621853     
   8.9399999999999993E-002   -0.92832074265043540     
   8.9700000000000002E-002    -1.0929065686842272     
   9.0000000000000011E-002    -1.2318181714443051     
   9.0299999999999991E-002    -1.3393947786734961     
   9.0600000000000000E-002    -1.4117797315575125     
   9.0900000000000009E-002    -1.4478416146998465     
   9.1200000000000017E-002    -1.4486304235279501     
   9.1499999999999998E-002    -1.4173160521894326     
   9.1800000000000007E-002    -1.3585978499949927     
   9.2100000000000001E-002    -1.2782403012024939     
   9.2399999999999996E-002    -1.1822752764911661     
   9.2700000000000005E-002    -1.0762108409269411     
   9.3000000000000013E-002   -0.96481810769339105     
   9.3300000000000008E-002   -0.85146879219902605     
   9.3600000000000003E-002   -0.73810773424471632     
   9.3899999999999997E-002   -0.62523251328659413     
   9.4200000000000006E-002   -0.51228546818622522     
   9.4500000000000001E-002   -0.39801052043076124     
   9.4800000000000009E-002   -0.28089871884413048     
   9.5100000000000004E-002   -0.15996496259366266     
   9.5399999999999999E-002    -3.4937056028411961E-002
   9.5699999999999993E-002     9.2831412882143263E-002
   9.6000000000000002E-002    0.22116843201414743     
   9.6300000000000011E-002    0.34609333114426105     
   9.6600000000000005E-002    0.46258074569772156     
   9.6900000000000000E-002    0.56548160903527700     
   9.7200000000000009E-002    0.64954960963316288     
   9.7499999999999989E-002    0.71043974759854156     
   9.7799999999999998E-002    0.74549139069582682     
   9.8100000000000007E-002    0.75428742556989625     
   9.8400000000000015E-002    0.73886960930783985     
   9.8699999999999996E-002    0.70394498028392616     
   9.9000000000000005E-002    0.65684705557075351     
   9.9300000000000013E-002    0.60658972647256759     
   9.9599999999999994E-002    0.56337760620330857     
   9.9900000000000003E-002    0.53720621503321042     
  0.10020000000000001         0.53748110634833912     
  0.10049999999999999         0.57093069108420047     
  0.10080000000000000         0.64151122766506952     
  0.10110000000000001         0.74935235643989351     
  0.10140000000000000         0.89046545401077459     
  0.10170000000000000          1.0569146389790303     
  0.10200000000000001          1.2370829067495144     
  0.10230000000000002          1.4166602552553005     
  0.10260000000000000          1.5798388176171729     
  0.10290000000000001          1.7102748811997128     
  0.10320000000000000          1.7925600494466101     
  0.10350000000000001          1.8139281995230156     
  0.10380000000000000          1.7648272102209939     
  0.10410000000000001          1.6399118561127939     
  0.10440000000000001          1.4389304861265293     
  0.10470000000000000          1.1663613161611941     
  0.10500000000000000         0.83141022360433314     
  0.10530000000000000         0.44743091347019892     
  0.10560000000000000          3.1120106628095300E-002
  0.10590000000000001        -0.39888787800270648     
  0.10620000000000000        -0.82258131786677724     
  0.10650000000000001         -1.2205437021651577     
  0.10679999999999999         -1.5745113633518275     
  0.10710000000000000         -1.8685664640322093     
  0.10740000000000001         -2.0900589912795362     
  0.10770000000000000         -2.2301558943208852     
  0.10800000000000000         -2.2840196601235658     
  0.10830000000000001         -2.2514023331456738     
  0.10859999999999999         -2.1361801223810089     
  0.10890000000000000         -1.9462114231103449     
  0.10920000000000001         -1.6929181538722957     
  0.10950000000000001         -1.3905584605927943     
  0.10979999999999999         -1.0555063349474860     
  0.11009999999999999        -0.70554184213290205     
  0.11040000000000001        -0.35849752932041068     
  0.11070000000000001         -3.1623352995228671E-002
  0.11100000000000000         0.25948592147992389     
  0.11130000000000000         0.50191985365621328     
  0.11160000000000002         0.68610434324626624     
  0.11190000000000001         0.80636708443985028     
  0.11220000000000001         0.86113183239458468     
  0.11250000000000000         0.85319249510460593     
  0.11280000000000000         0.78898232096686660     
  0.11309999999999999         0.67801605884819516     
  0.11340000000000001         0.53218864988301884     
  0.11369999999999998         0.36466509089064919     
  0.11400000000000000         0.18821679439965580     
  0.11430000000000000          1.4859078672536954E-002
  0.11460000000000002        -0.14549176772219996     
  0.11489999999999999        -0.28575994158062018     
  0.11520000000000001        -0.40173594507294014     
  0.11550000000000001        -0.49222375146517811     
  0.11580000000000000        -0.55871055622012555     
  0.11609999999999999        -0.60440466872598542     
  0.11640000000000002        -0.63355879090309786     
  0.11670000000000001        -0.65042523723981316     
  0.11700000000000001        -0.65838090876027766     
  0.11730000000000000        -0.65903513086602894     
  0.11760000000000000        -0.65216367078030524     
  0.11789999999999999        -0.63500635662752225     
  0.11820000000000001        -0.60319804228204632     
  0.11850000000000001        -0.55125897474136920     
  0.11880000000000000        -0.47299885407561088     
  0.11910000000000000        -0.36312502629850435     
  0.11940000000000002        -0.21840458014669356     
  0.11970000000000001         -3.7614677896185861E-002
  0.12000000000000001         0.17703469301826164     
  0.12030000000000000         0.41921139985546113     
  0.12060000000000000         0.68009648476700590     
  0.12089999999999999         0.94757071439729013     
  0.12119999999999999          1.2074920823445567     
  0.12150000000000001          1.4450728552683572     
  0.12180000000000001          1.6459490888428414     
  0.12210000000000000          1.7970940688891912     
  0.12239999999999999          1.8879681445984562     
  0.12270000000000002          1.9115972149071070     
  0.12300000000000001          1.8642975935859851     
  0.12330000000000001          1.7463359516819663     
  0.12360000000000000          1.5610921109160145     
  0.12390000000000000          1.3152647987268165     
  0.12419999999999999          1.0174026323577330     
  0.12450000000000001         0.67778926060871492     
  0.12480000000000001         0.30783044933596027     
  0.12509999999999999         -8.0708694089522137E-002
  0.12540000000000001        -0.47566847960297637     
  0.12570000000000003        -0.86488888928286978     
  0.12600000000000000         -1.2358958484206999     
  0.12630000000000002         -1.5762753190697560     
  0.12659999999999999         -1.8734608542424049     
  0.12690000000000001         -2.1149036499834115     
  0.12719999999999998         -2.2889048644679253     
  0.12750000000000000         -2.3845581593154570     
  0.12780000000000002         -2.3935281827020041     
  0.12809999999999999         -2.3100175485905163     
  0.12840000000000001         -2.1324379123269499     
  0.12869999999999998         -1.8639837250732350     
  0.12900000000000000         -1.5130774804340537     
  0.12930000000000003         -1.0932686250245116     
  0.12959999999999999        -0.62307810956976140     
  0.12990000000000002        -0.12517767763860968     
  0.13019999999999998         0.37591509044793875     
  0.13050000000000000         0.85447541175400188     
  0.13080000000000003          1.2860083258405202     
  0.13109999999999999          1.6493968610115111     
  0.13140000000000002          1.9279604787851190     
  0.13169999999999998          2.1108863004851401     
  0.13200000000000001          2.1938554925002745     
  0.13229999999999997          2.1789793701940190     
  0.13260000000000000          2.0743603500449175     
  0.13290000000000002          1.8926023105009206     
  0.13319999999999999          1.6501424238390798     
  0.13350000000000001          1.3651710734727152     
  0.13380000000000003          1.0560193099290858     
  0.13410000000000000         0.74049086144071541     
  0.13440000000000002         0.43438668081574189     
  0.13469999999999999         0.15116685283576337     
  0.13500000000000001         -9.8582509644597624E-002
  0.13529999999999998        -0.30690651086233994     
  0.13560000000000000        -0.46774896110091635     
  0.13590000000000002        -0.57799374406577053     
  0.13619999999999999        -0.63595187249427665     
  0.13650000000000001        -0.64162552171564269     
  0.13680000000000003        -0.59692275544429574     
  0.13710000000000000        -0.50573921391965326     
  0.13740000000000002        -0.37382504655857152     
  0.13769999999999999        -0.20904459452289567     
  0.13800000000000001         -2.1723285882576403E-002
  0.13829999999999998         0.17631151840194761     
  0.13860000000000000         0.37160890889906978     
  0.13890000000000002         0.55049979323858889     
  0.13919999999999999         0.69922983333012734     
  0.13950000000000001         0.80588030547344547     
  0.13979999999999998         0.86152761925157240     
  0.14010000000000000         0.85985421872562462     
  0.14040000000000002         0.79933243664528086     
  0.14069999999999999         0.68289386772934835     
  0.14100000000000001         0.51727479043479196     
  0.14130000000000004         0.31279315618382153     
  0.14160000000000000          8.3102012346000911E-002
  0.14189999999999997        -0.15704955355549574     
  0.14219999999999999        -0.39315535763117160     
  0.14250000000000002        -0.61056431725100158     
  0.14279999999999998        -0.79768338807926886     
  0.14310000000000000        -0.94577852228931103     
  0.14339999999999997         -1.0496338957015254     
  0.14369999999999999         -1.1076937073776725     
  0.14400000000000002         -1.1224474045429536     
  0.14429999999999998         -1.0999861046793427     
  0.14460000000000001         -1.0486666172860748     
  0.14490000000000003        -0.97956086270381815     
  0.14520000000000000        -0.90411913193777937     
  0.14550000000000002        -0.83418886175920903     
  0.14579999999999999        -0.78058680568690941     
  0.14610000000000001        -0.75191528572478983     
  0.14640000000000003        -0.75424587022441369     
  0.14670000000000000        -0.78958556782492173     
  0.14699999999999996        -0.85644927006948823     
  0.14729999999999999        -0.94884098909187697     
  0.14760000000000001         -1.0572954484496819     
  0.14789999999999998         -1.1692980574678489     
  0.14820000000000000         -1.2701574637053650     