  -1.4999999999999999E-002     0.0000000000000000     
  -1.4700000000000000E-002     0.0000000000000000     
  -1.4400000000000000E-002     0.0000000000000000     
  -1.4100000000000000E-002     0.0000000000000000     
  -1.3800000000000000E-002     0.0000000000000000     
  -1.3500000000000000E-002     0.0000000000000000     
  -1.3200000000000000E-002     0.0000000000000000     
  -1.2899999999999998E-002     0.0000000000000000     
  -1.2600000000000000E-002     0.0000000000000000     
  -1.2299999999999998E-002     0.0000000000000000     
  -1.2000000000000000E-002     0.0000000000000000     
  -1.1699999999999999E-002     0.0000000000000000     
  -1.1399999999999999E-002     0.0000000000000000     
  -1.1099999999999999E-002     0.0000000000000000     
  -1.0799999999999999E-002     0.0000000000000000     
  -1.0499999999999999E-002     0.0000000000000000     
  -1.0199999999999999E-002     0.0000000000000000     
  -9.8999999999999991E-003     0.0000000000000000     
  -9.5999999999999992E-003     0.0000000000000000     
  -9.2999999999999992E-003     0.0000000000000000     
  -8.9999999999999993E-003     0.0000000000000000     
  -8.6999999999999994E-003     0.0000000000000000     
  -8.3999999999999995E-003     0.0000000000000000     
  -8.0999999999999996E-003     0.0000000000000000     
  -7.7999999999999988E-003     0.0000000000000000     
  -7.4999999999999997E-003     0.0000000000000000     
  -7.1999999999999998E-003     0.0000000000000000     
  -6.8999999999999981E-003     0.0000000000000000     
  -6.5999999999999982E-003     0.0000000000000000     
  -6.3000000000000000E-003     0.0000000000000000     
  -6.0000000000000001E-003     0.0000000000000000     
  -5.6999999999999985E-003     0.0000000000000000     
  -5.3999999999999986E-003     0.0000000000000000     
  -5.1000000000000004E-003     0.0000000000000000     
  -4.7999999999999987E-003     0.0000000000000000     
  -4.5000000000000005E-003     0.0000000000000000     
  -4.1999999999999989E-003     0.0000000000000000     
  -3.8999999999999990E-003     0.0000000000000000     
  -3.5999999999999990E-003     0.0000000000000000     
  -3.2999999999999991E-003     0.0000000000000000     
  -2.9999999999999992E-003     0.0000000000000000     
  -2.6999999999999993E-003     0.0000000000000000     
  -2.3999999999999994E-003     0.0000000000000000     
  -2.0999999999999977E-003     0.0000000000000000     
  -1.7999999999999995E-003     0.0000000000000000     
  -1.4999999999999979E-003     0.0000000000000000     
  -1.1999999999999997E-003     0.0000000000000000     
  -8.9999999999999976E-004     0.0000000000000000     
  -5.9999999999999810E-004     0.0000000000000000     
  -2.9999999999999992E-004     0.0000000000000000     
   0.0000000000000000          0.0000000000000000     
   3.0000000000000165E-004     0.0000000000000000     
   5.9999999999999984E-004     0.0000000000000000     
   9.0000000000000149E-004     0.0000000000000000     
   1.2000000000000031E-003     0.0000000000000000     
   1.5000000000000013E-003     0.0000000000000000     
   1.8000000000000030E-003     0.0000000000000000     
   2.1000000000000012E-003     0.0000000000000000     
   2.3999999999999994E-003     0.0000000000000000     
   2.7000000000000010E-003     0.0000000000000000     
   2.9999999999999992E-003     0.0000000000000000     
   3.3000000000000008E-003     0.0000000000000000     
   3.6000000000000025E-003     0.0000000000000000     
   3.9000000000000007E-003     0.0000000000000000     
   4.2000000000000023E-003     0.0000000000000000     
   4.5000000000000005E-003     0.0000000000000000     
   4.7999999999999987E-003     0.0000000000000000     
   5.1000000000000004E-003     0.0000000000000000     
   5.4000000000000020E-003     0.0000000000000000     
   5.7000000000000037E-003     0.0000000000000000     
   5.9999999999999984E-003     0.0000000000000000     
   6.3000000000000000E-003     0.0000000000000000     
   6.6000000000000017E-003     0.0000000000000000     
   6.9000000000000034E-003     0.0000000000000000     
   7.2000000000000015E-003     0.0000000000000000     
   7.5000000000000032E-003     0.0000000000000000     
   7.8000000000000014E-003     0.0000000000000000     
   8.0999999999999996E-003     0.0000000000000000     
   8.4000000000000012E-003     0.0000000000000000     
   8.7000000000000029E-003     0.0000000000000000     
   9.0000000000000011E-003     0.0000000000000000     
   9.2999999999999992E-003     0.0000000000000000     
   9.6000000000000009E-003     0.0000000000000000     
   9.8999999999999991E-003     0.0000000000000000     
   1.0200000000000001E-002     0.0000000000000000     
   1.0500000000000002E-002     0.0000000000000000     
   1.0800000000000004E-002     0.0000000000000000     
   1.1099999999999999E-002     0.0000000000000000     
   1.1400000000000000E-002     0.0000000000000000     
   1.1700000000000002E-002     0.0000000000000000     
   1.2000000000000004E-002     0.0000000000000000     
   1.2300000000000002E-002     0.0000000000000000     
   1.2600000000000000E-002     0.0000000000000000     
   1.2900000000000002E-002     0.0000000000000000     
   1.3200000000000000E-002     0.0000000000000000     
   1.3500000000000002E-002     0.0000000000000000     
   1.3800000000000003E-002     0.0000000000000000     
   1.4100000000000001E-002     0.0000000000000000     
   1.4400000000000000E-002     0.0000000000000000     
   1.4700000000000001E-002     0.0000000000000000     
   1.4999999999999999E-002     0.0000000000000000     
   1.5300000000000001E-002     0.0000000000000000     
   1.5600000000000003E-002     0.0000000000000000     
   1.5899999999999997E-002     0.0000000000000000     
   1.6199999999999999E-002     0.0000000000000000     
   1.6500000000000001E-002     0.0000000000000000     
   1.6800000000000002E-002     0.0000000000000000     
   1.7100000000000004E-002     0.0000000000000000     
   1.7400000000000006E-002     0.0000000000000000     
   1.7700000000000000E-002     0.0000000000000000     
   1.8000000000000002E-002     0.0000000000000000     
   1.8300000000000004E-002     0.0000000000000000     
   1.8600000000000005E-002     0.0000000000000000     
   1.8900000000000000E-002     0.0000000000000000     
   1.9200000000000002E-002     0.0000000000000000     
   1.9500000000000003E-002     0.0000000000000000     
   1.9799999999999998E-002     0.0000000000000000     
   2.0100000000000000E-002     0.0000000000000000     
   2.0400000000000001E-002     0.0000000000000000     
   2.0700000000000003E-002     0.0000000000000000     
   2.0999999999999998E-002     0.0000000000000000     
   2.1299999999999999E-002     0.0000000000000000     
   2.1600000000000001E-002     0.0000000000000000     
   2.1900000000000003E-002     0.0000000000000000     
   2.2200000000000004E-002     0.0000000000000000     
   2.2500000000000006E-002     0.0000000000000000     
   2.2800000000000001E-002     0.0000000000000000     
   2.3100000000000002E-002     0.0000000000000000     
   2.3400000000000004E-002     0.0000000000000000     
   2.3699999999999999E-002     0.0000000000000000     
   2.4000000000000000E-002     0.0000000000000000     
   2.4300000000000002E-002     0.0000000000000000     
   2.4599999999999997E-002     0.0000000000000000     
   2.4900000000000005E-002     0.0000000000000000     
   2.5200000000000000E-002     0.0000000000000000     
   2.5499999999999995E-002     0.0000000000000000     
   2.5800000000000003E-002     0.0000000000000000     
   2.6099999999999998E-002     0.0000000000000000     
   2.6400000000000007E-002     0.0000000000000000     
   2.6700000000000002E-002     0.0000000000000000     
   2.6999999999999996E-002     0.0000000000000000     
   2.7300000000000005E-002     0.0000000000000000     
   2.7600000000000000E-002     0.0000000000000000     
   2.7900000000000008E-002     0.0000000000000000     
   2.8200000000000003E-002     0.0000000000000000     
   2.8499999999999998E-002     0.0000000000000000     
   2.8800000000000006E-002     0.0000000000000000     
   2.9100000000000001E-002     0.0000000000000000     
   2.9400000000000003E-002     0.0000000000000000     
   2.9700000000000004E-002     0.0000000000000000     
   3.0000000000000006E-002     0.0000000000000000     
   3.0300000000000001E-002     0.0000000000000000     
   3.0600000000000002E-002     0.0000000000000000     
   3.0900000000000004E-002     0.0000000000000000     
   3.1199999999999999E-002     0.0000000000000000     
   3.1500000000000007E-002     0.0000000000000000     
   3.1800000000000002E-002     2.8953031355790001E-043
   3.2099999999999997E-002    -5.2938082449506430E-043
   3.2400000000000005E-002    -1.7170031876677296E-042
   3.2700000000000000E-002    -1.1207265636724024E-038
   3.3000000000000002E-002     1.1569628066531623E-037
   3.3300000000000003E-002    -1.6628126128124705E-038
   3.3599999999999998E-002     2.2867341852484168E-036
   3.3900000000000000E-002    -4.3276203676681395E-035
   3.4200000000000001E-002     1.7492741759378466E-034
   3.4500000000000003E-002    -6.4683332971642104E-034
   3.4799999999999998E-002     2.3288666938730697E-033
   3.5099999999999999E-002    -8.6620835909152028E-033
   3.5400000000000001E-002     3.1017742567506296E-032
   3.5699999999999996E-002    -1.1046454381081254E-031
   3.6000000000000004E-002     3.9653906744668251E-031
   3.6299999999999999E-002    -1.4160157247380069E-030
   3.6600000000000008E-002     4.9143382710583415E-030
   3.6900000000000002E-002    -1.6287694507216776E-029
   3.7199999999999997E-002     5.0780298320083969E-029
   3.7500000000000006E-002    -1.4643072744284883E-028
   3.7800000000000000E-002     3.8090130004907552E-028
   3.8100000000000009E-002    -8.5036181855751376E-028
   3.8400000000000004E-002     1.4085561390255552E-027
   3.8699999999999998E-002    -4.2846868466013548E-028
   3.9000000000000007E-002    -9.7337970027855130E-027
   3.9300000000000002E-002     5.7188525311331433E-026
   3.9600000000000003E-002    -2.3228297790609386E-025
   3.9900000000000005E-002     7.9766131974230615E-025
   4.0200000000000000E-002    -2.4394605337213859E-024
   4.0500000000000001E-002     6.6667295971914492E-024
   4.0800000000000003E-002    -1.5613161813239081E-023
   4.1100000000000005E-002     2.6890526500585293E-023
   4.1399999999999999E-002    -7.3644182053618083E-024
   4.1700000000000008E-002    -1.9525594907963175E-022
   4.2000000000000003E-002     1.0545493265816599E-021
   4.2299999999999997E-002    -3.5516953100127665E-021
   4.2600000000000006E-002     8.3048614334460315E-021
   4.2900000000000001E-002    -1.0200738065694118E-020
   4.3200000000000002E-002    -1.7326434253453320E-020
   4.3500000000000004E-002     1.4448562028534626E-019
   4.3799999999999999E-002    -4.5334083623421668E-019
   4.4100000000000000E-002     7.5639618128770430E-019
   4.4400000000000002E-002     1.8871190246710556E-019
   4.4700000000000004E-002    -5.4313907000760622E-018
   4.4999999999999998E-002     1.6969010944784019E-017
   4.5300000000000000E-002    -2.1600530510960242E-017
   4.5600000000000002E-002    -3.3655769009202430E-017
   4.5899999999999996E-002     2.2277871419265488E-016
   4.6200000000000005E-002    -4.3256625693304382E-016
   4.6500000000000000E-002    -8.1655715906758743E-017
   4.6799999999999994E-002     2.5690153915896992E-015
   4.7100000000000003E-002    -5.7997114912379431E-015
   4.7399999999999998E-002    -1.8150866385262421E-016
   4.7700000000000006E-002     3.0617556680648353E-014
   4.8000000000000001E-002    -6.2905433127806412E-014
   4.8300000000000010E-002    -3.0666391104282259E-014
   4.8600000000000004E-002     3.7063772925372957E-013
   4.8899999999999999E-002    -5.0056488752641408E-013
   4.9200000000000008E-002    -9.6571083422970107E-013
   4.9500000000000002E-002     3.8708252883117975E-012
   4.9800000000000011E-002    -1.0381745396282162E-012
   5.0100000000000006E-002    -1.6438275677352570E-011
   5.0400000000000000E-002     2.4805611052543138E-011
   5.0700000000000009E-002     4.5376612839708979E-011
   5.1000000000000004E-002    -1.5405686654554223E-010
   5.1299999999999998E-002    -5.5523968963355423E-011
   5.1600000000000007E-002     6.9092508680780730E-010
   5.1900000000000002E-002    -2.4156066045773837E-010
   5.2200000000000010E-002    -2.6452164374119251E-009
   5.2500000000000005E-002     2.1516118027477785E-009
   5.2800000000000000E-002     9.4682384945836982E-009
   5.3099999999999994E-002    -1.0138489158195329E-008
   5.3400000000000003E-002    -3.4109043630202070E-008
   5.3699999999999998E-002     3.3437286459423996E-008
   5.4000000000000006E-002     1.2109880375900800E-007
   5.4300000000000001E-002    -7.9478023386568032E-008
   5.4599999999999996E-002    -4.3850251105182546E-007
   5.4900000000000004E-002     3.7635731776217165E-008
   5.5199999999999999E-002     1.9412815619425934E-006
   5.5499999999999994E-002     4.2733325381576526E-006
   5.5800000000000002E-002     6.3054718108902435E-006
   5.6099999999999997E-002     9.9210641369660005E-006
   5.6400000000000006E-002     1.7395269051746447E-005
   5.6700000000000000E-002     2.8066071216438852E-005
   5.6999999999999995E-002     4.1344890659182558E-005
   5.7300000000000004E-002     6.1635022225391925E-005
   5.7599999999999998E-002     9.5255978854765332E-005
   5.7900000000000007E-002     1.4487020653498577E-004
   5.8200000000000002E-002     2.1341724034481678E-004
   5.8499999999999996E-002     3.1109343988169473E-004
   5.8800000000000005E-002     4.5230444450067308E-004
   5.9100000000000000E-002     6.4952785140893359E-004
   5.9400000000000008E-002     9.1616741363227758E-004
   5.9700000000000003E-002     1.2712072375701130E-003
   6.0000000000000012E-002     1.7369444370197002E-003
   6.0300000000000006E-002     2.3369192917906683E-003
   6.0600000000000001E-002     3.0961675796548384E-003
   6.0900000000000010E-002     4.0364944246374917E-003
   6.1200000000000004E-002     5.1719732923717057E-003
   6.1500000000000013E-002     6.5117488721079704E-003
   6.1800000000000008E-002     8.0556907554347121E-003
   6.2100000000000002E-002     9.7775181027472836E-003
   6.2399999999999997E-002     1.1617969960793848E-002
   6.2700000000000006E-002     1.3494426673621950E-002
   6.3000000000000000E-002     1.5298136483207520E-002
   6.3300000000000009E-002     1.6879285348776474E-002
   6.3600000000000004E-002     1.8046867001161121E-002
   6.3899999999999998E-002     1.8586546135349699E-002
   6.4199999999999993E-002     1.8269700564977516E-002
   6.4500000000000002E-002     1.6863267953418911E-002
   6.4800000000000010E-002     1.4157497312620278E-002
   6.5100000000000005E-002     1.0000485155097045E-002
   6.5400000000000000E-002     4.3204997570450926E-003
   6.5700000000000008E-002    -2.8436524119213919E-003
   6.5999999999999989E-002    -1.1311870473781233E-002
   6.6299999999999998E-002    -2.0746259179511818E-002
   6.6600000000000006E-002    -3.0652391302357182E-002
   6.6900000000000001E-002    -4.0378994887398184E-002
   6.7199999999999996E-002    -4.9141731112435326E-002
   6.7500000000000004E-002    -5.6070432524137806E-002
   6.7800000000000013E-002    -6.0287707321075024E-002
   6.8099999999999994E-002    -6.0993111375354250E-002
   6.8400000000000002E-002    -5.7550281341502640E-002
   6.8700000000000011E-002    -4.9580049915197918E-002
   6.8999999999999992E-002    -3.7035122346339849E-002
   6.9300000000000000E-002    -2.0265457445785357E-002
   6.9600000000000009E-002    -6.0510914392983154E-005
   6.9900000000000004E-002     2.2348738415158276E-002
   7.0199999999999999E-002     4.5327424597327144E-002
   7.0500000000000007E-002     6.6916780188943203E-002
   7.0800000000000016E-002     8.4991971784881964E-002
   7.1099999999999997E-002     9.7388805438876930E-002
   7.1400000000000005E-002    0.10207022885672917     
   7.1700000000000000E-002     9.7319185577663697E-002
   7.1999999999999995E-002     8.1916944680886075E-002
   7.2300000000000003E-002     5.5288666341943474E-002
   7.2600000000000012E-002     1.7625861138105273E-002
   7.2900000000000006E-002    -3.0069429705407973E-002
   7.3200000000000001E-002    -8.5958025191897394E-002
   7.3499999999999996E-002   -0.14743524991716289     
   7.3800000000000004E-002   -0.21120888869767324     
   7.4099999999999999E-002   -0.27352241403650029     
   7.4400000000000008E-002   -0.33032598562288806     
   7.4700000000000003E-002   -0.37756862424505577     
   7.5000000000000011E-002   -0.41146335001779705     
   7.5299999999999992E-002   -0.42876198315372688     
   7.5600000000000001E-002   -0.42705447464318497     
   7.5900000000000009E-002   -0.40494713995186149     
   7.6200000000000004E-002   -0.36227450885329721     
   7.6499999999999999E-002   -0.30012582149634076     
   7.6800000000000007E-002   -0.22097778858701289     
   7.7099999999999988E-002   -0.12843385021724696     
   7.7399999999999997E-002    -2.7112290282571019E-002
   7.7700000000000005E-002     7.7626131985651006E-002
   7.8000000000000014E-002    0.18011198366371911     
   7.8299999999999995E-002    0.27471804851975284     
   7.8600000000000003E-002    0.35634190736634458     
   7.8900000000000012E-002    0.42074537946468515     
   7.9199999999999993E-002    0.46496100090694703     
   7.9500000000000001E-002    0.48750498072037063     
   7.9800000000000010E-002    0.48849411035495383     
   8.0100000000000018E-002    0.46962944499117298     
   8.0399999999999999E-002    0.43404143722026134     
   8.0700000000000008E-002    0.38600970406768975     
   8.1000000000000003E-002    0.33050380154802572     
   8.1299999999999997E-002    0.27278922219779322     
   8.1600000000000006E-002    0.21789388932876683     
   8.1900000000000014E-002    0.17014641273428421     
   8.2199999999999995E-002    0.13280523595613669     
   8.2500000000000004E-002    0.10777664077990776     
   8.2799999999999999E-002     9.5483694708370634E-002
   8.3100000000000007E-002     9.4835259663875918E-002
   8.3400000000000002E-002    0.10346019546992516     
   8.3700000000000011E-002    0.11793759769685863     
   8.4000000000000005E-002    0.13426738174444358     
   8.4300000000000000E-002    0.14819890894697868     
   8.4599999999999995E-002    0.15574602056901871     
   8.4900000000000003E-002    0.15358043004360905     
   8.5199999999999998E-002    0.13933973666197402     
   8.5500000000000007E-002    0.11184914757257358     
   8.5800000000000001E-002     7.1195406661722790E-002
   8.6100000000000010E-002     1.8668764723675742E-002
   8.6399999999999991E-002    -4.3342774227126880E-002
   8.6699999999999999E-002   -0.11160866065536054     
   8.7000000000000008E-002   -0.18234129674593336     
   8.7300000000000003E-002   -0.25152366159316880     
   8.7599999999999997E-002   -0.31510260810571145     
   8.7900000000000006E-002   -0.36939411042834236     
   8.8200000000000014E-002   -0.41111406771949999     
   8.8499999999999995E-002   -0.43760942515716450     
   8.8800000000000004E-002   -0.44689232474395718     
   8.9100000000000013E-002   -0.43764690437555293     
   8.9399999999999993E-002   -0.40925529671547967     
   8.9700000000000002E-002   -0.36181804546434038     
   9.0000000000000011E-002   -0.29599564599550326     
   9.0299999999999991E-002   -0.21325067263476816     
   9.0600000000000000E-002   -0.11566514060744532     
   9.0900000000000009E-002    -5.9466260933013024E-003
   9.1200000000000017E-002    0.11239163490697594     
   9.1499999999999998E-002    0.23519738086543801     
   9.1800000000000007E-002    0.35785884678259816     
   9.2100000000000001E-002    0.47524180865882670     
   9.2399999999999996E-002    0.58207429831612945     
   9.2700000000000005E-002    0.67319270033627610     
   9.3000000000000013E-002    0.74381673839634366     
   9.3300000000000008E-002    0.78999605581857846     
   9.3600000000000003E-002    0.80884557565845516     
   9.3899999999999997E-002    0.79886015920444597     
   9.4200000000000006E-002    0.76012161335156136     
   9.4500000000000001E-002    0.69427293757667874     
   9.4800000000000009E-002    0.60446153072339259     
   9.5100000000000004E-002    0.49520215360863473     
   9.5399999999999999E-002    0.37191763543338141     
   9.5699999999999993E-002    0.24058408448997526     
   9.6000000000000002E-002    0.10725055373949083     
   9.6300000000000011E-002    -2.2430282481132068E-002
   9.6600000000000005E-002   -0.14363955800857808     
   9.6900000000000000E-002   -0.25271852600529865     
   9.7200000000000009E-002   -0.34743689447043252     
   9.7499999999999989E-002   -0.42693639918848492     
   9.7799999999999998E-002   -0.49185717829891173     
   9.8100000000000007E-002   -0.54394212377126472     
   9.8400000000000015E-002   -0.58582662610014835     
   9.8699999999999996E-002   -0.62078691436716416     
   9.9000000000000005E-002   -0.65203048679568099     
   9.9300000000000013E-002   -0.68253710087260866     
   9.9599999999999994E-002   -0.71465417494611039     
   9.9900000000000003E-002   -0.74966193519028668     
  0.10020000000000001        -0.78779083906601377     
  0.10049999999999999        -0.82806357136509523     
  0.10080000000000000        -0.86837603143059539     
  0.10110000000000001        -0.90551556968393054     
  0.10140000000000000        -0.93573618891119970     
  0.10170000000000000        -0.95480022958684696     
  0.10200000000000001        -0.95852229834941260     
  0.10230000000000002        -0.94312156570104522     
  0.10260000000000000        -0.90561234041038086     
  0.10290000000000001        -0.84402980992083743     
  0.10320000000000000        -0.75787914977147675     
  0.10350000000000001        -0.64804659977030710     
  0.10380000000000000        -0.51687982523042486     
  0.10410000000000001        -0.36829007850235518     
  0.10440000000000001        -0.20718409090446299     
  0.10470000000000000         -3.9417352413840888E-002
  0.10500000000000000         0.12854200765555743     
  0.10530000000000000         0.29031804318033821     
  0.10560000000000000         0.43972246122127934     
  0.10590000000000001         0.57122044043208664     
  0.10620000000000000         0.68052439700503387     
  0.10650000000000001         0.76451907597158619     
  0.10679999999999999         0.82137380953720429     
  0.10710000000000000         0.85100094308650531     
  0.10740000000000001         0.85435233375755293     
  0.10770000000000000         0.83372950556726022     
  0.10800000000000000         0.79242445326168487     
  0.10830000000000001         0.73408631773350619     
  0.10859999999999999         0.66282844168240262     
  0.10890000000000000         0.58265728932099314     
  0.10920000000000001         0.49731385769972525     
  0.10950000000000001         0.41009542942304444     
  0.10979999999999999         0.32371132338869618     
  0.11009999999999999         0.24035836951293760     
  0.11040000000000001         0.16176431245827413     
  0.11070000000000001          8.9413379658159736E-002
  0.11100000000000000          2.4505173309960653E-002
  0.11130000000000000         -3.1552274424509745E-002
  0.11160000000000002         -7.7334181682476313E-002
  0.11190000000000001        -0.11110246445978729     
  0.11220000000000001        -0.13105107649944311     
  0.11250000000000000        -0.13514685172667196     
  0.11280000000000000        -0.12160866450708405     
  0.11309999999999999         -8.9122368319837261E-002
  0.11340000000000001         -3.7033200499505863E-002
  0.11369999999999998          3.4139303183003497E-002
  0.11400000000000000         0.12271093785206469     
  0.11430000000000000         0.22545127684611882     
  0.11460000000000002         0.33776072167247395     
  0.11489999999999999         0.45379752304010779     
  0.11520000000000001         0.56669103331588977     
  0.11550000000000001         0.66925227616372662     
  0.11580000000000000         0.75420664151464023     
  0.11609999999999999         0.81503618402236810     
  0.11640000000000002         0.84631929787946958     
  0.11670000000000001         0.84445151528347395     
  0.11700000000000001         0.80770198478603095     
  0.11730000000000000         0.73650665366935497     
  0.11760000000000000         0.63338962871827043     
  0.11789999999999999         0.50265286887101779     
  0.11820000000000001         0.35029677941635162     
  0.11850000000000001         0.18305830455441319     
  0.11880000000000000          8.3895043685617982E-003
  0.11910000000000000        -0.16616690659070382     
  0.11940000000000002        -0.33353975319213358     
  0.11970000000000001        -0.48730021183329209     
  0.12000000000000001        -0.62185665264797296     
  0.12030000000000000        -0.73271564277243584     
  0.12060000000000000        -0.81646502454082093     
  0.12089999999999999        -0.87061418135434920     
  0.12119999999999999        -0.89397354552788855     
  0.12150000000000001        -0.88636327346148880     
  0.12180000000000001        -0.84860270552751815     
  0.12210000000000000        -0.78288841965173273     
  0.12239999999999999        -0.69236715335554877     
  0.12270000000000002        -0.58144100965764955     
  0.12300000000000001        -0.45540012958080167     
  0.12330000000000001        -0.32064691232998466     
  0.12360000000000000        -0.18396283956058587     
  0.12390000000000000         -5.2428327501291644E-002
  0.12419999999999999          6.6927418514626441E-002
  0.12450000000000001         0.16794673050108461     
  0.12480000000000001         0.24528116245931852     
  0.12509999999999999         0.29522180932555964     
  0.12540000000000001         0.31560054796126280     
  0.12570000000000003         0.30606994594816933     
  0.12600000000000000         0.26805720987415704     
  0.12630000000000002         0.20462938099984779     
  0.12659999999999999         0.12005576795749340     
  0.12690000000000001          1.9573790347771090E-002
  0.12719999999999998         -9.0752493170098744E-002
  0.12750000000000000        -0.20497971248057251     
  0.12780000000000002        -0.31693664874730182     
  0.12809999999999999        -0.42107276007037570     
  0.12840000000000001        -0.51229213590770950     
  0.12869999999999998        -0.58634424112165973     
  0.12900000000000000        -0.63979076319926231     
  0.12930000000000003        -0.67000780580162311     
  0.12959999999999999        -0.67569363456064868     
  0.12990000000000002        -0.65634086050430596     
  0.13019999999999998        -0.61274483420770420     
  0.13050000000000000        -0.54681915505759560     
  0.13080000000000003        -0.46158515307770809     
  0.13109999999999999        -0.36114229188721958     
  0.13140000000000002        -0.25029111189376269     
  0.13169999999999998        -0.13440733511050110     
  0.13200000000000001         -1.8825828868579770E-002
  0.13229999999999997          9.1346853773525083E-002
  0.13260000000000000         0.19206871325297267     
  0.13290000000000002         0.28023525239818381     
  0.13319999999999999         0.35468647382222318     
  0.13350000000000001         0.41586788419071774     
  0.13380000000000003         0.46567934237356279     
  0.13410000000000000         0.50772976288769622     
  0.13440000000000002         0.54606069336280672     
  0.13469999999999999         0.58506623427823046     
  0.13500000000000001         0.62850269171408435     
  0.13529999999999998         0.67870802170065148     
  0.13560000000000000         0.73615592089762405     
  0.13590000000000002         0.79888249319269344     
  0.13619999999999999         0.86256788361666581     
  0.13650000000000001         0.92072893126172461     
  0.13680000000000003         0.96560533289871109     
  0.13710000000000000         0.98837831955940803     
  0.13740000000000002         0.98124525594800116     
  0.13769999999999999         0.93773937243500249     
  0.13800000000000001         0.85399628416504836     
  0.13829999999999998         0.72980258184385705     
  0.13860000000000000         0.56856329504398762     
  0.13890000000000002         0.37748912715558325     
  0.13919999999999999         0.16706402133203829     
  0.13950000000000001         -5.0096549442104558E-002
  0.13979999999999998        -0.26035337593712077     
  0.14010000000000000        -0.45037057179567058     
  0.14040000000000002        -0.60898088186908228     
  0.14069999999999999        -0.72788600912228896     
  0.14100000000000001        -0.80261309987521012     
  0.14130000000000004        -0.83333229717051749     
  0.14160000000000000        -0.82381180091636164     
  0.14189999999999997        -0.78183500373012116     
  0.14219999999999999        -0.71738587032825674     
  0.14250000000000002        -0.64144804722152793     
  0.14279999999999998        -0.56500269974870987     
  0.14310000000000000        -0.49717437891638461     
  0.14339999999999997        -0.44468307899699400     
  0.14369999999999999        -0.41113986547496550     
  0.14400000000000002        -0.39667245801968937     
  0.14429999999999998        -0.39817160993387724     
  0.14460000000000001        -0.41048633763104636     
  0.14490000000000003        -0.42676088552038705     
  0.14520000000000000        -0.43989249875817626     
  0.14550000000000002        -0.44352132219517776     
  0.14579999999999999        -0.43261816198461800     
  0.14610000000000001        -0.40466525403178594     
  0.14640000000000003        -0.35916462568626800     
  0.14670000000000000        -0.29829800590413652     
  0.14699999999999996        -0.22598423990661232     
  0.14729999999999999        -0.14734917561473251     
  0.14760000000000001         -6.8174089743834626E-002
  0.14789999999999998          6.2285552939650539E-003
  0.14820000000000000          7.1206233643417369E-002