  -1.4999999999999999E-002     0.0000000000000000     
  -1.4700000000000000E-002     0.0000000000000000     
  -1.4400000000000000E-002     0.0000000000000000     
  -1.4100000000000000E-002     0.0000000000000000     
  -1.3800000000000000E-002     0.0000000000000000     
  -1.3500000000000000E-002     0.0000000000000000     
  -1.3200000000000000E-002     0.0000000000000000     
  -1.2899999999999998E-002     0.0000000000000000     
  -1.2600000000000000E-002     0.0000000000000000     
  -1.2299999999999998E-002     0.0000000000000000     
  -1.2000000000000000E-002     0.0000000000000000     
  -1.1699999999999999E-002     0.0000000000000000     
  -1.1399999999999999E-002     0.0000000000000000     
  -1.1099999999999999E-002     0.0000000000000000     
  -1.0799999999999999E-002     0.0000000000000000     
  -1.0499999999999999E-002     0.0000000000000000     
  -1.0199999999999999E-002     0.0000000000000000     
  -9.8999999999999991E-003     0.0000000000000000     
  -9.5999999999999992E-003     0.0000000000000000     
  -9.2999999999999992E-003     0.0000000000000000     
  -8.9999999999999993E-003     0.0000000000000000     
  -8.6999999999999994E-003     0.0000000000000000     
  -8.3999999999999995E-003     0.0000000000000000     
  -8.0999999999999996E-003     0.0000000000000000     
  -7.7999999999999988E-003     0.0000000000000000     
  -7.4999999999999997E-003     0.0000000000000000     
  -7.1999999999999998E-003     0.0000000000000000     
  -6.8999999999999981E-003     0.0000000000000000     
  -6.5999999999999982E-003     0.0000000000000000     
  -6.3000000000000000E-003     0.0000000000000000     
  -6.0000000000000001E-003     0.0000000000000000     
  -5.6999999999999985E-003     0.0000000000000000     
  -5.3999999999999986E-003     0.0000000000000000     
  -5.1000000000000004E-003     0.0000000000000000     
  -4.7999999999999987E-003     0.0000000000000000     
  -4.5000000000000005E-003     0.0000000000000000     
  -4.1999999999999989E-003     0.0000000000000000     
  -3.8999999999999990E-003     0.0000000000000000     
  -3.5999999999999990E-003     0.0000000000000000     
  -3.2999999999999991E-003     0.0000000000000000     
  -2.9999999999999992E-003     0.0000000000000000     
  -2.6999999999999993E-003     0.0000000000000000     
  -2.3999999999999994E-003     0.0000000000000000     
  -2.0999999999999977E-003     0.0000000000000000     
  -1.7999999999999995E-003     0.0000000000000000     
  -1.4999999999999979E-003     0.0000000000000000     
  -1.1999999999999997E-003     0.0000000000000000     
  -8.9999999999999976E-004     0.0000000000000000     
  -5.9999999999999810E-004     0.0000000000000000     
  -2.9999999999999992E-004     0.0000000000000000     
   0.0000000000000000          0.0000000000000000     
   3.0000000000000165E-004     0.0000000000000000     
   5.9999999999999984E-004     0.0000000000000000     
   9.0000000000000149E-004     0.0000000000000000     
   1.2000000000000031E-003     0.0000000000000000     
   1.5000000000000013E-003     0.0000000000000000     
   1.8000000000000030E-003     0.0000000000000000     
   2.1000000000000012E-003     0.0000000000000000     
   2.3999999999999994E-003     0.0000000000000000     
   2.7000000000000010E-003     0.0000000000000000     
   2.9999999999999992E-003     0.0000000000000000     
   3.3000000000000008E-003     0.0000000000000000     
   3.6000000000000025E-003     0.0000000000000000     
   3.9000000000000007E-003     0.0000000000000000     
   4.2000000000000023E-003     0.0000000000000000     
   4.5000000000000005E-003     0.0000000000000000     
   4.7999999999999987E-003     0.0000000000000000     
   5.1000000000000004E-003     0.0000000000000000     
   5.4000000000000020E-003     0.0000000000000000     
   5.7000000000000037E-003     0.0000000000000000     
   5.9999999999999984E-003     0.0000000000000000     
   6.3000000000000000E-003     0.0000000000000000     
   6.6000000000000017E-003     0.0000000000000000     
   6.9000000000000034E-003     0.0000000000000000     
   7.2000000000000015E-003     0.0000000000000000     
   7.5000000000000032E-003     0.0000000000000000     
   7.8000000000000014E-003     0.0000000000000000     
   8.0999999999999996E-003     0.0000000000000000     
   8.4000000000000012E-003     0.0000000000000000     
   8.7000000000000029E-003     0.0000000000000000     
   9.0000000000000011E-003     0.0000000000000000     
   9.2999999999999992E-003     0.0000000000000000     
   9.6000000000000009E-003     0.0000000000000000     
   9.8999999999999991E-003     0.0000000000000000     
   1.0200000000000001E-002     0.0000000000000000     
   1.0500000000000002E-002     0.0000000000000000     
   1.0800000000000004E-002     0.0000000000000000     
   1.1099999999999999E-002     0.0000000000000000     
   1.1400000000000000E-002     0.0000000000000000     
   1.1700000000000002E-002     0.0000000000000000     
   1.2000000000000004E-002     0.0000000000000000     
   1.2300000000000002E-002     0.0000000000000000     
   1.2600000000000000E-002     0.0000000000000000     
   1.2900000000000002E-002     0.0000000000000000     
   1.3200000000000000E-002     0.0000000000000000     
   1.3500000000000002E-002     0.0000000000000000     
   1.3800000000000003E-002     0.0000000000000000     
   1.4100000000000001E-002     0.0000000000000000     
   1.4400000000000000E-002     0.0000000000000000     
   1.4700000000000001E-002     0.0000000000000000     
   1.4999999999999999E-002     0.0000000000000000     
   1.5300000000000001E-002     0.0000000000000000     
   1.5600000000000003E-002     0.0000000000000000     
   1.5899999999999997E-002     0.0000000000000000     
   1.6199999999999999E-002     0.0000000000000000     
   1.6500000000000001E-002     0.0000000000000000     
   1.6800000000000002E-002     0.0000000000000000     
   1.7100000000000004E-002     0.0000000000000000     
   1.7400000000000006E-002     0.0000000000000000     
   1.7700000000000000E-002     0.0000000000000000     
   1.8000000000000002E-002     0.0000000000000000     
   1.8300000000000004E-002     0.0000000000000000     
   1.8600000000000005E-002     0.0000000000000000     
   1.8900000000000000E-002     0.0000000000000000     
   1.9200000000000002E-002     0.0000000000000000     
   1.9500000000000003E-002     0.0000000000000000     
   1.9799999999999998E-002     0.0000000000000000     
   2.0100000000000000E-002     0.0000000000000000     
   2.0400000000000001E-002     0.0000000000000000     
   2.0700000000000003E-002     0.0000000000000000     
   2.0999999999999998E-002     0.0000000000000000     
   2.1299999999999999E-002     0.0000000000000000     
   2.1600000000000001E-002     0.0000000000000000     
   2.1900000000000003E-002     0.0000000000000000     
   2.2200000000000004E-002     0.0000000000000000     
   2.2500000000000006E-002     0.0000000000000000     
   2.2800000000000001E-002     0.0000000000000000     
   2.3100000000000002E-002     0.0000000000000000     
   2.3400000000000004E-002     0.0000000000000000     
   2.3699999999999999E-002     0.0000000000000000     
   2.4000000000000000E-002     0.0000000000000000     
   2.4300000000000002E-002     0.0000000000000000     
   2.4599999999999997E-002     0.0000000000000000     
   2.4900000000000005E-002     0.0000000000000000     
   2.5200000000000000E-002     0.0000000000000000     
   2.5499999999999995E-002     0.0000000000000000     
   2.5800000000000003E-002     0.0000000000000000     
   2.6099999999999998E-002     0.0000000000000000     
   2.6400000000000007E-002     0.0000000000000000     
   2.6700000000000002E-002     0.0000000000000000     
   2.6999999999999996E-002     0.0000000000000000     
   2.7300000000000005E-002     0.0000000000000000     
   2.7600000000000000E-002     0.0000000000000000     
   2.7900000000000008E-002     0.0000000000000000     
   2.8200000000000003E-002     0.0000000000000000     
   2.8499999999999998E-002     0.0000000000000000     
   2.8800000000000006E-002     0.0000000000000000     
   2.9100000000000001E-002     0.0000000000000000     
   2.9400000000000003E-002     0.0000000000000000     
   2.9700000000000004E-002     0.0000000000000000     
   3.0000000000000006E-002     0.0000000000000000     
   3.0300000000000001E-002     0.0000000000000000     
   3.0600000000000002E-002     0.0000000000000000     
   3.0900000000000004E-002     0.0000000000000000     
   3.1199999999999999E-002     0.0000000000000000     
   3.1500000000000007E-002     0.0000000000000000     
   3.1800000000000002E-002     0.0000000000000000     
   3.2099999999999997E-002     0.0000000000000000     
   3.2400000000000005E-002     0.0000000000000000     
   3.2700000000000000E-002     0.0000000000000000     
   3.3000000000000002E-002     1.1117062853965867E-058
   3.3300000000000003E-002    -2.6141463906534230E-057
   3.3599999999999998E-002     4.3375050811848218E-044
   3.3900000000000000E-002    -2.4900855900756847E-043
   3.4200000000000001E-002    -7.4669604223266297E-044
   3.4500000000000003E-002    -1.1298806203759342E-037
   3.4799999999999998E-002    -5.5760630161202993E-036
   3.5099999999999999E-002     2.2337176834264379E-035
   3.5400000000000001E-002     3.7063651423470819E-035
   3.5699999999999996E-002    -3.3928408344139955E-034
   3.6000000000000004E-002     2.3241976687533469E-033
   3.6299999999999999E-002    -9.6957208615834986E-033
   3.6600000000000008E-002     3.4731548101905578E-032
   3.6900000000000002E-002    -1.1860547069811156E-031
   3.7199999999999997E-002     3.9552227648484534E-031
   3.7500000000000006E-002    -1.2796761564332868E-030
   3.7800000000000000E-002     3.9304107785523984E-030
   3.8100000000000009E-002    -1.1190098224709834E-029
   3.8400000000000004E-002     2.8474013404941623E-029
   3.8699999999999998E-002    -5.9756368197182145E-029
   3.9000000000000007E-002     7.5459457077265522E-029
   3.9300000000000002E-002     1.3540222967586415E-028
   3.9600000000000003E-002    -1.5148992789479762E-027
   3.9900000000000005E-002     7.5180845966359956E-027
   4.0200000000000000E-002    -2.9276923288587772E-026
   4.0500000000000001E-002     9.8968286550375747E-026
   4.0800000000000003E-002    -2.9965720169866526E-025
   4.1100000000000005E-002     8.1516799358056537E-025
   4.1399999999999999E-002    -1.9435254205484059E-024
   4.1700000000000008E-002     3.7187307843092971E-024
   4.2000000000000003E-002    -3.6886401338286926E-024
   4.2299999999999997E-002    -1.1709772828762030E-023
   4.2600000000000006E-002     9.2686294288757609E-023
   4.2900000000000001E-002    -3.8025616168277415E-022
   4.3200000000000002E-002     1.1517684355748524E-021
   4.3500000000000004E-002    -2.5758048182152276E-021
   4.3799999999999999E-002     3.1961412587162366E-021
   4.4100000000000000E-002     4.8499492850802355E-021
   4.4400000000000002E-002    -4.4427155266939352E-020
   4.4700000000000004E-002     1.5223980467717866E-019
   4.4999999999999998E-002    -3.0982863336538516E-019
   4.5300000000000000E-002     1.8742425820624993E-019
   4.5600000000000002E-002     1.3089009272167925E-018
   4.5899999999999996E-002    -5.8577214204403459E-018
   4.6200000000000005E-002     1.2018717579863185E-017
   4.6500000000000000E-002    -4.2927345417322522E-018
   4.6799999999999994E-002    -5.7036959876405418E-017
   4.7100000000000003E-002     1.9625394956974660E-016
   4.7399999999999998E-002    -2.4346625040820744E-016
   4.7700000000000006E-002    -4.1441232971548503E-016
   4.8000000000000001E-002     2.4043019253481082E-015
   4.8300000000000010E-002    -3.7933154305997961E-015
   4.8600000000000004E-002    -3.5733424062158139E-015
   4.8899999999999999E-002     2.7549482952291527E-014
   4.9200000000000008E-002    -4.0677751902693740E-014
   4.9500000000000002E-002    -5.5159150106780152E-014
   4.9800000000000011E-002     3.0408876818537988E-013
   5.0100000000000006E-002    -2.7656468967524658E-013
   5.0400000000000000E-002    -9.8257794721720596E-013
   5.0700000000000009E-002     2.8253791972886487E-012
   5.1000000000000004E-002     4.4001051778826532E-013
   5.1299999999999998E-002    -1.3408087142913374E-011
   5.1600000000000007E-002     1.4458227438047686E-011
   5.1900000000000002E-002     4.2851949265343410E-011
   5.2200000000000010E-002    -1.0559798853161179E-010
   5.2500000000000005E-002    -8.8086335430921744E-011
   5.2800000000000000E-002     5.1090815570261486E-010
   5.3099999999999994E-002     2.0373587351769105E-011
   5.3400000000000003E-002    -2.0742198594667271E-009
   5.3699999999999998E-002     8.3383465227945100E-010
   5.4000000000000006E-002     7.7941949117142864E-009
   5.4300000000000001E-002    -4.7542717445244197E-009
   5.4599999999999996E-002    -2.8868420314633878E-008
   5.4900000000000004E-002     1.4801843746289797E-008
   5.5199999999999999E-002     1.0284417180609730E-007
   5.5499999999999994E-002    -2.2233269908657431E-008
   5.5800000000000002E-002    -3.6402419086301578E-007
   5.6099999999999997E-002    -1.1953122584592805E-007
   5.6400000000000006E-002     1.4741496805241705E-006
   5.6700000000000000E-002     3.6926555849620033E-006
   5.6999999999999995E-002     5.3042116261725012E-006
   5.7300000000000004E-002     7.3355536878076357E-006
   5.7599999999999998E-002     1.2584535902969045E-005
   5.7900000000000007E-002     2.1823552416317741E-005
   5.8200000000000002E-002     3.3733130501941444E-005
   5.8499999999999996E-002     4.9679605851133290E-005
   5.8800000000000005E-002     7.4858217962403708E-005
   5.9100000000000000E-002     1.1381407529155568E-004
   5.9400000000000008E-002     1.6944988262586141E-004
   5.9700000000000003E-002     2.4768297246001469E-004
   6.0000000000000012E-002     3.5892855257021794E-004
   6.0300000000000006E-002     5.1483163346790974E-004
   6.0600000000000001E-002     7.2768709771095226E-004
   6.0900000000000010E-002     1.0122871115452658E-003
   6.1200000000000004E-002     1.3853241769025313E-003
   6.1500000000000013E-002     1.8653045467352614E-003
   6.1800000000000008E-002     2.4738363015438082E-003
   6.2100000000000002E-002     3.2318057451618254E-003
   6.2399999999999997E-002     4.1518527838781301E-003
   6.2700000000000006E-002     5.2384053886754094E-003
   6.3000000000000000E-002     6.4898509747489536E-003
   6.3300000000000009E-002     7.8909079340265982E-003
   6.3600000000000004E-002     9.4012448713085284E-003
   6.3899999999999998E-002     1.0953888978865341E-002
   6.4199999999999993E-002     1.2456275174525761E-002
   6.4500000000000002E-002     1.3785732443432832E-002
   6.4800000000000010E-002     1.4789668238308323E-002
   6.5100000000000005E-002     1.5292885883496244E-002
   6.5400000000000000E-002     1.5103440732798859E-002
   6.5700000000000008E-002     1.4021694487709960E-002
   6.5999999999999989E-002     1.1860490438270352E-002
   6.6299999999999998E-002     8.4768342662263647E-003
   6.6600000000000006E-002     3.7915975658030718E-003
   6.6900000000000001E-002    -2.1871806998124024E-003
   6.7199999999999996E-002    -9.3376353207683394E-003
   6.7500000000000004E-002    -1.7404466309831858E-002
   6.7800000000000013E-002    -2.5994221757636705E-002
   6.8099999999999994E-002    -3.4581672972442461E-002
   6.8400000000000002E-002    -4.2520917942889931E-002
   6.8700000000000011E-002    -4.9076664465176889E-002
   6.8999999999999992E-002    -5.3477758842492826E-002
   6.9300000000000000E-002    -5.4986139144967770E-002
   6.9600000000000009E-002    -5.2973140329190080E-002
   6.9900000000000004E-002    -4.7008275358406473E-002
   7.0199999999999999E-002    -3.6919283149472619E-002
   7.0500000000000007E-002    -2.2857516729110586E-002
   7.0800000000000016E-002    -5.3468344069978200E-003
   7.1099999999999997E-002     1.4711972268143874E-002
   7.1400000000000005E-002     3.6041891897904139E-002
   7.1700000000000000E-002     5.7055732401047533E-002
   7.1999999999999995E-002     7.5934325564704849E-002
   7.2300000000000003E-002     9.0750317981728987E-002
   7.2600000000000012E-002     9.9610055249800489E-002
   7.2900000000000006E-002    0.10079697584360524     
   7.3200000000000001E-002     9.2938064534646536E-002
   7.3499999999999996E-002     7.5131607473788303E-002
   7.3800000000000004E-002     4.7072905846096427E-002
   7.4099999999999999E-002     9.1271043398077449E-003
   7.4400000000000008E-002    -3.7584548818907514E-002
   7.4700000000000003E-002    -9.1266742117502089E-002
   7.5000000000000011E-002   -0.14945282577065575     
   7.5299999999999992E-002   -0.20913926214547943     
   7.5600000000000001E-002   -0.26692802029303397     
   7.5900000000000009E-002   -0.31926396638172461     
   7.6200000000000004E-002   -0.36260718068299708     
   7.6499999999999999E-002   -0.39373254544164071     
   7.6800000000000007E-002   -0.40992706598144912     
   7.7099999999999988E-002   -0.40926715158334315     
   7.7399999999999997E-002   -0.39068689248163541     
   7.7700000000000005E-002   -0.35429363677382358     
   7.8000000000000014E-002   -0.30123969128201894     
   7.8299999999999995E-002   -0.23378206039435842     
   7.8600000000000003E-002   -0.15512035118844586     
   7.8900000000000012E-002    -6.9247605414209545E-002
   7.9199999999999993E-002     1.9401505811231921E-002
   7.9500000000000001E-002    0.10627985230678005     
   7.9800000000000010E-002    0.18705359166195165     
   8.0100000000000018E-002    0.25795996099541285     
   8.0399999999999999E-002    0.31614732516373623     
   8.0700000000000008E-002    0.35994636675846764     
   8.1000000000000003E-002    0.38882070355407655     
   8.1299999999999997E-002    0.40356063351100546     
   8.1600000000000006E-002    0.40601738739893112     
   8.1900000000000014E-002    0.39893832202282797     
   8.2199999999999995E-002    0.38557415540052375     
   8.2500000000000004E-002    0.36928211905374297     
   8.2799999999999999E-002    0.35318838715176504     
   8.3100000000000007E-002    0.33970089792435343     
   8.3400000000000002E-002    0.33032174807379017     
   8.3700000000000011E-002    0.32544447736655546     
   8.4000000000000005E-002    0.32430972276580550     
   8.4300000000000000E-002    0.32510705296029940     
   8.4599999999999995E-002    0.32526574960131971     
   8.4900000000000003E-002    0.32178209640834454     
   8.5199999999999998E-002    0.31152586614621519     
   8.5500000000000007E-002    0.29187388832283151     
   8.5800000000000001E-002    0.26077173980256024     
   8.6100000000000010E-002    0.21730989837680909     
   8.6399999999999991E-002    0.16175870077017146     
   8.6699999999999999E-002     9.5582170971583447E-002
   8.7000000000000008E-002     2.1287332239546829E-002
   8.7300000000000003E-002    -5.7659559700426403E-002
   8.7599999999999997E-002   -0.13734356026812161     
   8.7900000000000006E-002   -0.21378229712747399     
   8.8200000000000014E-002   -0.28306381324759139     
   8.8499999999999995E-002   -0.34213597846378213     
   8.8800000000000004E-002   -0.38857470161898178     
   8.9100000000000013E-002   -0.42108465457812000     
   8.9399999999999993E-002   -0.43936593647642463     
   8.9700000000000002E-002   -0.44390405674575967     
   9.0000000000000011E-002   -0.43600477422715994     
   9.0299999999999991E-002   -0.41724081686338960     
   9.0600000000000000E-002   -0.38938852215594638     
   9.0900000000000009E-002   -0.35383751263476804     
   9.1200000000000017E-002   -0.31171571677078735     
   9.1499999999999998E-002   -0.26350107438337012     
   9.1800000000000007E-002   -0.20908309337845576     
   9.2100000000000001E-002   -0.14796213793487659     
   9.2399999999999996E-002    -7.9329373074741305E-002
   9.2700000000000005E-002    -2.5899799933709129E-003
   9.3000000000000013E-002     8.2632148480524512E-002
   9.3300000000000008E-002    0.17571859726811886     
   9.3600000000000003E-002    0.27529926987815312     
   9.3899999999999997E-002    0.37863938601144859     
   9.4200000000000006E-002    0.48198626721406951     
   9.4500000000000001E-002    0.58049229768829247     
   9.4800000000000009E-002    0.66855917100911344     
   9.5100000000000004E-002    0.74037775913425530     
   9.5399999999999999E-002    0.79028556139988793     
   9.5699999999999993E-002    0.81338909626109890     
   9.6000000000000002E-002    0.80609617071930140     
   9.6300000000000011E-002    0.76653949049310210     
   9.6600000000000005E-002    0.69478211725014960     
   9.6900000000000000E-002    0.59299330225819680     
   9.7200000000000009E-002    0.46553997968060190     
   9.7499999999999989E-002    0.31827806709750911     
   9.7799999999999998E-002    0.15865620771128480     
   9.8100000000000007E-002    -5.2707854643614565E-003
   9.8400000000000015E-002   -0.16519173228110581     
   9.8699999999999996E-002   -0.31342254936703473     
   9.9000000000000005E-002   -0.44328029516879963     
   9.9300000000000013E-002   -0.54980330032799041     
   9.9599999999999994E-002   -0.63009206713750854     
   9.9900000000000003E-002   -0.68318859978014035     
  0.10020000000000001        -0.71062026719661553     
  0.10049999999999999        -0.71570394835042694     
  0.10080000000000000        -0.70362262456729296     
  0.10110000000000001        -0.68049942105203065     
  0.10140000000000000        -0.65323899925281526     
  0.10170000000000000        -0.62847601153950394     
  0.10200000000000001        -0.61223916960177360     
  0.10230000000000002        -0.60916213839673483     
  0.10260000000000000        -0.62205670743156916     
  0.10290000000000001        -0.65163247012457370     
  0.10320000000000000        -0.69617650829725020     
  0.10350000000000001        -0.75188568823246704     
  0.10380000000000000        -0.81275078907919007     
  0.10410000000000001        -0.87128105696386338     
  0.10440000000000001        -0.91915520696849029     
  0.10470000000000000        -0.94767561031793746     
  0.10500000000000000        -0.94891884300886065     
  0.10530000000000000        -0.91614189124632872     
  0.10560000000000000        -0.84491911035865153     
  0.10590000000000001        -0.73318776230979221     
  0.10620000000000000        -0.58215651013351244     
  0.10650000000000001        -0.39582232187375660     
  0.10679999999999999        -0.18141240964273939     
  0.10710000000000000          5.1663117455494040E-002
  0.10740000000000001         0.29209101863562059     
  0.10770000000000000         0.52743983274521999     
  0.10800000000000000         0.74539785935640668     
  0.10830000000000001         0.93446372675397704     
  0.10859999999999999          1.0850049073512376     
  0.10890000000000000          1.1897096399078992     
  0.10920000000000001          1.2444801052333496     
  0.10950000000000001          1.2484587118080002     
  0.10979999999999999          1.2038482089364266     
  0.11009999999999999          1.1159397009670042     
  0.11040000000000001         0.99238260956460245     
  0.11070000000000001         0.84251990321549008     
  0.11100000000000000         0.67639770624765638     
  0.11130000000000000         0.50433864899139369     
  0.11160000000000002         0.33596447073179075     
  0.11190000000000001         0.17936347685533749     
  0.11220000000000001          4.1172834425635178E-002
  0.11250000000000000         -7.4021367345362118E-002
  0.11280000000000000        -0.16365601341189837     
  0.11309999999999999        -0.22705154028351385     
  0.11340000000000001        -0.26474468039431082     
  0.11369999999999998        -0.27868927420007095     
  0.11400000000000000        -0.27136034498996170     
  0.11430000000000000        -0.24568427231628717     
  0.11460000000000002        -0.20448230785720783     
  0.11489999999999999        -0.15053688576394028     
  0.11520000000000001         -8.6409224969733689E-002
  0.11550000000000001         -1.4278556807524326E-002
  0.11580000000000000          6.3701718565621998E-002
  0.11609999999999999         0.14543058607019199     
  0.11640000000000002         0.22871329481821587     
  0.11670000000000001         0.31108911932351946     
  0.11700000000000001         0.38994195226270822     
  0.11730000000000000         0.46235068921127714     
  0.11760000000000000         0.52542685927270960     
  0.11789999999999999         0.57627796813547327     
  0.11820000000000001         0.61237394753887742     
  0.11850000000000001         0.63152665109831008     
  0.11880000000000000         0.63241923330596295     
  0.11910000000000000         0.61429239032438265     
  0.11940000000000002         0.57732881028786054     
  0.11970000000000001         0.52245880234437780     
  0.12000000000000001         0.45140112599175042     
  0.12030000000000000         0.36637283558483408     
  0.12060000000000000         0.27017129646652960     
  0.12089999999999999         0.16575689254995027     
  0.12119999999999999          5.6428729932753934E-002
  0.12150000000000001         -5.4437783892667409E-002
  0.12180000000000001        -0.16350390583433344     
  0.12210000000000000        -0.26742594563576205     
  0.12239999999999999        -0.36280166259439894     
  0.12270000000000002        -0.44662826422993479     
  0.12300000000000001        -0.51582359436108627     
  0.12330000000000001        -0.56766938330269801     
  0.12360000000000000        -0.60007076637304535     
  0.12390000000000000        -0.61158847040502962     
  0.12419999999999999        -0.60139744794268191     
  0.12450000000000001        -0.57002120681844426     
  0.12480000000000001        -0.51890080848441111     
  0.12509999999999999        -0.45072650860764785     
  0.12540000000000001        -0.36927157913320086     
  0.12570000000000003        -0.27930021913628894     
  0.12600000000000000        -0.18625956276019828     
  0.12630000000000002         -9.5995365115402034E-002
  0.12659999999999999         -1.4253075846429798E-002
  0.12690000000000001          5.3482700095297479E-002
  0.12719999999999998         0.10264993708060634     
  0.12750000000000000         0.12981925424593274     
  0.12780000000000002         0.13275196831406380     
  0.12809999999999999         0.11077217751516587     
  0.12840000000000001          6.4863366027482786E-002
  0.12869999999999998         -2.8122641495605177E-003
  0.12900000000000000         -8.8521932272053697E-002
  0.12930000000000003        -0.18764864345072693     
  0.12959999999999999        -0.29450364041060145     
  0.12990000000000002        -0.40303042875128087     
  0.13019999999999998        -0.50657394167335479     
  0.13050000000000000        -0.59890290163759696     
  0.13080000000000003        -0.67380882961603528     
  0.13109999999999999        -0.72593344726133513     
  0.13140000000000002        -0.75088758800251654     
  0.13169999999999998        -0.74559237399813394     
  0.13200000000000001        -0.70864447343504799     
  0.13229999999999997        -0.64054158485898194     
  0.13260000000000000        -0.54372737910170965     
  0.13290000000000002        -0.42266379971254026     
  0.13319999999999999        -0.28381881431077494     
  0.13350000000000001        -0.13504837395321304     
  0.13380000000000003          1.4824432856060547E-002
  0.13410000000000000         0.15644503767980927     
  0.13440000000000002         0.28129451440373870     
  0.13469999999999999         0.38207416296607105     
  0.13500000000000001         0.45346246604315810     
  0.13529999999999998         0.49307103580966527     
  0.13560000000000000         0.50175364910276876     
  0.13590000000000002         0.48334783136865367     
  0.13619999999999999         0.44478667513090092     
  0.13650000000000001         0.39551161508573607     
  0.13680000000000003         0.34592193231547802     
  0.13710000000000000         0.30691770628767745     
  0.13740000000000002         0.28815742175630676     
  0.13769999999999999         0.29694068002716167     
  0.13800000000000001         0.33725312401677543     
  0.13829999999999998         0.40881589289099612     
  0.13860000000000000         0.50721940520606534     
  0.13890000000000002         0.62366923410871178     
  0.13919999999999999         0.74623884825021003     
  0.13950000000000001         0.86056293265928174     
  0.13979999999999998         0.95182925709415889     
  0.14010000000000000          1.0059587879843517     
  0.14040000000000002          1.0116530485865511     
  0.14069999999999999         0.96165284957254371     
  0.14100000000000001         0.85357150239213075     
  0.14130000000000004         0.69052990674950576     
  0.14160000000000000         0.48110850918196324     
  0.14189999999999997         0.23830781286999531     
  0.14219999999999999         -2.1514648727600189E-002
  0.14250000000000002        -0.28032946192077862     
  0.14279999999999998        -0.52008481654454708     
  0.14310000000000000        -0.72509146699161564     
  0.14339999999999997        -0.88270372215689563     
  0.14369999999999999        -0.98517488623894944     
  0.14400000000000002         -1.0298479634459055     
  0.14429999999999998         -1.0193203457891769     
  0.14460000000000001        -0.96080294384215181     
  0.14490000000000003        -0.86501785846557167     
  0.14520000000000000        -0.74486168705498779     
  0.14550000000000002        -0.61393740149831744     
  0.14579999999999999        -0.48517244445386504     
  0.14610000000000001        -0.36921280130549372     
  0.14640000000000003        -0.27420410229284831     
  0.14670000000000000        -0.20464174436632374     
  0.14699999999999996        -0.16169774848459939     
  0.14729999999999999        -0.14375456372251227     
  0.14760000000000001        -0.14658121384705197     
  0.14789999999999998        -0.16441282707125279     
  0.14820000000000000        -0.19076556536687606     