  -1.4999999999999999E-002     0.0000000000000000     
  -1.4700000000000000E-002     0.0000000000000000     
  -1.4400000000000000E-002     0.0000000000000000     
  -1.4100000000000000E-002     0.0000000000000000     
  -1.3800000000000000E-002     0.0000000000000000     
  -1.3500000000000000E-002     0.0000000000000000     
  -1.3200000000000000E-002     0.0000000000000000     
  -1.2899999999999998E-002     0.0000000000000000     
  -1.2600000000000000E-002     0.0000000000000000     
  -1.2299999999999998E-002     0.0000000000000000     
  -1.2000000000000000E-002     0.0000000000000000     
  -1.1699999999999999E-002     0.0000000000000000     
  -1.1399999999999999E-002     0.0000000000000000     
  -1.1099999999999999E-002     0.0000000000000000     
  -1.0799999999999999E-002     0.0000000000000000     
  -1.0499999999999999E-002     0.0000000000000000     
  -1.0199999999999999E-002     0.0000000000000000     
  -9.8999999999999991E-003     0.0000000000000000     
  -9.5999999999999992E-003     0.0000000000000000     
  -9.2999999999999992E-003     0.0000000000000000     
  -8.9999999999999993E-003     0.0000000000000000     
  -8.6999999999999994E-003     0.0000000000000000     
  -8.3999999999999995E-003     0.0000000000000000     
  -8.0999999999999996E-003     0.0000000000000000     
  -7.7999999999999988E-003     0.0000000000000000     
  -7.4999999999999997E-003     0.0000000000000000     
  -7.1999999999999998E-003     0.0000000000000000     
  -6.8999999999999981E-003     0.0000000000000000     
  -6.5999999999999982E-003     0.0000000000000000     
  -6.3000000000000000E-003     0.0000000000000000     
  -6.0000000000000001E-003     0.0000000000000000     
  -5.6999999999999985E-003     0.0000000000000000     
  -5.3999999999999986E-003     0.0000000000000000     
  -5.1000000000000004E-003     0.0000000000000000     
  -4.7999999999999987E-003     0.0000000000000000     
  -4.5000000000000005E-003     0.0000000000000000     
  -4.1999999999999989E-003     0.0000000000000000     
  -3.8999999999999990E-003     0.0000000000000000     
  -3.5999999999999990E-003     0.0000000000000000     
  -3.2999999999999991E-003     0.0000000000000000     
  -2.9999999999999992E-003     0.0000000000000000     
  -2.6999999999999993E-003     0.0000000000000000     
  -2.3999999999999994E-003     0.0000000000000000     
  -2.0999999999999977E-003     0.0000000000000000     
  -1.7999999999999995E-003     0.0000000000000000     
  -1.4999999999999979E-003     0.0000000000000000     
  -1.1999999999999997E-003     0.0000000000000000     
  -8.9999999999999976E-004     0.0000000000000000     
  -5.9999999999999810E-004     0.0000000000000000     
  -2.9999999999999992E-004     0.0000000000000000     
   0.0000000000000000          0.0000000000000000     
   3.0000000000000165E-004     0.0000000000000000     
   5.9999999999999984E-004     0.0000000000000000     
   9.0000000000000149E-004     0.0000000000000000     
   1.2000000000000031E-003     0.0000000000000000     
   1.5000000000000013E-003     0.0000000000000000     
   1.8000000000000030E-003     0.0000000000000000     
   2.1000000000000012E-003     0.0000000000000000     
   2.3999999999999994E-003     0.0000000000000000     
   2.7000000000000010E-003     0.0000000000000000     
   2.9999999999999992E-003     0.0000000000000000     
   3.3000000000000008E-003     0.0000000000000000     
   3.6000000000000025E-003     0.0000000000000000     
   3.9000000000000007E-003     0.0000000000000000     
   4.2000000000000023E-003     0.0000000000000000     
   4.5000000000000005E-003     0.0000000000000000     
   4.7999999999999987E-003     0.0000000000000000     
   5.1000000000000004E-003     0.0000000000000000     
   5.4000000000000020E-003     0.0000000000000000     
   5.7000000000000037E-003     0.0000000000000000     
   5.9999999999999984E-003     0.0000000000000000     
   6.3000000000000000E-003     0.0000000000000000     
   6.6000000000000017E-003     0.0000000000000000     
   6.9000000000000034E-003     0.0000000000000000     
   7.2000000000000015E-003     0.0000000000000000     
   7.5000000000000032E-003     0.0000000000000000     
   7.8000000000000014E-003     0.0000000000000000     
   8.0999999999999996E-003     0.0000000000000000     
   8.4000000000000012E-003     0.0000000000000000     
   8.7000000000000029E-003     0.0000000000000000     
   9.0000000000000011E-003     0.0000000000000000     
   9.2999999999999992E-003     0.0000000000000000     
   9.6000000000000009E-003     0.0000000000000000     
   9.8999999999999991E-003     0.0000000000000000     
   1.0200000000000001E-002     0.0000000000000000     
   1.0500000000000002E-002     0.0000000000000000     
   1.0800000000000004E-002     0.0000000000000000     
   1.1099999999999999E-002     0.0000000000000000     
   1.1400000000000000E-002     0.0000000000000000     
   1.1700000000000002E-002     0.0000000000000000     
   1.2000000000000004E-002     0.0000000000000000     
   1.2300000000000002E-002     0.0000000000000000     
   1.2600000000000000E-002     0.0000000000000000     
   1.2900000000000002E-002     0.0000000000000000     
   1.3200000000000000E-002     0.0000000000000000     
   1.3500000000000002E-002     0.0000000000000000     
   1.3800000000000003E-002     0.0000000000000000     
   1.4100000000000001E-002     0.0000000000000000     
   1.4400000000000000E-002     0.0000000000000000     
   1.4700000000000001E-002     0.0000000000000000     
   1.4999999999999999E-002     0.0000000000000000     
   1.5300000000000001E-002     0.0000000000000000     
   1.5600000000000003E-002     0.0000000000000000     
   1.5899999999999997E-002     0.0000000000000000     
   1.6199999999999999E-002     0.0000000000000000     
   1.6500000000000001E-002     0.0000000000000000     
   1.6800000000000002E-002     0.0000000000000000     
   1.7100000000000004E-002     0.0000000000000000     
   1.7400000000000006E-002     0.0000000000000000     
   1.7700000000000000E-002     0.0000000000000000     
   1.8000000000000002E-002     0.0000000000000000     
   1.8300000000000004E-002     0.0000000000000000     
   1.8600000000000005E-002     0.0000000000000000     
   1.8900000000000000E-002     0.0000000000000000     
   1.9200000000000002E-002     0.0000000000000000     
   1.9500000000000003E-002     0.0000000000000000     
   1.9799999999999998E-002     0.0000000000000000     
   2.0100000000000000E-002     0.0000000000000000     
   2.0400000000000001E-002     0.0000000000000000     
   2.0700000000000003E-002     0.0000000000000000     
   2.0999999999999998E-002     0.0000000000000000     
   2.1299999999999999E-002     0.0000000000000000     
   2.1600000000000001E-002     0.0000000000000000     
   2.1900000000000003E-002     0.0000000000000000     
   2.2200000000000004E-002     0.0000000000000000     
   2.2500000000000006E-002     0.0000000000000000     
   2.2800000000000001E-002     0.0000000000000000     
   2.3100000000000002E-002     0.0000000000000000     
   2.3400000000000004E-002     0.0000000000000000     
   2.3699999999999999E-002     0.0000000000000000     
   2.4000000000000000E-002     0.0000000000000000     
   2.4300000000000002E-002     0.0000000000000000     
   2.4599999999999997E-002     0.0000000000000000     
   2.4900000000000005E-002     0.0000000000000000     
   2.5200000000000000E-002     0.0000000000000000     
   2.5499999999999995E-002     0.0000000000000000     
   2.5800000000000003E-002     0.0000000000000000     
   2.6099999999999998E-002     0.0000000000000000     
   2.6400000000000007E-002     0.0000000000000000     
   2.6700000000000002E-002     0.0000000000000000     
   2.6999999999999996E-002     0.0000000000000000     
   2.7300000000000005E-002     0.0000000000000000     
   2.7600000000000000E-002     0.0000000000000000     
   2.7900000000000008E-002     0.0000000000000000     
   2.8200000000000003E-002    -7.5233285667685604E-059
   2.8499999999999998E-002     2.3458566787301416E-058
   2.8800000000000006E-002     6.9823391046920015E-045
   2.9100000000000001E-002    -1.0215606488365812E-044
   2.9400000000000003E-002    -1.1401762602049712E-044
   2.9700000000000004E-002     9.7183962415075931E-037
   3.0000000000000006E-002    -9.6552838124215262E-037
   3.0300000000000001E-002    -3.1038155786127172E-035
   3.0600000000000002E-002     3.6716200885139094E-035
   3.0900000000000004E-002     6.8714465441343067E-034
   3.1199999999999999E-002    -5.6668009805298898E-033
   3.1500000000000007E-002     2.4495891535904275E-032
   3.1800000000000002E-002    -8.9634454074615347E-032
   3.2099999999999997E-002     3.0035952637351425E-031
   3.2400000000000005E-002    -9.1445529006598036E-031
   3.2700000000000000E-002     2.4600216826999717E-030
   3.3000000000000002E-002    -5.6207283546059182E-030
   3.3300000000000003E-002     9.6449354839673593E-030
   3.3599999999999998E-002    -3.3004156459437182E-030
   3.3900000000000000E-002    -7.8495164502316171E-029
   3.4200000000000001E-002     5.3458782299752579E-028
   3.4500000000000003E-002    -2.5086060156863217E-027
   3.4799999999999998E-002     9.5439684718598655E-027
   3.5099999999999999E-002    -2.9829296592350479E-026
   3.5400000000000001E-002     7.3650251618956665E-026
   3.5699999999999996E-002    -1.2537108555145585E-025
   3.6000000000000004E-002     5.0267915762007482E-026
   3.6299999999999999E-002     5.6719298049999630E-025
   3.6600000000000008E-002    -2.4325158939179644E-024
   3.6900000000000002E-002     5.8433160983277391E-024
   3.7199999999999997E-002    -9.7403962528837402E-024
   3.7500000000000006E-002     1.7647076879442113E-023
   3.7800000000000000E-002    -7.2166280899409263E-023
   3.8100000000000009E-002     3.2996016158011861E-022
   3.8400000000000004E-002    -1.0118898318813396E-021
   3.8699999999999998E-002     1.4495470709347718E-021
   3.9000000000000007E-002     3.4037064521827753E-021
   3.9300000000000002E-002    -2.8752453538407830E-020
   3.9600000000000003E-002     9.3848682887615402E-020
   3.9900000000000005E-002    -1.5400007447726586E-019
   4.0200000000000000E-002    -9.8015592800680673E-020
   4.0500000000000001E-002     1.4236170258207435E-018
   4.0800000000000003E-002    -4.2687645945956534E-018
   4.1100000000000005E-002     4.9767053382473465E-018
   4.1399999999999999E-002     1.0672385448102977E-017
   4.1700000000000008E-002    -6.1659311864292212E-017
   4.2000000000000003E-002     1.1412322301516823E-016
   4.2299999999999997E-002     3.7203458816089817E-017
   4.2600000000000006E-002    -7.2141183149301411E-016
   4.2900000000000001E-002     1.5669338083617823E-015
   4.3200000000000002E-002     1.3574879268705604E-016
   4.3500000000000004E-002    -8.3120518002917897E-015
   4.3799999999999999E-002     1.6518980788919331E-014
   4.4100000000000000E-002     8.7481822413202168E-015
   4.4400000000000002E-002    -9.5936878128157939E-014
   4.4700000000000004E-002     1.2223019804272340E-013
   4.4999999999999998E-002     2.5628805185459765E-013
   4.5300000000000000E-002    -9.4530170087443411E-013
   4.5600000000000002E-002     1.1124372054343830E-013
   4.5899999999999996E-002     4.1525671191689707E-012
   4.6200000000000005E-002    -5.2196295496124919E-012
   4.6500000000000000E-002    -1.3162509589657850E-011
   4.6799999999999994E-002     3.5164935882985509E-011
   4.7100000000000003E-002     2.9329932046723287E-011
   4.7399999999999998E-002    -1.7382198942726332E-010
   4.7700000000000006E-002    -2.3214409380156469E-011
   4.8000000000000001E-002     7.5673812547193429E-010
   4.8300000000000010E-002    -1.8972382811260651E-010
   4.8600000000000004E-002    -3.1307312637244260E-009
   4.8899999999999999E-002     1.3027792993464577E-009
   4.9200000000000008E-002     1.2835768292142597E-008
   4.9500000000000002E-002    -4.4871931920785961E-009
   4.9800000000000011E-002    -5.3205143945350723E-008
   5.0100000000000006E-002    -2.4351648011579726E-009
   5.0400000000000000E-002     1.9864921007042366E-007
   5.0700000000000009E-002     1.0859662112020940E-007
   5.1000000000000004E-002    -7.0343950067232694E-007
   5.1299999999999998E-002    -8.8357688813410820E-007
   5.1600000000000007E-002     3.2572521187440400E-006
   5.1900000000000002E-002     1.4557154044612701E-005
   5.2200000000000010E-002     3.1147348784542438E-005
   5.2500000000000005E-002     4.8411493683379829E-005
   5.2800000000000000E-002     6.6518856685178894E-005
   5.3099999999999994E-002     9.4473559019688967E-005
   5.3400000000000003E-002     1.4501794156388843E-004
   5.3699999999999998E-002     2.2697501244981665E-004
   5.4000000000000006E-002     3.4560237150439401E-004
   5.4300000000000001E-002     5.1195727714072384E-004
   5.4599999999999996E-002     7.5080612876181221E-004
   5.4900000000000004E-002     1.0967293119164701E-003
   5.5199999999999999E-002     1.5826394172345597E-003
   5.5499999999999994E-002     2.2382876029476023E-003
   5.5800000000000002E-002     3.1045179523502041E-003
   5.6099999999999997E-002     4.2420593331598472E-003
   5.6400000000000006E-002     5.7155383143470016E-003
   5.6700000000000000E-002     7.5700800361146606E-003
   5.6999999999999995E-002     9.8285899119799174E-003
   5.7300000000000004E-002     1.2499484304096546E-002
   5.7599999999999998E-002     1.5561550012057718E-002
   5.7900000000000007E-002     1.8931225048774345E-002
   5.8200000000000002E-002     2.2439429662712292E-002
   5.8499999999999996E-002     2.5823524367119165E-002
   5.8800000000000005E-002     2.8705964026309073E-002
   5.9100000000000000E-002     3.0571419917236026E-002
   5.9400000000000008E-002     3.0762085863592008E-002
   5.9700000000000003E-002     2.8499635096288046E-002
   6.0000000000000012E-002     2.2916123399530367E-002
   6.0300000000000006E-002     1.3091260640707522E-002
   6.0600000000000001E-002    -1.8754573642303445E-003
   6.0900000000000010E-002    -2.2755021356271780E-002
   6.1200000000000004E-002    -5.0038557777922862E-002
   6.1500000000000013E-002    -8.3804399240838143E-002
   6.1800000000000008E-002   -0.12357231298135779     
   6.2100000000000002E-002   -0.16819314751927641     
   6.2399999999999997E-002   -0.21570327997416883     
   6.2700000000000006E-002   -0.26327970769498560     
   6.3000000000000000E-002   -0.30725208094367484     
   6.3300000000000009E-002   -0.34326264451322536     
   6.3600000000000004E-002   -0.36642754279361428     
   6.3899999999999998E-002   -0.37165308202539699     
   6.4199999999999993E-002   -0.35401416018490400     
   6.4500000000000002E-002   -0.30932274629400425     
   6.4800000000000010E-002   -0.23457037039510029     
   6.5100000000000005E-002   -0.12843455442681176     
   6.5400000000000000E-002     8.3474536179681483E-003
   6.5700000000000008E-002    0.17262128092330822     
   6.5999999999999989E-002    0.35869074066314655     
   6.6299999999999998E-002    0.55837798425905161     
   6.6600000000000006E-002    0.76137715995613420     
   6.6900000000000001E-002    0.95578045175649085     
   6.7199999999999996E-002     1.1287776293345582     
   6.7500000000000004E-002     1.2675435612065058     
   6.7800000000000013E-002     1.3601808621852334     
   6.8099999999999994E-002     1.3967492656123004     
   6.8400000000000002E-002     1.3700248077068373     
   6.8700000000000011E-002     1.2763184377830841     
   6.8999999999999992E-002     1.1157783329818785     
   6.9300000000000000E-002    0.89277649403030246     
   6.9600000000000009E-002    0.61555379955014877     
   6.9900000000000004E-002    0.29596120271562804     
   7.0199999999999999E-002    -5.1361158848193429E-002
   7.0500000000000007E-002   -0.40976366629707162     
   7.0800000000000016E-002   -0.76179051817448273     
   7.1099999999999997E-002    -1.0900731146108666     
   7.1400000000000005E-002    -1.3785257414209329     
   7.1700000000000000E-002    -1.6132339326231115     
   7.1999999999999995E-002    -1.7833416557932373     
   7.2300000000000003E-002    -1.8814460140050675     
   7.2600000000000012E-002    -1.9040752751127061     
   7.2900000000000006E-002    -1.8517162898503672     
   7.3200000000000001E-002    -1.7287987562421436     
   7.3499999999999996E-002    -1.5431356511647201     
   7.3800000000000004E-002    -1.3056024381678037     
   7.4099999999999999E-002    -1.0293461138206044     
   7.4400000000000008E-002   -0.72909897944093127     
   7.4700000000000003E-002   -0.42026797151327389     
   7.5000000000000011E-002   -0.11813917066454922     
   7.5299999999999992E-002    0.16293427439443459     
   7.5600000000000001E-002    0.41026130537974959     
   7.5900000000000009E-002    0.61342865551512404     
   7.6200000000000004E-002    0.76494032543940715     
   7.6499999999999999E-002    0.86028552500496169     
   7.6800000000000007E-002    0.89839888080698760     
   7.7099999999999988E-002    0.88113487215637520     
   7.7399999999999997E-002    0.81359661036502240     
   7.7700000000000005E-002    0.70312160604052121     
   7.8000000000000014E-002    0.55935800350448217     
   7.8299999999999995E-002    0.39302298613770537     
   7.8600000000000003E-002    0.21588575936359353     
   7.8900000000000012E-002     3.9403885656474742E-002
   7.9199999999999993E-002   -0.12509982364874858     
   7.9500000000000001E-002   -0.26776126175895199     
   7.9800000000000010E-002   -0.37980261647771996     
   8.0100000000000018E-002   -0.45474261284091078     
   8.0399999999999999E-002   -0.48766640079885454     
   8.0700000000000008E-002   -0.47625479344611255     
   8.1000000000000003E-002   -0.42001995653611279     
   8.1299999999999997E-002   -0.32108724273134875     
   8.1600000000000006E-002   -0.18337883136699126     
   8.1900000000000014E-002    -1.3216560627099262E-002
   8.2199999999999995E-002    0.18161590508518791     
   8.2500000000000004E-002    0.39136451703254754     
   8.2799999999999999E-002    0.60542750691795333     
   8.3100000000000007E-002    0.81196147643976091     
   8.3400000000000002E-002    0.99918544831811906     
   8.3700000000000011E-002     1.1553300681208574     
   8.4000000000000005E-002     1.2699191638474727     
   8.4300000000000000E-002     1.3338552784973885     
   8.4599999999999995E-002     1.3406922889312953     
   8.4900000000000003E-002     1.2867380449950883     
   8.5199999999999998E-002     1.1719604794023692     
   8.5500000000000007E-002    0.99992365189332788     
   8.5800000000000001E-002    0.77811587284892814     
   8.6100000000000010E-002    0.51753008656234889     
   8.6399999999999991E-002    0.23219257732214924     
   8.6699999999999999E-002    -6.1456501655283192E-002
   8.7000000000000008E-002   -0.34593892267664356     
   8.7300000000000003E-002   -0.60341090272470099     
   8.7599999999999997E-002   -0.81753296085664384     
   8.7900000000000006E-002   -0.97408736263354434     
   8.8200000000000014E-002    -1.0628753956752899     
   8.8499999999999995E-002    -1.0778325853346651     
   8.8800000000000004E-002    -1.0184556300155561     
   8.9100000000000013E-002   -0.88918316839619593     
   8.9399999999999993E-002   -0.70018911737879019     
   8.9700000000000002E-002   -0.46579391014436977     
   9.0000000000000011E-002   -0.20438662282101636     
   9.0299999999999991E-002     6.3767627226800405E-002
   9.0600000000000000E-002    0.31713313034657886     
   9.0900000000000009E-002    0.53549176743685667     
   9.1200000000000017E-002    0.70057517667461355     
   9.1499999999999998E-002    0.79837924672211336     
   9.1800000000000007E-002    0.81939357958820225     
   9.2100000000000001E-002    0.76024568487428634     
   9.2399999999999996E-002    0.62305319638270762     
   9.2700000000000005E-002    0.41603079652791525     
   9.3000000000000013E-002    0.15216352113158554     
   9.3300000000000008E-002   -0.15128246049632407     
   9.3600000000000003E-002   -0.47466123382955944     
   9.3899999999999997E-002   -0.79686367968089211     
   9.4200000000000006E-002    -1.0974019828034203     
   9.4500000000000001E-002    -1.3574694471528035     
   9.4800000000000009E-002    -1.5613859979503022     
   9.5100000000000004E-002    -1.6975151395445425     
   9.5399999999999999E-002    -1.7586507895463150     
   9.5699999999999993E-002    -1.7424450017895814     
   9.6000000000000002E-002    -1.6507753225782860     
   9.6300000000000011E-002    -1.4896946036443341     
   9.6600000000000005E-002    -1.2682043384667947     
   9.6900000000000000E-002   -0.99776173195465689     
   9.7200000000000009E-002   -0.69086212306709960     
   9.7499999999999989E-002   -0.36067176069507639     
   9.7799999999999998E-002    -1.9729102180865075E-002
   9.8100000000000007E-002    0.31997731501309140     
   9.8400000000000015E-002    0.64780927060379456     
   9.8699999999999996E-002    0.95427913000711162     
   9.9000000000000005E-002     1.2312955924577120     
   9.9300000000000013E-002     1.4718408666422860     
   9.9599999999999994E-002     1.6697683427436203     
   9.9900000000000003E-002     1.8197825056733896     
  0.10020000000000001          1.9174217093193169     
  0.10049999999999999          1.9591740479981508     
  0.10080000000000000          1.9424821247900910     
  0.10110000000000001          1.8662788973533693     
  0.10140000000000000          1.7311281064029134     
  0.10170000000000000          1.5398246137572156     
  0.10200000000000001          1.2972592189556482     
  0.10230000000000002          1.0108542500428339     
  0.10260000000000000         0.69021976393761719     
  0.10290000000000001         0.34711584654056798     
  0.10320000000000000         -5.3514893667616697E-003
  0.10350000000000001        -0.35317966536344297     
  0.10380000000000000        -0.68239045526097764     
  0.10410000000000001        -0.97975290375584556     
  0.10440000000000001         -1.2335096667597965     
  0.10470000000000000         -1.4342482171484632     
  0.10500000000000000         -1.5751201003843904     
  0.10530000000000000         -1.6524174307245250     
  0.10560000000000000         -1.6652376746065434     
  0.10590000000000001         -1.6158957572602826     
  0.10620000000000000         -1.5089659775487791     
  0.10650000000000001         -1.3514661864145812     
  0.10679999999999999         -1.1517136160135142     
  0.10710000000000000        -0.91924423473185535     
  0.10740000000000001        -0.66385567530631318     
  0.10770000000000000        -0.39558237976560967     
  0.10800000000000000        -0.12395700094591632     
  0.10830000000000001         0.14202396696757011     
  0.10859999999999999         0.39427566795904168     
  0.10890000000000000         0.62551832594836632     
  0.10920000000000001         0.82936430482802836     
  0.10950000000000001          1.0003722965533413     
  0.10979999999999999          1.1339011258249596     
  0.11009999999999999          1.2265741895160791     
  0.11040000000000001          1.2757505249910568     
  0.11070000000000001          1.2802827428699581     
  0.11100000000000000          1.2400429315584258     
  0.11130000000000000          1.1569489301579441     
  0.11160000000000002          1.0342370324500356     
  0.11190000000000001         0.87745809986547363     
  0.11220000000000001         0.69353062234297502     
  0.11250000000000000         0.49141538345636832     
  0.11280000000000000         0.28090655885032861     
  0.11309999999999999          7.3056265373884932E-002
  0.11340000000000001        -0.12142960867190633     
  0.11369999999999998        -0.29223528733011195     
  0.11400000000000000        -0.43085369765214010     
  0.11430000000000000        -0.53085387094627245     
  0.11460000000000002        -0.58877224090046887     
  0.11489999999999999        -0.60448855514771116     
  0.11520000000000001        -0.58120274866612076     
  0.11550000000000001        -0.52540201223452454     
  0.11580000000000000        -0.44590088937948452     
  0.11609999999999999        -0.35372451094526136     
  0.11640000000000002        -0.26028448424050182     
  0.11670000000000001        -0.17688770617647676     
  0.11700000000000001        -0.11287561042653220     
  0.11730000000000000         -7.5497060641967526E-002
  0.11760000000000000         -6.8231187385644029E-002
  0.11789999999999999         -9.1267637763875198E-002
  0.11820000000000001        -0.14075477447719012     
  0.11850000000000001        -0.20990362846478969     
  0.11880000000000000        -0.28915238527719578     
  0.11910000000000000        -0.36782261942188699     
  0.11940000000000002        -0.43501985344554678     
  0.11970000000000001        -0.48107746559754516     
  0.12000000000000001        -0.49859777435262304     
  0.12030000000000000        -0.48334387289528896     
  0.12060000000000000        -0.43508413758291503     
  0.12089999999999999        -0.35713073890943609     
  0.12119999999999999        -0.25666073182895555     
  0.12150000000000001        -0.14319573484728765     
  0.12180000000000001         -2.8543646140267998E-002
  0.12210000000000000          7.5623780665925094E-002
  0.12239999999999999         0.15765878642565814     
  0.12270000000000002         0.20866254109612048     
  0.12300000000000001         0.22194004223989669     
  0.12330000000000001         0.19520421497112772     
  0.12360000000000000         0.12910904137863641     
  0.12390000000000000          2.9055812502802394E-002
  0.12419999999999999         -9.7151025769400629E-002
  0.12450000000000001        -0.23827102822208179     
  0.12480000000000001        -0.38234108816250195     
  0.12509999999999999        -0.51608038162630754     
  0.12540000000000001        -0.62760472589594207     
  0.12570000000000003        -0.70580292099283415     
  0.12600000000000000        -0.74256319198338705     
  0.12630000000000002        -0.73222071334517791     
  0.12659999999999999        -0.67293507247174489     
  0.12690000000000001        -0.56587070567494591     
  0.12719999999999998        -0.41570052773451582     
  0.12750000000000000        -0.22990675444674222     
  0.12780000000000002         -1.8587068337790110E-002
  0.12809999999999999         0.20640696646989767     
  0.12840000000000001         0.43221211621918343     
  0.12869999999999998         0.64562958788995850     
  0.12900000000000000         0.83406371298347914     
  0.12930000000000003         0.98596728358101404     
  0.12959999999999999          1.0920902548241322     
  0.12990000000000002          1.1456267894882599     
  0.13019999999999998          1.1431500973465585     
  0.13050000000000000          1.0843107759338040     
  0.13080000000000003         0.97266299066464179     
  0.13109999999999999         0.81469804498573606     
  0.13140000000000002         0.62043279756574210     
  0.13169999999999998         0.40184572567581822     
  0.13200000000000001         0.17298160599390686     
  0.13229999999999997         -5.1872439849893391E-002
  0.13260000000000000        -0.25810825952153776     
  0.13290000000000002        -0.43292463048344171     
  0.13319999999999999        -0.56500745112123685     
  0.13350000000000001        -0.64630884268723854     
  0.13380000000000003        -0.67167604318170882     
  0.13410000000000000        -0.64003378484384132     
  0.13440000000000002        -0.55335516020740694     
  0.13469999999999999        -0.41754538031956195     
  0.13500000000000001        -0.24095800635605552     
  0.13529999999999998         -3.4838058143413404E-002
  0.13560000000000000         0.18824009704377731     
  0.13590000000000002         0.41437822801549273     
  0.13619999999999999         0.62986970276556276     
  0.13650000000000001         0.82113337936327591     
  0.13680000000000003         0.97616529954857734     
  0.13710000000000000          1.0844924503287279     
  0.13740000000000002          1.1383144910333098     
  0.13769999999999999          1.1325330787368746     
  0.13800000000000001          1.0655474711202846     
  0.13829999999999998         0.93890268019152689     
  0.13860000000000000         0.75782198023976355     
  0.13890000000000002         0.53080481483501407     
  0.13919999999999999         0.26953604882881466     
  0.13950000000000001         -1.2116746696743940E-002
  0.13979999999999998        -0.29840675186043020     
  0.14010000000000000        -0.57299179139939316     
  0.14040000000000002        -0.81997162496320908     
  0.14069999999999999         -1.0249245212648923     
  0.14100000000000001         -1.1757911493255653     
  0.14130000000000004         -1.2640416672421775     
  0.14160000000000000         -1.2852500725150462     
  0.14189999999999997         -1.2391567273451711     
  0.14219999999999999         -1.1296837366168964     
  0.14250000000000002        -0.96467876713024636     
  0.14279999999999998        -0.75516760535274341     
  0.14310000000000000        -0.51415109725844721     
  0.14339999999999997        -0.25595757366300526     
  0.14369999999999999          5.0407097363244259E-003
  0.14400000000000002         0.25527119786222147     
  0.14429999999999998         0.48277160730500618     
  0.14460000000000001         0.67746210343831870     
  0.14490000000000003         0.83178413187055755     
  0.14520000000000000         0.94028908301198955     
  0.14550000000000002         0.99990105919825512     
  0.14579999999999999          1.0092161922299177     
  0.14610000000000001         0.96864128383580850     
  0.14640000000000003         0.87981999168207936     
  0.14670000000000000         0.74577951648066465     
  0.14699999999999996         0.57064986404336215     
  0.14729999999999999         0.35999035959028641     
  0.14760000000000001         0.12052169502458926     
  0.14789999999999998        -0.13955757037009323     
  0.14820000000000000        -0.41053170066999378     