  -1.4999999999999999E-002     0.0000000000000000     
  -1.4700000000000000E-002    -5.4653517545421112E-024
  -1.4400000000000000E-002    -2.8818188664477554E-020
  -1.4100000000000000E-002     2.8499230253054041E-017
  -1.3800000000000000E-002     5.4872593957645978E-016
  -1.3500000000000000E-002    -8.5339939202562628E-015
  -1.3200000000000000E-002    -1.9023056545828154E-014
  -1.2899999999999998E-002     2.9693644292171090E-013
  -1.2600000000000000E-002    -2.9903892863434827E-014
  -1.2299999999999998E-002    -2.8860461744461020E-012
  -1.2000000000000000E-002     8.2079895813756184E-013
  -1.1699999999999999E-002     1.3380008138778920E-011
  -1.1399999999999999E-002     5.8044631570311078E-012
  -1.1099999999999999E-002    -4.2219649594989000E-011
  -1.0799999999999999E-002    -7.3781371005700592E-011
  -1.0499999999999999E-002     1.0097060051416014E-010
  -1.0199999999999999E-002     2.5858743204554244E-010
  -9.8999999999999991E-003     4.2432407615906563E-012
  -9.5999999999999992E-003    -4.5053116787082628E-010
  -9.2999999999999992E-003    -8.8130980798652794E-010
  -8.9999999999999993E-003     7.5800728761700523E-012
  -8.6999999999999994E-003     2.4997819760079027E-009
  -8.3999999999999995E-003     2.9158943586694336E-009
  -8.0999999999999996E-003    -2.1371625164604807E-009
  -7.7999999999999988E-003    -9.2425809395210395E-009
  -7.4999999999999997E-003    -4.6018800130984474E-009
  -7.1999999999999998E-003     1.0225124245292687E-008
  -6.8999999999999981E-003     1.6056833379095670E-008
  -6.5999999999999982E-003     1.2754664900400089E-008
  -6.3000000000000000E-003    -1.1338954453084169E-008
  -6.0000000000000001E-003    -5.7099482625992198E-008
  -5.6999999999999985E-003    -4.0727064229749665E-008
  -5.3999999999999986E-003     6.2899340957036867E-008
  -5.1000000000000004E-003     1.1692129254172404E-007
  -4.7999999999999987E-003     3.6516429905973664E-008
  -4.5000000000000005E-003    -9.5725191677651924E-008
  -4.1999999999999989E-003    -1.5488223330857926E-007
  -3.8999999999999990E-003    -1.0842534309861542E-007
  -3.5999999999999990E-003     3.8426881063591312E-008
  -3.2999999999999991E-003     3.1477025435445981E-007
  -2.9999999999999992E-003     3.5673421091564417E-007
  -2.6999999999999993E-003    -2.0418219037824883E-007
  -2.3999999999999994E-003    -5.7827434936440739E-007
  -2.0999999999999977E-003    -1.1177710358118172E-007
  -1.7999999999999995E-003     2.5101076205473488E-007
  -1.4999999999999979E-003     1.3247759055743876E-007
  -1.1999999999999997E-003     2.2525015263136566E-007
  -8.9999999999999976E-004     6.3672450027740468E-008
  -5.9999999999999810E-004    -3.8246564650690395E-007
  -2.9999999999999992E-004     8.9449127157714643E-008
   0.0000000000000000          7.6958084794266391E-007
   3.0000000000000165E-004    -2.2130390833257641E-007
   5.9999999999999984E-004    -2.5191417212161202E-006
   9.0000000000000149E-004    -2.2322758446816898E-006
   1.2000000000000031E-003     4.7152226147560272E-006
   1.5000000000000013E-003     1.7990351892515648E-005
   1.8000000000000030E-003     3.6086094964131271E-005
   2.1000000000000012E-003     5.8266668459962636E-005
   2.3999999999999994E-003     8.4909807474992059E-005
   2.7000000000000010E-003     1.2770457341250530E-004
   2.9999999999999992E-003     2.0560922041737537E-004
   3.3000000000000008E-003     3.2347381791425148E-004
   3.6000000000000025E-003     4.7618752876629750E-004
   3.9000000000000007E-003     6.6688492544515819E-004
   4.2000000000000023E-003     9.0689477071825831E-004
   4.5000000000000005E-003     1.2275485513564153E-003
   4.7999999999999987E-003     1.6837043724713234E-003
   5.1000000000000004E-003     2.3144410738527065E-003
   5.4000000000000020E-003     3.1270997127702265E-003
   5.7000000000000037E-003     4.0928332050714196E-003
   5.9999999999999984E-003     5.1309537846039657E-003
   6.3000000000000000E-003     6.1276764238302221E-003
   6.6000000000000017E-003     6.9064342389120606E-003
   6.9000000000000034E-003     7.1498085060371771E-003
   7.2000000000000015E-003     6.3393096351964818E-003
   7.5000000000000032E-003     3.6637955550628031E-003
   7.8000000000000014E-003    -2.0335564709367056E-003
   8.0999999999999996E-003    -1.2272128560676800E-002
   8.4000000000000012E-003    -2.9034989079032202E-002
   8.7000000000000029E-003    -5.4872388101706797E-002
   9.0000000000000011E-003    -9.2908942040296386E-002
   9.2999999999999992E-003   -0.14682006711020290     
   9.6000000000000009E-003   -0.22078848720781361     
   9.8999999999999991E-003   -0.31931062487931866     
   1.0200000000000001E-002   -0.44690873588731411     
   1.0500000000000002E-002   -0.60780604949230588     
   1.0800000000000004E-002   -0.80538886608427285     
   1.1099999999999999E-002    -1.0416051472175334     
   1.1400000000000000E-002    -1.3162625796207916     
   1.1700000000000002E-002    -1.6262551955293385     
   1.2000000000000004E-002    -1.9649129423854998     
   1.2300000000000002E-002    -2.3214432195535535     
   1.2600000000000000E-002    -2.6806089881599808     
   1.2900000000000002E-002    -3.0226781894268342     
   1.3200000000000000E-002    -3.3239522315031529     
   1.3500000000000002E-002    -3.5573961179726949     
   1.3800000000000003E-002    -3.6942573470458386     
   1.4100000000000001E-002    -3.7058527999746760     
   1.4400000000000000E-002    -3.5659620771819238     
   1.4700000000000001E-002    -3.2531860538349546     
   1.4999999999999999E-002    -2.7537366950937909     
   1.5300000000000001E-002    -2.0636889308929076     
   1.5600000000000003E-002    -1.1908429362321651     
   1.5899999999999997E-002   -0.15649040733244035     
   1.6199999999999999E-002     1.0049411983272425     
   1.6500000000000001E-002     2.2457972896046914     
   1.6800000000000002E-002     3.5081773290609197     
   1.7100000000000004E-002     4.7260457446934705     
   1.7400000000000006E-002     5.8293977884213719     
   1.7700000000000000E-002     6.7494849161828059     
   1.8000000000000002E-002     7.4226243813230459     
   1.8300000000000004E-002     7.7966717000588446     
   1.8600000000000005E-002     7.8343078885726793     
   1.8900000000000000E-002     7.5176281438162444     
   1.9200000000000002E-002     6.8511616077638715     
   1.9500000000000003E-002     5.8631949454063754     
   1.9799999999999998E-002     4.6060290338472214     
   2.0100000000000000E-002     3.1557903278115287     
   2.0400000000000001E-002     1.6084654473768429     
   2.0700000000000003E-002     7.6399061024811754E-002
   2.0999999999999998E-002    -1.3164690563433401     
   2.1299999999999999E-002    -2.4434048484430697     
   2.1600000000000001E-002    -3.1808863616006238     
   2.1900000000000003E-002    -3.4196042105095614     
   2.2200000000000004E-002    -3.0735600549552982     
   2.2500000000000006E-002    -2.0894878431601422     
   2.2800000000000001E-002   -0.45671580949282431     
   2.3100000000000002E-002     1.7865089759002881     
   2.3400000000000004E-002     4.5474305155132901     
   2.3699999999999999E-002     7.6790845603681674     
   2.4000000000000000E-002     10.982714423554068     
   2.4300000000000002E-002     14.217611605150958     
   2.4599999999999997E-002     17.114749220469974     
   2.4900000000000005E-002     19.394577561307720     
   2.5200000000000000E-002     20.790419755607857     
   2.5499999999999995E-002     21.071201620053458     
   2.5800000000000003E-002     20.064278105555577     
   2.6099999999999998E-002     17.676565966715685     
   2.6400000000000007E-002     13.908841796651078     
   2.6700000000000002E-002     8.8639069450306796     
   2.6999999999999996E-002     2.7455180707911895     
   2.7300000000000005E-002    -4.1527568742105441     
   2.7600000000000000E-002    -11.464940771351575     
   2.7900000000000008E-002    -18.780389174423707     
   2.8200000000000003E-002    -25.672937086920044     
   2.8499999999999998E-002    -31.735266579630519     
   2.8800000000000006E-002    -36.610819618747257     
   2.9100000000000001E-002    -40.018676819717577     
   2.9400000000000003E-002    -41.778012264703314     
   2.9700000000000004E-002    -41.816027695479164     
   3.0000000000000006E-002    -40.171669669057820     
   3.0300000000000001E-002    -36.987898715612104     
   3.0600000000000002E-002    -32.495431455594670     
   3.0900000000000004E-002    -26.990287602826488     
   3.1199999999999999E-002    -20.806957418740510     
   3.1500000000000007E-002    -14.293406391856116     
   3.1800000000000002E-002    -7.7812834100484984     
   3.2099999999999997E-002    -1.5667008497384503     
   3.2400000000000005E-002     4.1076504346545644     
   3.2700000000000000E-002     9.0620566758515242     
   3.3000000000000002E-002     13.186318296228794     
   3.3300000000000003E-002     16.432830102878853     
   3.3599999999999998E-002     18.813628057490654     
   3.3900000000000000E-002     20.386996465564476     
   3.4200000000000001E-002     21.243207083336433     
   3.4500000000000003E-002     21.495721545543280     
   3.4799999999999998E-002     21.261208620101471     
   3.5099999999999999E-002     20.654790653392425     
   3.5400000000000001E-002     19.779590230929674     
   3.5699999999999996E-002     18.718668428026277     
   3.6000000000000004E-002     17.537357702346675     
   3.6299999999999999E-002     16.279552373007615     
   3.6600000000000008E-002     14.971410780016416     
   3.6900000000000002E-002     13.623237614624916     
   3.7199999999999997E-002     12.238228449463355     
   3.7500000000000006E-002     10.809076369970697     
   3.7800000000000000E-002     9.3324624060833159     
   3.8100000000000009E-002     7.8038004959897780     
   3.8400000000000004E-002     6.2258825349040414     
   3.8699999999999998E-002     4.6093693086747409     
   3.9000000000000007E-002     2.9717448496929761     
   3.9300000000000002E-002     1.3410132241538815     
   3.9600000000000003E-002   -0.24922207611139391     
   3.9900000000000005E-002    -1.7585072897050833     
   4.0200000000000000E-002    -3.1457475465432689     
   4.0500000000000001E-002    -4.3680288120217279     
   4.0800000000000003E-002    -5.3875708733131882     
   4.1100000000000005E-002    -6.1750159895065151     
   4.1399999999999999E-002    -6.7073346508523155     
   4.1700000000000008E-002    -6.9778610816508433     
   4.2000000000000003E-002    -6.9908655595640585     
   4.2299999999999997E-002    -6.7653228336212443     
   4.2600000000000006E-002    -6.3329772258726997     
   4.2900000000000001E-002    -5.7377126329451480     
   4.3200000000000002E-002    -5.0282075835631428     
   4.3500000000000004E-002    -4.2621394607988501     
   4.3799999999999999E-002    -3.4940356620074668     
   4.4100000000000000E-002    -2.7754244022150094     
   4.4400000000000002E-002    -2.1540710267605281     
   4.4700000000000004E-002    -1.6621816316735742     
   4.4999999999999998E-002    -1.3245545535009029     
   4.5300000000000000E-002    -1.1496335294283928     
   4.5600000000000002E-002    -1.1341839623040937     
   4.5899999999999996E-002    -1.2611234861029113     
   4.6200000000000005E-002    -1.5047249204697393     
   4.6500000000000000E-002    -1.8302206738780118     
   4.6799999999999994E-002    -2.1961330763415363     
   4.7100000000000003E-002    -2.5630380277343283     
   4.7399999999999998E-002    -2.8890353304863812     
   4.7700000000000006E-002    -3.1380635017631682     
   4.8000000000000001E-002    -3.2806057906244392     
   4.8300000000000010E-002    -3.2946234604541971     
   4.8600000000000004E-002    -3.1672076762011168     
   4.8899999999999999E-002    -2.8980165062020617     
   4.9200000000000008E-002    -2.4938296742932895     
   4.9500000000000002E-002    -1.9710735194572750     
   4.9800000000000011E-002    -1.3568552574307469     
   5.0100000000000006E-002   -0.67923810386566452     
   5.0400000000000000E-002     2.5250999255312045E-002
   5.0700000000000009E-002    0.72074881664456392     
   5.1000000000000004E-002     1.3722232930220084     
   5.1299999999999998E-002     1.9473497559924700     
   5.1600000000000007E-002     2.4186242292907916     
   5.1900000000000002E-002     2.7659504131841435     
   5.2200000000000010E-002     2.9779940539878007     
   5.2500000000000005E-002     3.0488699771569236     
   5.2800000000000000E-002     2.9862436030378090     
   5.3099999999999994E-002     2.8012716737591514     
   5.3400000000000003E-002     2.5149786574073207     
   5.3699999999999998E-002     2.1535019274094038     
   5.4000000000000006E-002     1.7459440544406162     
   5.4300000000000001E-002     1.3238161330881915     
   5.4599999999999996E-002    0.91780168285319674     
   5.4900000000000004E-002    0.55599504382934972     
   5.5199999999999999E-002    0.26092975210863323     
   5.5499999999999994E-002     5.0675609808360694E-002
   5.5800000000000002E-002    -6.6271817572939595E-002
   5.6099999999999997E-002    -8.7790198597738567E-002
   5.6400000000000006E-002    -2.0315203361458069E-002
   5.6700000000000000E-002    0.12259218126152485     
   5.6999999999999995E-002    0.32157794343387691     
   5.7300000000000004E-002    0.55271062156715112     
   5.7599999999999998E-002    0.79173694546194562     
   5.7900000000000007E-002     1.0111016230106762     
   5.8200000000000002E-002     1.1898727407598739     
   5.8499999999999996E-002     1.3084028580000131     
   5.8800000000000005E-002     1.3538790719272438     
   5.9100000000000000E-002     1.3202649721243984     
   5.9400000000000008E-002     1.2078532397744661     
   5.9700000000000003E-002     1.0239852312771114     
   6.0000000000000012E-002    0.78060922516760012     
   6.0300000000000006E-002    0.49511778613810564     
   6.0600000000000001E-002    0.18496866484192587     
   6.0900000000000010E-002   -0.12918784978912395     
   6.1200000000000004E-002   -0.43015329946188885     
   6.1500000000000013E-002   -0.70142530602147524     
   6.1800000000000008E-002   -0.92992215485112995     
   6.2100000000000002E-002    -1.1075219510151748     
   6.2399999999999997E-002    -1.2284161146670696     
   6.2700000000000006E-002    -1.2907998015079105     
   6.3000000000000000E-002    -1.2955883089821878     
   6.3300000000000009E-002    -1.2461763028019772     
   6.3600000000000004E-002    -1.1461767234685065     
   6.3899999999999998E-002    -1.0018802293971700     
   6.4199999999999993E-002   -0.81927658120428060     
   6.4500000000000002E-002   -0.60491055823226958     
   6.4800000000000010E-002   -0.36741342534838517     
   6.5100000000000005E-002   -0.11516009579847880     
   6.5400000000000000E-002    0.14009244785340175     
   6.5700000000000008E-002    0.38776761410507310     
   6.5999999999999989E-002    0.61309217828045337     
   6.6299999999999998E-002    0.80244100473203095     
   6.6600000000000006E-002    0.94139116173629001     
   6.6900000000000001E-002     1.0175904720999767     
   6.7199999999999996E-002     1.0210948314626027     
   6.7500000000000004E-002    0.94604620084706736     
   6.7800000000000013E-002    0.79287308527805400     
   6.8099999999999994E-002    0.56607262254749202     
   6.8400000000000002E-002    0.27865898939246136     
   6.8700000000000011E-002    -5.1946702831590363E-002
   6.8999999999999992E-002   -0.40328550035845229     
   6.9300000000000000E-002   -0.75059635862511831     
   6.9600000000000009E-002    -1.0678802598473891     
   6.9900000000000004E-002    -1.3311399573597056     
   7.0199999999999999E-002    -1.5206812769810154     
   7.0500000000000007E-002    -1.6221130289383927     
   7.0800000000000016E-002    -1.6289905595394880     
   7.1099999999999997E-002    -1.5414688263355143     
   7.1400000000000005E-002    -1.3692834700150560     
   7.1700000000000000E-002    -1.1262318701674197     
   7.1999999999999995E-002   -0.83242235953531252     
   7.2300000000000003E-002   -0.51134252299831440     
   7.2600000000000012E-002   -0.18472958505650605     
   7.2900000000000006E-002    0.12478835224658932     
   7.3200000000000001E-002    0.39882783726402532     
   7.3499999999999996E-002    0.62412099906857732     
   7.3800000000000004E-002    0.79290515325444999     
   7.4099999999999999E-002    0.90082897566521591     
   7.4400000000000008E-002    0.95187953924140545     
   7.4700000000000003E-002    0.95100104967567278     
   7.5000000000000011E-002    0.90729885558820123     
   7.5299999999999992E-002    0.83276881220723997     
   7.5600000000000001E-002    0.73756602630834489     
   7.5900000000000009E-002    0.63305881087762916     
   7.6200000000000004E-002    0.52891231015383267     
   7.6499999999999999E-002    0.43239967140965602     
   7.6800000000000007E-002    0.34893464300292965     
   7.7099999999999988E-002    0.28270648841444340     
   7.7399999999999997E-002    0.23337960021867976     
   7.7700000000000005E-002    0.20048261871047249     
   7.8000000000000014E-002    0.18191533448163993     
   7.8299999999999995E-002    0.17211632820968092     
   7.8600000000000003E-002    0.16751880860198382     
   7.8900000000000012E-002    0.16209839561190242     
   7.9199999999999993E-002    0.14979312357624264     
   7.9500000000000001E-002    0.12671676295297718     
   7.9800000000000010E-002     8.8960523843818806E-002
   8.0100000000000018E-002     3.3927431870419467E-002
   8.0399999999999999E-002    -3.7673264005083848E-002
   8.0700000000000008E-002   -0.12474354664996321     
   8.1000000000000003E-002   -0.22420601636802107     
   8.1299999999999997E-002   -0.32913250755842455     
   8.1600000000000006E-002   -0.43573481436486683     
   8.1900000000000014E-002   -0.53548997059106807     
   8.2199999999999995E-002   -0.62251495151893355     
   8.2500000000000004E-002   -0.69131645657095420     
   8.2799999999999999E-002   -0.73660989584076009     
   8.3100000000000007E-002   -0.75575296045421192     
   8.3400000000000002E-002   -0.74751456588304632     
   8.3700000000000011E-002   -0.71172031202030794     
   8.4000000000000005E-002   -0.65036803475799787     
   8.4300000000000000E-002   -0.56685972712497668     
   8.4599999999999995E-002   -0.46463074359683387     
   8.4900000000000003E-002   -0.34934174537766449     
   8.5199999999999998E-002   -0.22555420043155505     
   8.5500000000000007E-002    -9.8946143403448872E-002
   8.5800000000000001E-002     2.4865396727386149E-002
   8.6100000000000010E-002    0.14077066234862531     
   8.6399999999999991E-002    0.24335945600146563     
   8.6699999999999999E-002    0.32907240816842664     
   8.7000000000000008E-002    0.39346408772823344     
   8.7300000000000003E-002    0.43474388673110309     
   8.7599999999999997E-002    0.45142721760166504     
   8.7900000000000006E-002    0.44370419553622864     
   8.8200000000000014E-002    0.41391949888292079     
   8.8499999999999995E-002    0.36501116612321455     
   8.8800000000000004E-002    0.30190477204145216     
   8.9100000000000013E-002    0.22990645554985278     
   8.9399999999999993E-002    0.15530417542232289     
   8.9700000000000002E-002     8.3428160943807700E-002
   9.0000000000000011E-002     2.0817925659759984E-002
   9.0299999999999991E-002    -2.9185716899009298E-002
   9.0600000000000000E-002    -6.2589530104167054E-002
   9.0900000000000009E-002    -7.7708251516483612E-002
   9.1200000000000017E-002    -7.4914349770322561E-002
   9.1499999999999998E-002    -5.4768477739954836E-002
   9.1800000000000007E-002    -1.9492727338608330E-002
   9.2100000000000001E-002     2.7306588167102290E-002
   9.2399999999999996E-002     8.1944229238813920E-002
   9.2700000000000005E-002    0.14115279345887988     
   9.3000000000000013E-002    0.19983649990407501     
   9.3300000000000008E-002    0.25486028418755458     
   9.3600000000000003E-002    0.30328120359498090     
   9.3899999999999997E-002    0.34132569857206652     
   9.4200000000000006E-002    0.36740160926858201     
   9.4500000000000001E-002    0.37965531481191561     
   9.4800000000000009E-002    0.37708785101993658     
   9.5100000000000004E-002    0.35953490924974690     
   9.5399999999999999E-002    0.32805128269030159     
   9.5699999999999993E-002    0.28371658529512755     
   9.6000000000000002E-002    0.22902058731143404     
   9.6300000000000011E-002    0.16738326286182176     
   9.6600000000000005E-002    0.10177364603920908     
   9.6900000000000000E-002     3.6944755164954761E-002
   9.7200000000000009E-002    -2.3682412786414211E-002
   9.7499999999999989E-002    -7.5798919205347787E-002
   9.7799999999999998E-002   -0.11663544229321725     
   9.8100000000000007E-002   -0.14302077263705026     
   9.8400000000000015E-002   -0.15482259863692177     
   9.8699999999999996E-002   -0.15062015890972197     
   9.9000000000000005E-002   -0.13166114561710224     
   9.9300000000000013E-002   -0.10057338113692443     
   9.9599999999999994E-002    -5.9410950098406023E-002
   9.9900000000000003E-002    -1.2138167664649282E-002
  0.10020000000000001          3.6616044255534476E-002
  0.10049999999999999          8.3266011526032052E-002
  0.10080000000000000         0.12351538579188676     
  0.10110000000000001         0.15282928193239870     
  0.10140000000000000         0.16880547102709231     
  0.10170000000000000         0.16856244021933148     
  0.10200000000000001         0.14965684692202189     
  0.10230000000000002         0.11240590680297299     
  0.10260000000000000          5.6178216061163154E-002
  0.10290000000000001         -1.7397883485073991E-002
  0.10320000000000000        -0.10536586032948299     
  0.10350000000000001        -0.20456272429440564     
  0.10380000000000000        -0.31071569336154120     
  0.10410000000000001        -0.41798805289948227     
  0.10440000000000001        -0.52096874831577256     
  0.10470000000000000        -0.61362606908610118     
  0.10500000000000000        -0.68978264561910319     
  0.10530000000000000        -0.74510885332833732     
  0.10560000000000000        -0.77449654496197673     
  0.10590000000000001        -0.77537919431985103     
  0.10620000000000000        -0.74596745928066344     
  0.10650000000000001        -0.68626717320184816     
  0.10679999999999999        -0.59762565733526518     
  0.10710000000000000        -0.48344087973557848     
  0.10740000000000001        -0.34796991455842141     
  0.10770000000000000        -0.19665620217312560     
  0.10800000000000000         -3.6154951085396687E-002
  0.10830000000000001         0.12688942940324463     
  0.10859999999999999         0.28532557984424933     
  0.10890000000000000         0.43169920312529181     
  0.10920000000000001         0.55978901099423883     
  0.10950000000000001         0.66338805146131452     
  0.10979999999999999         0.73789595793001161     
  0.11009999999999999         0.77985091486797198     
  0.11040000000000001         0.78734111512238714     
  0.11070000000000001         0.75995212969585391     
  0.11100000000000000         0.70029833843247802     
  0.11130000000000000         0.61101471210115377     
  0.11160000000000002         0.49772999671464491     
  0.11190000000000001         0.36717901609121889     
  0.11220000000000001         0.22617602362791309     
  0.11250000000000000          8.3120287511990298E-002
  0.11280000000000000         -5.4318586543672435E-002
  0.11309999999999999        -0.17955676346381852     
  0.11340000000000001        -0.28645840831599589     
  0.11369999999999998        -0.37040485011506519     
  0.11400000000000000        -0.42938618639293158     
  0.11430000000000000        -0.46161586701965929     
  0.11460000000000002        -0.46838470943911825     
  0.11489999999999999        -0.45222362811167977     
  0.11520000000000001        -0.41576888779856636     
  0.11550000000000001        -0.36403080565247553     
  0.11580000000000000        -0.30133676513818353     
  0.11609999999999999        -0.23258017517126006     
  0.11640000000000002        -0.16238457700190090     
  0.11670000000000001         -9.5149416782620927E-002
  0.11700000000000001         -3.3839745699147890E-002
  0.11730000000000000          1.8535290716536409E-002
  0.11760000000000000          5.9891430060368206E-002
  0.11789999999999999          8.9791899617903889E-002
  0.11820000000000001         0.10835184156838949     
  0.11850000000000001         0.11578915038974841     
  0.11880000000000000         0.11465083298853801     
  0.11910000000000000         0.10656157799185297     
  0.11940000000000002          9.3614057881447207E-002
  0.11970000000000001          7.9309980556589166E-002
  0.12000000000000001          6.5498922513574101E-002
  0.12030000000000000          5.3461941598009981E-002
  0.12060000000000000          4.6030873739030698E-002
  0.12089999999999999          4.1847497103721765E-002
  0.12119999999999999          4.1917918332954641E-002
  0.12150000000000001          4.5206128611896303E-002
  0.12180000000000001          4.9745527440082545E-002
  0.12210000000000000          5.4194448083038013E-002
  0.12239999999999999          5.7470483649686654E-002
  0.12270000000000002          5.7472178657602950E-002
  0.12300000000000001          5.4103270950034178E-002
  0.12330000000000001          4.7204135634731241E-002
  0.12360000000000000          3.7017782894867644E-002
  0.12390000000000000          2.4934461360732098E-002
  0.12419999999999999          1.2542314116035794E-002
  0.12450000000000001          1.6070448139627307E-003
  0.12480000000000001         -5.9717955718346823E-003
  0.12509999999999999         -8.9611626023711477E-003
  0.12540000000000001         -5.8508312138002075E-003
  0.12570000000000003          3.2533441673282225E-003
  0.12600000000000000          1.9029705892408891E-002
  0.12630000000000002          4.0405598806816524E-002
  0.12659999999999999          6.6805253885766941E-002
  0.12690000000000001          9.6592312492709970E-002
  0.12719999999999998         0.12816470083827694     
  0.12750000000000000         0.16016105885025134     
  0.12780000000000002         0.19091468709973752     
  0.12809999999999999         0.21908996355135735     
  0.12840000000000001         0.24308198269441739     
  0.12869999999999998         0.26239083905644123     
  0.12900000000000000         0.27546694276142025     
  0.12930000000000003         0.28231184546360000     
  0.12959999999999999         0.28201327306979651     
  0.12990000000000002         0.27492058618295634     
  0.13019999999999998         0.26065911990566015     
  0.13050000000000000         0.23934656656136777     
  0.13080000000000003         0.21228810326009864     
  0.13109999999999999         0.17892112046624953     
  0.13140000000000002         0.14060931696280310     
  0.13169999999999998          9.8050766190768718E-002
  0.13200000000000001          5.1965832700147499E-002
  0.13229999999999997          3.1642073011143475E-003
  0.13260000000000000         -4.7125954019569628E-002
  0.13290000000000002         -9.8020827760223472E-002
  0.13319999999999999        -0.14835294381239447     
  0.13350000000000001        -0.19642580004441260     
  0.13380000000000003        -0.24112309826424183     
  0.13410000000000000        -0.28023345400281063     
  0.13440000000000002        -0.31226292181329091     
  0.13469999999999999        -0.33537441393550110     
  0.13500000000000001        -0.34746555106182814     
  0.13529999999999998        -0.34765522932886622     
  0.13560000000000000        -0.33496855412617232     
  0.13590000000000002        -0.30946732585149372     
  0.13619999999999999        -0.27103993618113714     
  0.13650000000000001        -0.22267061745355682     
  0.13680000000000003        -0.16494212858264301     
  0.13710000000000000        -0.10209544732409107     
  0.13740000000000002         -3.7235275243085952E-002
  0.13769999999999999          2.5974505939724977E-002
  0.13800000000000001          8.3491884099590727E-002
  0.13829999999999998         0.13223044733336672     
  0.13860000000000000         0.16882588052721662     
  0.13890000000000002         0.19170031621504297     
  0.13919999999999999         0.19904236454069085     
  0.13950000000000001         0.19095851332038566     
  0.13979999999999998         0.16787606700941032     
  0.14010000000000000         0.13167363690639644     
  0.14040000000000002          8.4599030711948353E-002
  0.14069999999999999          2.9591749575190233E-002
  0.14100000000000001         -2.9377612654499799E-002
  0.14130000000000004         -8.9038050529310561E-002
  0.14160000000000000        -0.14511115462544272     
  0.14189999999999997        -0.19450290078023247     
  0.14219999999999999        -0.23321316069279341     
  0.14250000000000002        -0.25939642176451028     
  0.14279999999999998        -0.27123603109142291     
  0.14310000000000000        -0.26744896729192830     
  0.14339999999999997        -0.24922125329651801     
  0.14369999999999999        -0.21684609386944825     
  0.14400000000000002        -0.17377093889770112     
  0.14429999999999998        -0.12171777887416604     
  0.14460000000000001         -6.5706595661060588E-002
  0.14490000000000003         -8.6004515403844736E-003
  0.14520000000000000          4.5609357125765110E-002
  0.14550000000000002          9.3761552744821702E-002
  0.14579999999999999         0.13292862575428011     
  0.14610000000000001         0.16161679877334176     
  0.14640000000000003         0.17897806059116741     
  0.14670000000000000         0.18440196026115063     
  0.14699999999999996         0.17971266809677458     
  0.14729999999999999         0.16594648287418579     
  0.14760000000000001         0.14521286074764683     
  0.14789999999999998         0.12000367823761626     
  0.14820000000000000          9.2493238631167748E-002