  -1.4999999999999999E-002     0.0000000000000000     
  -1.4700000000000000E-002     0.0000000000000000     
  -1.4400000000000000E-002     0.0000000000000000     
  -1.4100000000000000E-002     0.0000000000000000     
  -1.3800000000000000E-002     0.0000000000000000     
  -1.3500000000000000E-002     0.0000000000000000     
  -1.3200000000000000E-002     0.0000000000000000     
  -1.2899999999999998E-002     0.0000000000000000     
  -1.2600000000000000E-002     0.0000000000000000     
  -1.2299999999999998E-002     0.0000000000000000     
  -1.2000000000000000E-002     0.0000000000000000     
  -1.1699999999999999E-002     0.0000000000000000     
  -1.1399999999999999E-002     0.0000000000000000     
  -1.1099999999999999E-002     0.0000000000000000     
  -1.0799999999999999E-002     0.0000000000000000     
  -1.0499999999999999E-002     0.0000000000000000     
  -1.0199999999999999E-002     0.0000000000000000     
  -9.8999999999999991E-003     0.0000000000000000     
  -9.5999999999999992E-003     0.0000000000000000     
  -9.2999999999999992E-003     0.0000000000000000     
  -8.9999999999999993E-003     0.0000000000000000     
  -8.6999999999999994E-003     0.0000000000000000     
  -8.3999999999999995E-003     0.0000000000000000     
  -8.0999999999999996E-003     0.0000000000000000     
  -7.7999999999999988E-003     0.0000000000000000     
  -7.4999999999999997E-003     0.0000000000000000     
  -7.1999999999999998E-003     0.0000000000000000     
  -6.8999999999999981E-003     0.0000000000000000     
  -6.5999999999999982E-003     0.0000000000000000     
  -6.3000000000000000E-003     0.0000000000000000     
  -6.0000000000000001E-003     0.0000000000000000     
  -5.6999999999999985E-003     0.0000000000000000     
  -5.3999999999999986E-003     0.0000000000000000     
  -5.1000000000000004E-003     0.0000000000000000     
  -4.7999999999999987E-003     0.0000000000000000     
  -4.5000000000000005E-003     0.0000000000000000     
  -4.1999999999999989E-003     0.0000000000000000     
  -3.8999999999999990E-003     0.0000000000000000     
  -3.5999999999999990E-003     0.0000000000000000     
  -3.2999999999999991E-003     0.0000000000000000     
  -2.9999999999999992E-003     0.0000000000000000     
  -2.6999999999999993E-003     0.0000000000000000     
  -2.3999999999999994E-003     0.0000000000000000     
  -2.0999999999999977E-003     0.0000000000000000     
  -1.7999999999999995E-003     0.0000000000000000     
  -1.4999999999999979E-003     0.0000000000000000     
  -1.1999999999999997E-003     0.0000000000000000     
  -8.9999999999999976E-004     0.0000000000000000     
  -5.9999999999999810E-004     0.0000000000000000     
  -2.9999999999999992E-004     0.0000000000000000     
   0.0000000000000000          0.0000000000000000     
   3.0000000000000165E-004     0.0000000000000000     
   5.9999999999999984E-004     0.0000000000000000     
   9.0000000000000149E-004     0.0000000000000000     
   1.2000000000000031E-003     0.0000000000000000     
   1.5000000000000013E-003     0.0000000000000000     
   1.8000000000000030E-003     0.0000000000000000     
   2.1000000000000012E-003     0.0000000000000000     
   2.3999999999999994E-003     0.0000000000000000     
   2.7000000000000010E-003     0.0000000000000000     
   2.9999999999999992E-003     0.0000000000000000     
   3.3000000000000008E-003     0.0000000000000000     
   3.6000000000000025E-003     0.0000000000000000     
   3.9000000000000007E-003     0.0000000000000000     
   4.2000000000000023E-003     0.0000000000000000     
   4.5000000000000005E-003     0.0000000000000000     
   4.7999999999999987E-003     0.0000000000000000     
   5.1000000000000004E-003     0.0000000000000000     
   5.4000000000000020E-003     0.0000000000000000     
   5.7000000000000037E-003     0.0000000000000000     
   5.9999999999999984E-003     0.0000000000000000     
   6.3000000000000000E-003     0.0000000000000000     
   6.6000000000000017E-003     0.0000000000000000     
   6.9000000000000034E-003     0.0000000000000000     
   7.2000000000000015E-003     0.0000000000000000     
   7.5000000000000032E-003     0.0000000000000000     
   7.8000000000000014E-003     0.0000000000000000     
   8.0999999999999996E-003     0.0000000000000000     
   8.4000000000000012E-003     0.0000000000000000     
   8.7000000000000029E-003     0.0000000000000000     
   9.0000000000000011E-003     0.0000000000000000     
   9.2999999999999992E-003     0.0000000000000000     
   9.6000000000000009E-003     0.0000000000000000     
   9.8999999999999991E-003     0.0000000000000000     
   1.0200000000000001E-002     0.0000000000000000     
   1.0500000000000002E-002     0.0000000000000000     
   1.0800000000000004E-002     0.0000000000000000     
   1.1099999999999999E-002     0.0000000000000000     
   1.1400000000000000E-002     0.0000000000000000     
   1.1700000000000002E-002     0.0000000000000000     
   1.2000000000000004E-002     0.0000000000000000     
   1.2300000000000002E-002     0.0000000000000000     
   1.2600000000000000E-002     0.0000000000000000     
   1.2900000000000002E-002     0.0000000000000000     
   1.3200000000000000E-002     0.0000000000000000     
   1.3500000000000002E-002     0.0000000000000000     
   1.3800000000000003E-002     0.0000000000000000     
   1.4100000000000001E-002     0.0000000000000000     
   1.4400000000000000E-002     0.0000000000000000     
   1.4700000000000001E-002     0.0000000000000000     
   1.4999999999999999E-002     0.0000000000000000     
   1.5300000000000001E-002     0.0000000000000000     
   1.5600000000000003E-002     0.0000000000000000     
   1.5899999999999997E-002     0.0000000000000000     
   1.6199999999999999E-002     0.0000000000000000     
   1.6500000000000001E-002     0.0000000000000000     
   1.6800000000000002E-002     0.0000000000000000     
   1.7100000000000004E-002     0.0000000000000000     
   1.7400000000000006E-002     0.0000000000000000     
   1.7700000000000000E-002     0.0000000000000000     
   1.8000000000000002E-002     0.0000000000000000     
   1.8300000000000004E-002     0.0000000000000000     
   1.8600000000000005E-002     0.0000000000000000     
   1.8900000000000000E-002     0.0000000000000000     
   1.9200000000000002E-002     0.0000000000000000     
   1.9500000000000003E-002     0.0000000000000000     
   1.9799999999999998E-002     0.0000000000000000     
   2.0100000000000000E-002     0.0000000000000000     
   2.0400000000000001E-002     0.0000000000000000     
   2.0700000000000003E-002     0.0000000000000000     
   2.0999999999999998E-002     0.0000000000000000     
   2.1299999999999999E-002     0.0000000000000000     
   2.1600000000000001E-002     0.0000000000000000     
   2.1900000000000003E-002     0.0000000000000000     
   2.2200000000000004E-002     0.0000000000000000     
   2.2500000000000006E-002     0.0000000000000000     
   2.2800000000000001E-002     0.0000000000000000     
   2.3100000000000002E-002     0.0000000000000000     
   2.3400000000000004E-002     0.0000000000000000     
   2.3699999999999999E-002     0.0000000000000000     
   2.4000000000000000E-002     1.2573762849168728E-043
   2.4300000000000002E-002    -1.0849544911555430E-042
   2.4599999999999997E-002     7.2299011992635769E-037
   2.4900000000000005E-002    -1.1695086213122825E-035
   2.5200000000000000E-002     5.0459826580236202E-035
   2.5499999999999995E-002    -2.9444496841051660E-034
   2.5800000000000003E-002     1.2267498181174647E-033
   2.6099999999999998E-002    -3.9021483648589028E-033
   2.6400000000000007E-002     1.9527792003891862E-033
   2.6700000000000002E-002     4.8852474253070033E-032
   2.6999999999999996E-002    -2.9664942314394458E-031
   2.7300000000000005E-002     9.8825028986235169E-031
   2.7600000000000000E-002    -1.6503259127713181E-030
   2.7900000000000008E-002    -3.2439626133085493E-030
   2.8200000000000003E-002     3.7929198354216226E-029
   2.8499999999999998E-002    -1.7010981621843471E-028
   2.8800000000000006E-002     5.0015241451216852E-028
   2.9100000000000001E-002    -8.7266798571243306E-028
   2.9400000000000003E-002    -4.3397402109364361E-028
   2.9700000000000004E-002     1.0494582876526429E-026
   3.0000000000000006E-002    -4.8573805767313609E-026
   3.0300000000000001E-002     1.4636632389573349E-025
   3.0600000000000002E-002    -2.9101095774640004E-025
   3.0900000000000004E-002     1.5652419328563468E-025
   3.1199999999999999E-002     1.6484587986069566E-024
   3.1500000000000007E-002    -8.7013341384787251E-024
   3.1800000000000002E-002     2.5406189273102445E-023
   3.2099999999999997E-002    -4.2043329029355935E-023
   3.2400000000000005E-002    -1.5897395541123298E-023
   3.2700000000000000E-002     3.7318909058198403E-022
   3.3000000000000002E-002    -1.3521747151172185E-021
   3.3300000000000003E-002     2.5560396122212739E-021
   3.3599999999999998E-002    -3.1915227159038775E-022
   3.3900000000000000E-002    -1.5529871358975542E-020
   3.4200000000000001E-002     5.5596575062268409E-020
   3.4500000000000003E-002    -9.0406243134914065E-020
   3.4799999999999998E-002    -3.8704016584069753E-020
   3.5099999999999999E-002     6.4323626471154328E-019
   3.5400000000000001E-002    -1.7250527787618784E-018
   3.5699999999999996E-002     1.5065547466989086E-018
   3.6000000000000004E-002     5.0392309517028720E-018
   3.6299999999999999E-002    -2.1925444210068632E-017
   3.6600000000000008E-002     3.2563442676855080E-017
   3.6900000000000002E-002     2.8307732561980986E-017
   3.7199999999999997E-002    -2.4068667893037855E-016
   3.7500000000000006E-002     4.6156644899836948E-016
   3.7800000000000000E-002     8.8781957236269109E-017
   3.8100000000000009E-002    -2.5713671394695533E-015
   3.8400000000000004E-002     5.6669018354215368E-015
   3.8699999999999998E-002    -7.7638017223170616E-017
   3.9000000000000007E-002    -2.8736444585113111E-014
   3.9300000000000002E-002     6.3783720965775642E-014
   3.9600000000000003E-002     1.0257365632138916E-014
   3.9900000000000005E-002    -3.4435325788029973E-013
   4.0200000000000000E-002     6.2258584801446613E-013
   4.0500000000000001E-002     5.6248392674670534E-013
   4.0800000000000003E-002    -4.0658852851109088E-012
   4.1100000000000005E-002     3.9592070167777871E-012
   4.1399999999999999E-002     1.3466944461932557E-011
   4.1700000000000008E-002    -3.7938909211040493E-011
   4.2000000000000003E-002    -1.2880723207181457E-011
   4.2299999999999997E-002     1.8865149402688708E-010
   4.2600000000000006E-002    -1.4617885223424658E-010
   4.2900000000000001E-002    -6.8731116290548346E-010
   4.3200000000000002E-002     1.2106974120056957E-009
   4.3500000000000004E-002     2.0145596863318330E-009
   4.3799999999999999E-002    -6.2116910700545336E-009
   4.4100000000000000E-002    -5.1033008076738184E-009
   4.4400000000000002E-002     2.6359806463206615E-008
   4.4700000000000004E-002     1.3465923855049196E-008
   4.4999999999999998E-002    -1.0166937532260611E-007
   4.5300000000000000E-002    -5.7348253477713092E-008
   4.5600000000000002E-002     3.4384318902696081E-007
   4.5899999999999996E-002     2.8831711803758381E-007
   4.6200000000000005E-002    -1.0680614045888611E-006
   4.6500000000000000E-002    -1.4771263062610985E-006
   4.6799999999999994E-002     3.8878173672952387E-006
   4.7100000000000003E-002     1.5788958649913025E-005
   4.7399999999999998E-002     2.8161888723538856E-005
   4.7700000000000006E-002     3.7211731498912604E-005
   4.8000000000000001E-002     4.9836652879017689E-005
   4.8300000000000010E-002     7.6317599719632348E-005
   4.8600000000000004E-002     1.1930351338628331E-004
   4.8899999999999999E-002     1.7990101793404124E-004
   4.9200000000000008E-002     2.7088719998247653E-004
   4.9500000000000002E-002     4.1286050544260322E-004
   4.9800000000000011E-002     6.2121672936695969E-004
   5.0100000000000006E-002     9.0968351424233415E-004
   5.0400000000000000E-002     1.3047727037488945E-003
   5.0700000000000009E-002     1.8460657334340234E-003
   5.1000000000000004E-002     2.5756275873490371E-003
   5.1299999999999998E-002     3.5370704731945753E-003
   5.1600000000000007E-002     4.7807988513153274E-003
   5.1900000000000002E-002     6.3608750654863388E-003
   5.2200000000000010E-002     8.3281244146244590E-003
   5.2500000000000005E-002     1.0725113929835368E-002
   5.2800000000000000E-002     1.3574682440599974E-002
   5.3099999999999994E-002     1.6865595413045650E-002
   5.3400000000000003E-002     2.0549622455867521E-002
   5.3699999999999998E-002     2.4539859075861203E-002
   5.4000000000000006E-002     2.8690262733027334E-002
   5.4300000000000001E-002     3.2773423104360030E-002
   5.4599999999999996E-002     3.6488230583684035E-002
   5.4900000000000004E-002     3.9480827308191288E-002
   5.5199999999999999E-002     4.1354700839244543E-002
   5.5499999999999994E-002     4.1684482640029476E-002
   5.5800000000000002E-002     4.0051979071131311E-002
   5.6099999999999997E-002     3.6095516574033495E-002
   5.6400000000000006E-002     2.9552251662312738E-002
   5.6700000000000000E-002     2.0310846535098050E-002
   5.6999999999999995E-002     8.4833913821400261E-003
   5.7300000000000004E-002    -5.5690368661829000E-003
   5.7599999999999998E-002    -2.1247117796298891E-002
   5.7900000000000007E-002    -3.7718116409312302E-002
   5.8200000000000002E-002    -5.3943544323316460E-002
   5.8499999999999996E-002    -6.8754737061230448E-002
   5.8800000000000005E-002    -8.0989158216298415E-002
   5.9100000000000000E-002    -8.9638576580507084E-002
   5.9400000000000008E-002    -9.3965496365723392E-002
   5.9700000000000003E-002    -9.3648208819227571E-002
   6.0000000000000012E-002    -8.8914649349258107E-002
   6.0300000000000006E-002    -8.0587868454841893E-002
   6.0600000000000001E-002    -7.0136516855874187E-002
   6.0900000000000010E-002    -5.9630872180402243E-002
   6.1200000000000004E-002    -5.1605874963667642E-002
   6.1500000000000013E-002    -4.8827243800049422E-002
   6.1800000000000008E-002    -5.4040454133874809E-002
   6.2100000000000002E-002    -6.9714721418580095E-002
   6.2399999999999997E-002    -9.7738063768385730E-002
   6.2700000000000006E-002   -0.13907800628315842     
   6.3000000000000000E-002   -0.19353514190817797     
   6.3300000000000009E-002   -0.25958041818993488     
   6.3600000000000004E-002   -0.33429918337954001     
   6.3899999999999998E-002   -0.41336002809625350     
   6.4199999999999993E-002   -0.49112053883955636     
   6.4500000000000002E-002   -0.56094224883965393     
   6.4800000000000010E-002   -0.61548770759087612     
   6.5100000000000005E-002   -0.64714105120811682     
   6.5400000000000000E-002   -0.64860136658695200     
   6.5700000000000008E-002   -0.61337931732244633     
   6.5999999999999989E-002   -0.53643688031588754     
   6.6299999999999998E-002   -0.41473257928166507     
   6.6600000000000006E-002   -0.24773012102360753     
   6.6900000000000001E-002    -3.7860703942851820E-002
   6.7199999999999996E-002    0.20922665731249765     
   6.7500000000000004E-002    0.48463479299848311     
   6.7800000000000013E-002    0.77633031579524203     
   6.8099999999999994E-002     1.0696414238548817     
   6.8400000000000002E-002     1.3479816352386580     
   6.8700000000000011E-002     1.5937606660923587     
   6.8999999999999992E-002     1.7895474960388977     
   6.9300000000000000E-002     1.9194417517998068     
   6.9600000000000009E-002     1.9703110996702762     
   6.9900000000000004E-002     1.9330452080190088     
   7.0199999999999999E-002     1.8036122991838062     
   7.0500000000000007E-002     1.5836451824350373     
   7.0800000000000016E-002     1.2808314259204474     
   7.1099999999999997E-002    0.90864793726565940     
   7.1400000000000005E-002    0.48565441013028876     
   7.1700000000000000E-002     3.4338856754694676E-002
   7.1999999999999995E-002   -0.42044667119996232     
   7.2300000000000003E-002   -0.85332366398060100     
   7.2600000000000012E-002    -1.2402458948066324     
   7.2900000000000006E-002    -1.5603570432616343     
   7.3200000000000001E-002    -1.7975205826354408     
   7.3499999999999996E-002    -1.9416783484707958     
   7.3800000000000004E-002    -1.9892980503464677     
   7.4099999999999999E-002    -1.9435318201659089     
   7.4400000000000008E-002    -1.8138278282468148     
   7.4700000000000003E-002    -1.6146827582303944     
   7.5000000000000011E-002    -1.3642821058964725     
   7.5299999999999992E-002    -1.0828285072739849     
   7.5600000000000001E-002   -0.79045009265442256     
   7.5900000000000009E-002   -0.50582963918713009     
   7.6200000000000004E-002   -0.24442444862683221     
   7.6499999999999999E-002    -1.7552757075500271E-002
   7.6800000000000007E-002    0.16810518567259980     
   7.7099999999999988E-002    0.31061461305351717     
   7.7399999999999997E-002    0.41236924758155352     
   7.7700000000000005E-002    0.47899976112301274     
   7.8000000000000014E-002    0.51840451385098607     
   7.8299999999999995E-002    0.53933957670162602     
   7.8600000000000003E-002    0.55021486655158247     
   7.8900000000000012E-002    0.55801998116925899     
   7.9199999999999993E-002    0.56756489571247648     
   7.9500000000000001E-002    0.58120822515310955     
   7.9800000000000010E-002    0.59878623521938790     
   8.0100000000000018E-002    0.61802775034735169     
   8.0399999999999999E-002    0.63542146076320027     
   8.0700000000000008E-002    0.64681435328510917     
   8.1000000000000003E-002    0.64846194501637811     
   8.1299999999999997E-002    0.63773096254284722     
   8.1600000000000006E-002    0.61372715759632435     
   8.1900000000000014E-002    0.57762086755126818     
   8.2199999999999995E-002    0.53237146323855888     
   8.2500000000000004E-002    0.48239377151836055     
   8.2799999999999999E-002    0.43315762129310115     
   8.3100000000000007E-002    0.39004182519403185     
   8.3400000000000002E-002    0.35750913205419793     
   8.3700000000000011E-002    0.33842414109781832     
   8.4000000000000005E-002    0.33333750982449556     
   8.4300000000000000E-002    0.34019305680071166     
   8.4599999999999995E-002    0.35439058493240339     
   8.4900000000000003E-002    0.36903845624618831     
   8.5199999999999998E-002    0.37584369769680021     
   8.5500000000000007E-002    0.36580624643915105     
   8.5800000000000001E-002    0.33051353276744377     
   8.6100000000000010E-002    0.26312729466419338     
   8.6399999999999991E-002    0.15924954386122378     
   8.6699999999999999E-002     1.7666647832794605E-002
   8.7000000000000008E-002   -0.15933064539446037     
   8.7300000000000003E-002   -0.36590709334806004     
   8.7599999999999997E-002   -0.59306179134036374     
   8.7900000000000006E-002   -0.82942263526928761     
   8.8200000000000014E-002    -1.0621489073411161     
   8.8499999999999995E-002    -1.2779843560201183     
   8.8800000000000004E-002    -1.4643854821049673     
   8.9100000000000013E-002    -1.6104763455089925     
   8.9399999999999993E-002    -1.7078742683799832     
   8.9700000000000002E-002    -1.7511942096043522     
   9.0000000000000011E-002    -1.7382981506453361     
   9.0299999999999991E-002    -1.6703886747309018     
   9.0600000000000000E-002    -1.5514687104849618     
   9.0900000000000009E-002    -1.3880523300596930     
   9.1200000000000017E-002    -1.1884597454997832     
   9.1499999999999998E-002   -0.96217572437272392     
   9.1800000000000007E-002   -0.71937841495518207     
   9.2100000000000001E-002   -0.47004357805480745     
   9.2399999999999996E-002   -0.22369621434027026     
   9.2700000000000005E-002     1.0796881265658392E-002
   9.3000000000000013E-002    0.22580265898631285     
   9.3300000000000008E-002    0.41483430538603716     
   9.3600000000000003E-002    0.57248173883969566     
   9.3899999999999997E-002    0.69485049597947812     
   9.4200000000000006E-002    0.77933299254043764     
   9.4500000000000001E-002    0.82457697762165449     
   9.4800000000000009E-002    0.83089448097406826     
   9.5100000000000004E-002    0.80006660807578656     
   9.5399999999999999E-002    0.73566862377336317     
   9.5699999999999993E-002    0.64313605383168504     
   9.6000000000000002E-002    0.52959475227056474     
   9.6300000000000011E-002    0.40395752040448196     
   9.6600000000000005E-002    0.27656200870871789     
   9.6900000000000000E-002    0.15875089153723129     
   9.7200000000000009E-002     6.2268224823389853E-002
   9.7499999999999989E-002    -1.4649597385313928E-003
   9.7799999999999998E-002    -2.2407402325683033E-002
   9.8100000000000007E-002     7.3884558119556819E-003
   9.8400000000000015E-002     9.2823194331164427E-002
   9.8699999999999996E-002    0.23494253640630647     
   9.9000000000000005E-002    0.43053348127541519     
   9.9300000000000013E-002    0.67183750906087147     
   9.9599999999999994E-002    0.94683419636125521     
   9.9900000000000003E-002     1.2396709136155641     
  0.10020000000000001          1.5316608302799921     
  0.10049999999999999          1.8026049458105509     
  0.10080000000000000          2.0319599235671575     
  0.10110000000000001          2.2006067392900888     
  0.10140000000000000          2.2922658146668260     
  0.10170000000000000          2.2948009285176516     
  0.10200000000000001          2.2013005642441166     
  0.10230000000000002          2.0106992287060321     
  0.10260000000000000          1.7278406332127678     
  0.10290000000000001          1.3634264333908503     
  0.10320000000000000         0.93305862117824201     
  0.10350000000000001         0.45621235798915494     
  0.10380000000000000         -4.4873662697539139E-002
  0.10410000000000001        -0.54708488676537770     
  0.10440000000000001         -1.0277046657375082     
  0.10470000000000000         -1.4657300143758465     
  0.10500000000000000         -1.8432304250993665     
  0.10530000000000000         -2.1461960644771261     
  0.10560000000000000         -2.3647970536033203     
  0.10590000000000001         -2.4938818819839441     
  0.10620000000000000         -2.5330390386725772     
  0.10650000000000001         -2.4856128207667774     
  0.10679999999999999         -2.3586263239465008     
  0.10710000000000000         -2.1622800481933750     
  0.10740000000000001         -1.9086149659586042     
  0.10770000000000000         -1.6113142768037316     
  0.10800000000000000         -1.2850156890344639     
  0.10830000000000001        -0.94418215042193765     
  0.10859999999999999        -0.60313623969334440     
  0.10890000000000000        -0.27542624139470839     
  0.10920000000000001          2.7175722158964969E-002
  0.10950000000000001         0.29421662439235358     
  0.10979999999999999         0.51749228463479180     
  0.11009999999999999         0.69141017404553973     
  0.11040000000000001         0.81249480548210584     
  0.11070000000000001         0.88005804325596004     
  0.11100000000000000         0.89603226977379424     
  0.11130000000000000         0.86434709995581505     
  0.11160000000000002         0.79080003897653994     
  0.11190000000000001         0.68259138723154611     
  0.11220000000000001         0.54757012248612746     
  0.11250000000000000         0.39362015085817342     
  0.11280000000000000         0.22834860423306627     
  0.11309999999999999          5.8460364167012946E-002
  0.11340000000000001        -0.11046783974412018     
  0.11369999999999998        -0.27398753413019017     
  0.11400000000000000        -0.42849454537522391     
  0.11430000000000000        -0.57094553482434862     
  0.11460000000000002        -0.69865587933635198     
  0.11489999999999999        -0.80850408355426462     
  0.11520000000000001        -0.89656130722088268     
  0.11550000000000001        -0.95811174987470993     
  0.11580000000000000        -0.98748951305481092     
  0.11609999999999999        -0.97822934050265864     
  0.11640000000000002        -0.92394238903585113     
  0.11670000000000001        -0.81879622490167847     
  0.11700000000000001        -0.65844715957537869     
  0.11730000000000000        -0.44121839505618005     
  0.11760000000000000        -0.16874780730584840     
  0.11789999999999999         0.15331192279946634     
  0.11820000000000001         0.51491036456306027     
  0.11850000000000001         0.90169306572435293     
  0.11880000000000000          1.2956211128599855     
  0.11910000000000000          1.6757121811374267     
  0.11940000000000002          2.0193459504687756     
  0.11970000000000001          2.3039922228532830     
  0.12000000000000001          2.5084287647078485     
  0.12030000000000000          2.6147894414013555     
  0.12060000000000000          2.6099206998106750     
  0.12089999999999999          2.4860665451320783     
  0.12119999999999999          2.2421836574367862     
  0.12150000000000001          1.8841228283562277     
  0.12180000000000001          1.4241297127411923     
  0.12210000000000000         0.88067489561855572     
  0.12239999999999999         0.27753350710170155     
  0.12270000000000002        -0.35792367235437300     
  0.12300000000000001        -0.99579308224124008     
  0.12330000000000001         -1.6052274417000019     
  0.12360000000000000         -2.1562249318895006     
  0.12390000000000000         -2.6212033844997280     
  0.12419999999999999         -2.9762475090180107     
  0.12450000000000001         -3.2025999623389119     
  0.12480000000000001         -3.2876965622984313     
  0.12509999999999999         -3.2258212235368591     
  0.12540000000000001         -3.0187577937578411     
  0.12570000000000003         -2.6759140313835186     
  0.12600000000000000         -2.2136554642638737     
  0.12630000000000002         -1.6551799810551528     
  0.12659999999999999         -1.0287972839244579     
  0.12690000000000001        -0.36626281965294272     
  0.12719999999999998         0.29812195298909999     
  0.12750000000000000         0.93064089261822136     
  0.12780000000000002          1.5002598281490320     
  0.12809999999999999          1.9794398051650464     
  0.12840000000000001          2.3471676832121315     
  0.12869999999999998          2.5899185722341920     
  0.12900000000000000          2.7015447299043958     
  0.12930000000000003          2.6844901843927507     
  0.12959999999999999          2.5486588426087571     
  0.12990000000000002          2.3100521666512499     
  0.13019999999999998          1.9901106611880834     
  0.13050000000000000          1.6129234231804221     
  0.13080000000000003          1.2038987196242668     
  0.13109999999999999         0.78818053048985071     
  0.13140000000000002         0.38820303034971121     
  0.13169999999999998          2.3309760879923567E-002
  0.13200000000000001        -0.29098629563148581     
  0.13229999999999997        -0.54423028465490075     
  0.13260000000000000        -0.73003621061026991     
  0.13290000000000002        -0.84635867964157907     
  0.13319999999999999        -0.89484558041037499     
  0.13350000000000001        -0.88013641840172252     
  0.13380000000000003        -0.80959063777671536     
  0.13410000000000000        -0.69226266022348426     
  0.13440000000000002        -0.53859378852187656     
  0.13469999999999999        -0.36014240597787806     
  0.13500000000000001        -0.16845218896080472     
  0.13529999999999998          2.4562191956718459E-002
  0.13560000000000000         0.20744925369997624     
  0.13590000000000002         0.37003299269061718     
  0.13619999999999999         0.50335290810527267     
  0.13650000000000001         0.60050389068793120     
  0.13680000000000003         0.65707007016024532     
  0.13710000000000000         0.67120256973419090     
  0.13740000000000002         0.64405473896334242     
  0.13769999999999999         0.57957300121341304     
  0.13800000000000001         0.48413940467669697     
  0.13829999999999998         0.36616225756830945     
  0.13860000000000000         0.23561334268316328     
  0.13890000000000002         0.10297448741346517     
  0.13919999999999999         -2.1601662312760141E-002
  0.13950000000000001        -0.12893079762111900     
  0.13979999999999998        -0.21171025376194941     
  0.14010000000000000        -0.26545925084990452     
  0.14040000000000002        -0.28831125403715596     
  0.14069999999999999        -0.28182784486662454     
  0.14100000000000001        -0.25085830770423068     
  0.14130000000000004        -0.20280276753196855     
  0.14160000000000000        -0.14765337658834141     
  0.14189999999999997         -9.7088487798697901E-002
  0.14219999999999999         -6.3294479757553243E-002
  0.14250000000000002         -5.8438698651948687E-002
  0.14279999999999998         -9.3064398644926619E-002
  0.14310000000000000        -0.17528823220418882     
  0.14339999999999997        -0.30996617991713366     
  0.14369999999999999        -0.49777457724211416     
  0.14400000000000002        -0.73463733247713425     
  0.14429999999999998         -1.0119675934460242     
  0.14460000000000001         -1.3166963279475505     
  0.14490000000000003         -1.6318775790171962     
  0.14520000000000000         -1.9380459008446347     
  0.14550000000000002         -2.2145965638939691     
  0.14579999999999999         -2.4411454945557027     
  0.14610000000000001         -2.5995632238074413     
  0.14640000000000003         -2.6754397311804916     
  0.14670000000000000         -2.6594743059768002     
  0.14699999999999996         -2.5485293575160237     
  0.14729999999999999         -2.3460695823333104     
  0.14760000000000001         -2.0620358409629822     
  0.14789999999999998         -1.7123769039021230     
  0.14820000000000000         -1.3174459678041490     