  -1.4999999999999999E-002     0.0000000000000000     
  -1.4700000000000000E-002     0.0000000000000000     
  -1.4400000000000000E-002     0.0000000000000000     
  -1.4100000000000000E-002     0.0000000000000000     
  -1.3800000000000000E-002     0.0000000000000000     
  -1.3500000000000000E-002     0.0000000000000000     
  -1.3200000000000000E-002     0.0000000000000000     
  -1.2899999999999998E-002     0.0000000000000000     
  -1.2600000000000000E-002     0.0000000000000000     
  -1.2299999999999998E-002     0.0000000000000000     
  -1.2000000000000000E-002     5.2989105981772488E-038
  -1.1699999999999999E-002     4.8925111937211195E-036
  -1.1399999999999999E-002     1.1182719989483652E-035
  -1.1099999999999999E-002    -6.4667674716774866E-034
  -1.0799999999999999E-002     2.4637588130860253E-033
  -1.0499999999999999E-002     3.0078617068841724E-032
  -1.0199999999999999E-002    -1.5641582523357683E-031
  -9.8999999999999991E-003    -6.5906891945488352E-031
  -9.5999999999999992E-003     4.7574402495043909E-030
  -9.2999999999999992E-003     5.8027913207863615E-030
  -8.9999999999999993E-003    -7.6244544514034422E-029
  -8.6999999999999994E-003    -5.9522048042778648E-030
  -8.3999999999999995E-003     7.5426837260958528E-028
  -8.0999999999999996E-003    -1.8222207243261740E-028
  -7.7999999999999988E-003    -5.5088587447766894E-027
  -7.4999999999999997E-003     4.5986864086425275E-028
  -7.1999999999999998E-003     3.3544324560335725E-026
  -6.8999999999999981E-003     1.3149190346678166E-026
  -6.5999999999999982E-003    -1.8456313770954989E-025
  -6.3000000000000000E-003    -1.4630425940434752E-025
  -6.0000000000000001E-003     8.5714934544235430E-025
  -5.6999999999999985E-003     7.3876217418889534E-025
  -5.3999999999999986E-003    -2.1448093143909736E-024
  -5.1000000000000004E-003    -5.2137479773637181E-024
  -4.7999999999999987E-003     4.5950905109894452E-024
  -4.5000000000000005E-003     2.1123219110279223E-023
  -4.1999999999999989E-003    -1.0802207988049305E-023
  -3.8999999999999990E-003    -8.9518542181640207E-025
  -3.5999999999999990E-003    -1.3181477903064446E-022
  -3.2999999999999991E-003    -2.8895219897866493E-023
  -2.9999999999999992E-003     6.3945652728079122E-022
  -2.6999999999999993E-003    -7.0901382787292544E-023
  -2.3999999999999994E-003    -4.3280248014762845E-022
  -2.0999999999999977E-003    -2.8043336429482002E-021
  -1.7999999999999995E-003     1.4510905683477844E-021
  -1.4999999999999979E-003     9.4560896138658930E-021
  -1.1999999999999997E-003    -9.3382156010574592E-021
  -8.9999999999999976E-004     8.3895026058563281E-021
  -5.9999999999999810E-004    -1.5214840673992683E-020
  -2.9999999999999992E-004    -6.0243773667688251E-020
   0.0000000000000000          1.2028272914134660E-019
   3.0000000000000165E-004     5.8051641657913298E-020
   5.9999999999999984E-004    -9.1497558670958255E-020
   9.0000000000000149E-004    -1.8945906409391916E-020
   1.2000000000000031E-003    -5.5672431504335811E-019
   1.5000000000000013E-003     1.7702163625321641E-019
   1.8000000000000030E-003     2.1159795107497850E-018
   2.1000000000000012E-003    -1.0332582465439492E-018
   2.3999999999999994E-003    -3.2704565745552643E-018
   2.7000000000000010E-003     4.1294528026344858E-018
   2.9999999999999992E-003    -2.5014584359499714E-018
   3.3000000000000008E-003    -1.0835665801867149E-017
   3.6000000000000025E-003     2.5072625729907396E-017
   3.9000000000000007E-003     2.0924411244178697E-017
   4.2000000000000023E-003    -6.1538449770786892E-017
   4.5000000000000005E-003    -3.6280258380849751E-017
   4.7999999999999987E-003     8.2987503990572574E-017
   5.1000000000000004E-003     5.2125684467964801E-017
   5.4000000000000020E-003    -5.3528138433687528E-017
   5.7000000000000037E-003    -4.0464356798697207E-017
   5.9999999999999984E-003     1.8188413163049912E-017
   6.3000000000000000E-003     7.4512840251650557E-018
   6.6000000000000017E-003    -2.6656604900540953E-016
   6.9000000000000034E-003    -1.7445043024517701E-016
   7.2000000000000015E-003     1.3733679750191473E-015
   7.5000000000000032E-003     1.1108569183511070E-015
   7.8000000000000014E-003    -3.8357123788511721E-015
   8.0999999999999996E-003    -3.2041371368437156E-015
   8.4000000000000012E-003     7.4748802973593485E-015
   8.7000000000000029E-003     4.9664535146042437E-015
   9.0000000000000011E-003    -1.1420974797892916E-014
   9.2999999999999992E-003    -2.1208354876928501E-015
   9.6000000000000009E-003     1.5614023016302808E-014
   9.8999999999999991E-003    -7.4507105590518403E-015
   1.0200000000000001E-002    -2.3120435171972887E-014
   1.0500000000000002E-002     1.1383062472017600E-014
   1.0800000000000004E-002     4.0351698003642515E-014
   1.1099999999999999E-002     2.3627951073250385E-014
   1.1400000000000000E-002    -7.6097760736142023E-014
   1.1700000000000002E-002    -1.2762758774303177E-013
   1.2000000000000004E-002     1.5144758388215994E-013
   1.2300000000000002E-002     2.7262922113594924E-013
   1.2600000000000000E-002    -3.3448436901699587E-013
   1.2900000000000002E-002    -3.4202627077215648E-013
   1.3200000000000000E-002     7.7056601684761661E-013
   1.3500000000000002E-002     1.7591459277667361E-013
   1.3800000000000003E-002    -1.5466982981697838E-012
   1.4100000000000001E-002     2.2098082180306447E-013
   1.4400000000000000E-002     2.1436099157292286E-012
   1.4700000000000001E-002     6.7927800816065814E-013
   1.4999999999999999E-002    -1.3104753585366312E-012
   1.5300000000000001E-002    -1.2551630088233372E-011
   1.5600000000000003E-002     4.1256418871988898E-012
   1.5899999999999997E-002     7.4737418857252920E-011
   1.6199999999999999E-002    -6.1869378286240363E-011
   1.6500000000000001E-002    -3.1008169003244064E-010
   1.6800000000000002E-002     4.1886869449409841E-010
   1.7100000000000004E-002     1.0566179700687431E-009
   1.7400000000000006E-002    -1.9625889016222885E-009
   1.7700000000000000E-002    -3.2815172654684917E-009
   1.8000000000000002E-002     7.5008428343557771E-009
   1.8300000000000004E-002     1.0300245840339314E-008
   1.8600000000000005E-002    -2.5246434835726612E-008
   1.8900000000000000E-002    -3.6709911030281505E-008
   1.9200000000000002E-002     7.1364198798448785E-008
   1.9500000000000003E-002     1.3412048890409148E-007
   1.9799999999999998E-002    -1.7649962250604854E-007
   2.0100000000000000E-002    -4.9654711948846607E-007
   2.0400000000000001E-002     6.6981565783720839E-007
   2.0700000000000003E-002     4.6932036885103679E-006
   2.0999999999999998E-002     1.1154503644183977E-005
   2.1299999999999999E-002     1.8386872844311893E-005
   2.1600000000000001E-002     2.5900237654775236E-005
   2.1900000000000003E-002     3.5316815617644541E-005
   2.2200000000000004E-002     4.8549742966111965E-005
   2.2500000000000006E-002     6.6673843484200810E-005
   2.2800000000000001E-002     9.2764435101124178E-005
   2.3100000000000002E-002     1.3512687041526288E-004
   2.3400000000000004E-002     2.0333034084822637E-004
   2.3699999999999999E-002     2.9870250676247755E-004
   2.4000000000000000E-002     4.1348319870640476E-004
   2.4300000000000002E-002     5.4423812599593477E-004
   2.4599999999999997E-002     7.0089100113402249E-004
   2.4900000000000005E-002     8.9364510297884050E-004
   2.5200000000000000E-002     1.1117334553747925E-003
   2.5499999999999995E-002     1.3188028738291351E-003
   2.5800000000000003E-002     1.4611203258278510E-003
   2.6099999999999998E-002     1.4668236825725271E-003
   2.6400000000000007E-002     1.2316914740618556E-003
   2.6700000000000002E-002     6.0072191268472578E-004
   2.6999999999999996E-002    -6.4679968266154371E-004
   2.7300000000000005E-002    -2.8002439642959708E-003
   2.7600000000000000E-002    -6.2108465635709780E-003
   2.7900000000000008E-002    -1.1299085082185136E-002
   2.8200000000000003E-002    -1.8580998555352758E-002
   2.8499999999999998E-002    -2.8671289182512605E-002
   2.8800000000000006E-002    -4.2237264231688824E-002
   2.9100000000000001E-002    -5.9942643825751540E-002
   2.9400000000000003E-002    -8.2416615710833613E-002
   2.9700000000000004E-002   -0.11022111416600991     
   3.0000000000000006E-002   -0.14378412242396729     
   3.0300000000000001E-002   -0.18331289443172699     
   3.0600000000000002E-002   -0.22871924852441702     
   3.0900000000000004E-002   -0.27956493340758676     
   3.1199999999999999E-002   -0.33502796447212962     
   3.1500000000000007E-002   -0.39390781015337151     
   3.1800000000000002E-002   -0.45461239079379823     
   3.2099999999999997E-002   -0.51520233198291066     
   3.2400000000000005E-002   -0.57346662482385080     
   3.2700000000000000E-002   -0.62704562959950350     
   3.3000000000000002E-002   -0.67356610951906670     
   3.3300000000000003E-002   -0.71077486018527103     
   3.3599999999999998E-002   -0.73663451907469601     
   3.3900000000000000E-002   -0.74942313417374906     
   3.4200000000000001E-002   -0.74779512339988630     
   3.4500000000000003E-002   -0.73070998065725357     
   3.4799999999999998E-002   -0.69746627112894444     
   3.5099999999999999E-002   -0.64749061233524929     
   3.5400000000000001E-002   -0.58025182363221728     
   3.5699999999999996E-002   -0.49519299802613037     
   3.6000000000000004E-002   -0.39169056031326921     
   3.6299999999999999E-002   -0.26903030678879841     
   3.6600000000000008E-002   -0.12649585513243278     
   3.6900000000000002E-002     3.6232206709395934E-002
   3.7199999999999997E-002    0.21901621073748739     
   3.7500000000000006E-002    0.42059503536211140     
   3.7800000000000000E-002    0.63831168794739268     
   3.8100000000000009E-002    0.86780803566148046     
   3.8400000000000004E-002     1.1027564270258832     
   3.8699999999999998E-002     1.3349639593702753     
   3.9000000000000007E-002     1.5545952483102250     
   3.9300000000000002E-002     1.7508159415699556     
   3.9600000000000003E-002     1.9124044225228523     
   3.9900000000000005E-002     2.0291823826581643     
   4.0200000000000000E-002     2.0926056895488863     
   4.0500000000000001E-002     2.0971198429683224     
   4.0800000000000003E-002     2.0411023315855110     
   4.1100000000000005E-002     1.9271559010717567     
   4.1399999999999999E-002     1.7624338405205084     
   4.1700000000000008E-002     1.5581408786300677     
   4.2000000000000003E-002     1.3286321352796875     
   4.2299999999999997E-002     1.0901105865394194     
   4.2600000000000006E-002    0.85912100135043989     
   4.2900000000000001E-002    0.65057052958981654     
   4.3200000000000002E-002    0.47617811743891136     
   4.3500000000000004E-002    0.34320725350075404     
   4.3799999999999999E-002    0.25332199660412574     
   4.4100000000000000E-002    0.20250488965035712     
   4.4400000000000002E-002    0.18135551786392579     
   4.4700000000000004E-002    0.17638950250185842     
   4.4999999999999998E-002    0.17136392079717072     
   4.5300000000000000E-002    0.14964377409728352     
   4.5600000000000002E-002     9.6179361852951839E-002
   4.5899999999999996E-002    -3.1184506830645581E-004
   4.6200000000000005E-002   -0.14564662063691544     
   4.6500000000000000E-002   -0.33914244432051988     
   4.6799999999999994E-002   -0.57290502250899533     
   4.7100000000000003E-002   -0.83292544634885890     
   4.7399999999999998E-002    -1.0997282137547413     
   4.7700000000000006E-002    -1.3507364856375443     
   4.8000000000000001E-002    -1.5626380683595449     
   4.8300000000000010E-002    -1.7140038311841450     
   4.8600000000000004E-002    -1.7880618787584854     
   4.8899999999999999E-002    -1.7744777935555920     
   4.9200000000000008E-002    -1.6713021321044634     
   4.9500000000000002E-002    -1.4855355196604692     
   4.9800000000000011E-002    -1.2327364364579196     
   5.0100000000000006E-002   -0.93600831430300846     
   5.0400000000000000E-002   -0.62403150127400686     
   5.0700000000000009E-002   -0.32819776409310764     
   5.1000000000000004E-002    -7.9772255854340529E-002
   5.1299999999999998E-002     9.2603264426544624E-002
   5.1600000000000007E-002    0.16659248776764302     
   5.1900000000000002E-002    0.12750252209737298     
   5.2200000000000010E-002    -2.9343945345001121E-002
   5.2500000000000005E-002   -0.29871065128258356     
   5.2800000000000000E-002   -0.66502012045723580     
   5.3099999999999994E-002    -1.1034584100274125     
   5.3400000000000003E-002    -1.5820056259079833     
   5.3699999999999998E-002    -2.0633733623528010     
   5.4000000000000006E-002    -2.5079843774418475     
   5.4300000000000001E-002    -2.8767109004157332     
   5.4599999999999996E-002    -3.1340097125804576     
   5.4900000000000004E-002    -3.2503568153990523     
   5.5199999999999999E-002    -3.2048046523110889     
   5.5499999999999994E-002    -2.9867856597522175     
   5.5800000000000002E-002    -2.5971178864372817     
   5.6099999999999997E-002    -2.0481818426207661     
   5.6400000000000006E-002    -1.3634539215657333     
   5.6700000000000000E-002   -0.57642213779720053     
   5.6999999999999995E-002    0.27244787267868187     
   5.7300000000000004E-002     1.1377796607911941     
   5.7599999999999998E-002     1.9727498115300928     
   5.7900000000000007E-002     2.7330296474639422     
   5.8200000000000002E-002     3.3792877917007527     
   5.8499999999999996E-002     3.8810524159646356     
   5.8800000000000005E-002     4.2185894345473738     
   5.9100000000000000E-002     4.3839805597627262     
   5.9400000000000008E-002     4.3819251535484414     
   5.9700000000000003E-002     4.2287642785289918     
   6.0000000000000012E-002     3.9504393669551225     
   6.0300000000000006E-002     3.5801121456986165     
   6.0600000000000001E-002     3.1553031106350904     
   6.0900000000000010E-002     2.7132126886150272     
   6.1200000000000004E-002     2.2889842709838835     
   6.1500000000000013E-002     1.9117257724998566     
   6.1800000000000008E-002     1.6018264577013281     
   6.2100000000000002E-002     1.3707814928838880     
   6.2399999999999997E-002     1.2197225623678105     
   6.2700000000000006E-002     1.1399337661724829     
   6.3000000000000000E-002     1.1154717902002709     
   6.3300000000000009E-002     1.1237780461994744     
   6.3600000000000004E-002     1.1386438837200217     
   6.3899999999999998E-002     1.1341474694115767     
   6.4199999999999993E-002     1.0856489492355841     
   6.4500000000000002E-002    0.97339769162870593     
   6.4800000000000010E-002    0.78433214670501439     
   6.5100000000000005E-002    0.51264023487493549     
   6.5400000000000000E-002    0.16093321477046740     
   6.5700000000000008E-002   -0.26022994311094139     
   6.5999999999999989E-002   -0.73349337464763420     
   6.6299999999999998E-002    -1.2362730009562464     
   6.6600000000000006E-002    -1.7426130431174012     
   6.6900000000000001E-002    -2.2258435646956976     
   6.7199999999999996E-002    -2.6613375589576482     
   6.7500000000000004E-002    -3.0280883153683615     
   6.7800000000000013E-002    -3.3117907050760538     
   6.8099999999999994E-002    -3.5058155520958945     
   6.8400000000000002E-002    -3.6119569754981660     
   6.8700000000000011E-002    -3.6414555988904835     
   6.8999999999999992E-002    -3.6131437241911772     
   6.9300000000000000E-002    -3.5521403725631453     
   6.9600000000000009E-002    -3.4877832389340218     
   6.9900000000000004E-002    -3.4488038435233479     
   7.0199999999999999E-002    -3.4606474014721433     
   7.0500000000000007E-002    -3.5410111461624769     
   7.0800000000000016E-002    -3.6953274829121190     
   7.1099999999999997E-002    -3.9142220113694730     
   7.1400000000000005E-002    -4.1718377799940667     
   7.1700000000000000E-002    -4.4241687364032281     
   7.1999999999999995E-002    -4.6130910160052760     
   7.2300000000000003E-002    -4.6695125364190551     
   7.2600000000000012E-002    -4.5199811707420103     
   7.2900000000000006E-002    -4.0959839791796515     
   7.3200000000000001E-002    -3.3430873476776202     
   7.3499999999999996E-002    -2.2303196156627143     
   7.3800000000000004E-002   -0.76073322825952872     
   7.4099999999999999E-002     1.0239035362001336     
   7.4400000000000008E-002     3.0397675278668785     
   7.4700000000000003E-002     5.1614016659350108     
   7.5000000000000011E-002     7.2297306652339381     
   7.5299999999999992E-002     9.0627643038455723     
   7.5600000000000001E-002     10.470006291785690     
   7.5900000000000009E-002     11.273387187137567     
   7.6200000000000004E-002     11.323626158026970     
   7.6499999999999999E-002     10.520534690767214     
   7.6800000000000007E-002     8.8272998866887171     
   7.7099999999999988E-002     6.2805606663193778     
   7.7399999999999997E-002     2.9934511433151734     
   7.7700000000000005E-002   -0.84855017338165206     
   7.8000000000000014E-002    -4.9980785550959075     
   7.8299999999999995E-002    -9.1653624253414492     
   7.8600000000000003E-002    -13.040044617381131     
   7.8900000000000012E-002    -16.315642760367904     
   7.9199999999999993E-002    -18.717644364213022     
   7.9500000000000001E-002    -20.025524117136854     
   7.9800000000000010E-002    -20.090141481072589     
   8.0100000000000018E-002    -18.849264544247774     
   8.0399999999999999E-002    -16.330234542778378     
   8.0700000000000008E-002    -12.647466962677214     
   8.1000000000000003E-002    -7.9951218301533817     
   8.1299999999999997E-002    -2.6284945030620657     
   8.1600000000000006E-002     3.1546060023585873     
   8.1900000000000014E-002     9.0349333542412023     
   8.2199999999999995E-002     14.695838693960987     
   8.2500000000000004E-002     19.843250234354329     
   8.2799999999999999E-002     24.222746738807015     
   8.3100000000000007E-002     27.632788562845175     
   8.3400000000000002E-002     29.934317003674074     
   8.3700000000000011E-002     31.051879998868557     
   8.4000000000000005E-002     30.973793940069584     
   8.4300000000000000E-002     29.749893763124483     
   8.4599999999999995E-002     27.478348535070182     
   8.4900000000000003E-002     24.300461685314978     
   8.5199999999999998E-002     20.389404601358937     
   8.5500000000000007E-002     15.935856288432817     
   8.5800000000000001E-002     11.140249750582971     
   8.6100000000000010E-002     6.2033812518015239     
   8.6399999999999991E-002     1.3122544013937354     
   8.6699999999999999E-002    -3.3608509263152224     
   8.7000000000000008E-002    -7.6691785332114026     
   8.7300000000000003E-002    -11.496033484528066     
   8.7599999999999997E-002    -14.754024170321848     
   8.7900000000000006E-002    -17.390420982420864     
   8.8200000000000014E-002    -19.384760840398211     
   8.8499999999999995E-002    -20.745742907278263     
   8.8800000000000004E-002    -21.509074466069769     
   8.9100000000000013E-002    -21.730677602417156     
   8.9399999999999993E-002    -21.482162352314077     
   8.9700000000000002E-002    -20.843011727468198     
   9.0000000000000011E-002    -19.893912638140197     
   9.0299999999999991E-002    -18.713663680257195     
   9.0600000000000000E-002    -17.368684965483205     
   9.0900000000000009E-002    -15.915929646925630     
   9.1200000000000017E-002    -14.396850840554485     
   9.1499999999999998E-002    -12.836242830935872     
   9.1800000000000007E-002    -11.248533083695087     
   9.2100000000000001E-002    -9.6346631222595320     
   9.2399999999999996E-002    -7.9888004268025110     
   9.2700000000000005E-002    -6.3023139122081266     
   9.3000000000000013E-002    -4.5666402384749887     
   9.3300000000000008E-002    -2.7776210402163102     
   9.3600000000000003E-002   -0.93993862067695400     
   9.3899999999999997E-002    0.93269644170699317     
   9.4200000000000006E-002     2.8174138994103557     
   9.4500000000000001E-002     4.6770485126880246     
   9.4800000000000009E-002     6.4713069861014612     
   9.5100000000000004E-002     8.1501260549504924     
   9.5399999999999999E-002     9.6621944405757159     
   9.5699999999999993E-002     10.957864077864173     
   9.6000000000000002E-002     11.994021719377560     
   9.6300000000000011E-002     12.733806817828343     
   9.6600000000000005E-002     13.155463774450265     
   9.6900000000000000E-002     13.250667584924120     
   9.7200000000000009E-002     13.024074329420660     
   9.7499999999999989E-002     12.498766285576185     
   9.7799999999999998E-002     11.708945891923118     
   9.8100000000000007E-002     10.700188665385689     
   9.8400000000000015E-002     9.5272659645597031     
   9.8699999999999996E-002     8.2484057447794417     
   9.9000000000000005E-002     6.9215710061836830     
   9.9300000000000013E-002     5.6033425683301434     
   9.9599999999999994E-002     4.3436331639092431     
   9.9900000000000003E-002     3.1800626360370772     
  0.10020000000000001          2.1447247727691172     
  0.10049999999999999          1.2536537888887760     
  0.10080000000000000         0.51139432564122411     
  0.10110000000000001         -8.6243529648777406E-002
  0.10140000000000000        -0.55525015669589817     
  0.10170000000000000        -0.92040215009935333     
  0.10200000000000001         -1.2088979477543300     
  0.10230000000000002         -1.4532976468220156     
  0.10260000000000000         -1.6857126431851110     
  0.10290000000000001         -1.9334675422212744     
  0.10320000000000000         -2.2216384855587492     
  0.10350000000000001         -2.5657134942875954     
  0.10380000000000000         -2.9720733812414788     
  0.10410000000000001         -3.4395613387996828     
  0.10440000000000001         -3.9539230094953739     
  0.10470000000000000         -4.4936612724706357     
  0.10500000000000000         -5.0292518815698193     
  0.10530000000000000         -5.5253461029129163     
  0.10560000000000000         -5.9441792254690213     
  0.10590000000000001         -6.2493617378702222     
  0.10620000000000000         -6.4080433415785558     
  0.10650000000000001         -6.3941549913036217     
  0.10679999999999999         -6.1924201357401518     
  0.10710000000000000         -5.7981594909483753     
  0.10740000000000001         -5.2202248517231622     
  0.10770000000000000         -4.4775559697235643     
  0.10800000000000000         -3.6031889983880490     
  0.10830000000000001         -2.6355083281175529     
  0.10859999999999999         -1.6218618980833370     
  0.10890000000000000        -0.61077486326569708     
  0.10920000000000001         0.35018974996187380     
  0.10950000000000001          1.2158534842277671     
  0.10979999999999999          1.9495712638352791     
  0.11009999999999999          2.5227084975092735     
  0.11040000000000001          2.9162706908547218     
  0.11070000000000001          3.1235112738973587     
  0.11100000000000000          3.1480521358006870     
  0.11130000000000000          3.0026937620518033     
  0.11160000000000002          2.7105595449569999     
  0.11190000000000001          2.3012415178269960     
  0.11220000000000001          1.8088990049165217     
  0.11250000000000000          1.2732898903720964     
  0.11280000000000000         0.73359165789244796     
  0.11309999999999999         0.22942817416125394     
  0.11340000000000001        -0.20206415153695112     
  0.11369999999999998        -0.52813728103563440     
  0.11400000000000000        -0.72331994253880871     
  0.11430000000000000        -0.76890383620590641     
  0.11460000000000002        -0.65633964320000959     
  0.11489999999999999        -0.38916021942060802     
  0.11520000000000001          2.0315909852528735E-002
  0.11550000000000001         0.54651537564538155     
  0.11580000000000000          1.1540324177837773     
  0.11609999999999999          1.7999528769656119     
  0.11640000000000002          2.4347225166266986     
  0.11670000000000001          3.0065993368241788     
  0.11700000000000001          3.4665831767909623     
  0.11730000000000000          3.7710023477283414     
  0.11760000000000000          3.8856847940802473     
  0.11789999999999999          3.7908487049768098     
  0.11820000000000001          3.4808378858458715     
  0.11850000000000001          2.9672100916857138     
  0.11880000000000000          2.2781859359666328     
  0.11910000000000000          1.4549331251112176     
  0.11940000000000002         0.55071845054615842     
  0.11970000000000001        -0.37467577355312959     
  0.12000000000000001         -1.2593039294548394     
  0.12030000000000000         -2.0457130035519846     
  0.12060000000000000         -2.6821531463332380     
  0.12089999999999999         -3.1308346805871663     
  0.12119999999999999         -3.3684058491777833     
  0.12150000000000001         -3.3869497159406947     
  0.12180000000000001         -3.1961808206787339     
  0.12210000000000000         -2.8212079244793542     
  0.12239999999999999         -2.2981423407856814     
  0.12270000000000002         -1.6737586997185920     
  0.12300000000000001         -1.0004572132780938     
  0.12330000000000001        -0.32931331519879525     
  0.12360000000000000         0.28934072827068680     
  0.12390000000000000         0.81211102960514392     
  0.12419999999999999          1.2071982732614788     
  0.12450000000000001          1.4502584814706172     
  0.12480000000000001          1.5323724405715466     
  0.12509999999999999          1.4562498493249350     
  0.12540000000000001          1.2354393409796023     
  0.12570000000000003         0.89333384448715014     
  0.12600000000000000         0.46278299696637815     
  0.12630000000000002         -1.9788301275685483E-002
  0.12659999999999999        -0.51485503092456353     
  0.12690000000000001        -0.98210636480728986     
  0.12719999999999998         -1.3864590246245201     
  0.12750000000000000         -1.6972916798826554     
  0.12780000000000002         -1.8912828276811702     
  0.12809999999999999         -1.9549692634540188     
  0.12840000000000001         -1.8854078640218832     
  0.12869999999999998         -1.6883160473752215     
  0.12900000000000000         -1.3808681474796183     
  0.12930000000000003        -0.98789671730124806     
  0.12959999999999999        -0.53866846365661814     
  0.12990000000000002         -6.9688530805462973E-002
  0.13019999999999998         0.38448481362968823     
  0.13050000000000000         0.79021994683171592     
  0.13080000000000003          1.1167725485440987     
  0.13109999999999999          1.3425954684818397     
  0.13140000000000002          1.4528864866119398     
  0.13169999999999998          1.4427979714957475     
  0.13200000000000001          1.3169253340795313     
  0.13229999999999997          1.0897807752175688     
  0.13260000000000000         0.78165996798175930     
  0.13290000000000002         0.42118173134764114     
  0.13319999999999999          3.7995173365843335E-002
  0.13350000000000001        -0.33497433597715232     
  0.13380000000000003        -0.66762015273089803     
  0.13410000000000000        -0.93351040331857771     
  0.13440000000000002         -1.1106633485017541     
  0.13469999999999999         -1.1863653680832709     
  0.13500000000000001         -1.1537220115503788     
  0.13529999999999998         -1.0149780498662557     
  0.13560000000000000        -0.78062549773314527     
  0.13590000000000002        -0.46629917424173550     
  0.13619999999999999         -9.5835576176536263E-002
  0.13650000000000001         0.30511902544770264     
  0.13680000000000003         0.70810999037498745     
  0.13710000000000000          1.0843403138711603     
  0.13740000000000002          1.4069583140872286     
  0.13769999999999999          1.6543951436844937     
  0.13800000000000001          1.8069944861078273     
  0.13829999999999998          1.8557293832365120     
  0.13860000000000000          1.7964415281540962     
  0.13890000000000002          1.6318653771067844     
  0.13919999999999999          1.3751981620172218     
  0.13950000000000001          1.0423577112168121     
  0.13979999999999998         0.65639754679504536     
  0.14010000000000000         0.24364098675770196     
  0.14040000000000002        -0.16899684518664687     
  0.14069999999999999        -0.55494971164597762     
  0.14100000000000001        -0.89028466173135257     
  0.14130000000000004         -1.1552750245898786     
  0.14160000000000000         -1.3371076537428523     
  0.14189999999999997         -1.4267492440660883     
  0.14219999999999999         -1.4254860736574098     
  0.14250000000000002         -1.3378108693896811     
  0.14279999999999998         -1.1754699801860282     
  0.14310000000000000        -0.95487940336874333     
  0.14339999999999997        -0.69453552125335771     
  0.14369999999999999        -0.41481121725658399     
  0.14400000000000002        -0.13676087076697274     
  0.14429999999999998         0.12032187841945352     
  0.14460000000000001         0.34138850748911143     
  0.14490000000000003         0.51136482445763831     
  0.14520000000000000         0.62309954149396340     
  0.14550000000000002         0.67177409202530214     
  0.14579999999999999         0.65744868917878907     
  0.14610000000000001         0.58571457685453510     
  0.14640000000000003         0.46470845971814245     
  0.14670000000000000         0.30676306039819135     
  0.14699999999999996         0.12569852611769419     
  0.14729999999999999         -6.2277132214428044E-002
  0.14760000000000001        -0.24244838758369419     
  0.14789999999999998        -0.39999470717066210     
  0.14820000000000000        -0.52244531303036856     