  -1.4999999999999999E-002     0.0000000000000000     
  -1.4700000000000000E-002     0.0000000000000000     
  -1.4400000000000000E-002     0.0000000000000000     
  -1.4100000000000000E-002     0.0000000000000000     
  -1.3800000000000000E-002     0.0000000000000000     
  -1.3500000000000000E-002     0.0000000000000000     
  -1.3200000000000000E-002     0.0000000000000000     
  -1.2899999999999998E-002     0.0000000000000000     
  -1.2600000000000000E-002     0.0000000000000000     
  -1.2299999999999998E-002     0.0000000000000000     
  -1.2000000000000000E-002     0.0000000000000000     
  -1.1699999999999999E-002     0.0000000000000000     
  -1.1399999999999999E-002     0.0000000000000000     
  -1.1099999999999999E-002     0.0000000000000000     
  -1.0799999999999999E-002     0.0000000000000000     
  -1.0499999999999999E-002     0.0000000000000000     
  -1.0199999999999999E-002     0.0000000000000000     
  -9.8999999999999991E-003     0.0000000000000000     
  -9.5999999999999992E-003     0.0000000000000000     
  -9.2999999999999992E-003     0.0000000000000000     
  -8.9999999999999993E-003     0.0000000000000000     
  -8.6999999999999994E-003     0.0000000000000000     
  -8.3999999999999995E-003     0.0000000000000000     
  -8.0999999999999996E-003     0.0000000000000000     
  -7.7999999999999988E-003     0.0000000000000000     
  -7.4999999999999997E-003     0.0000000000000000     
  -7.1999999999999998E-003     0.0000000000000000     
  -6.8999999999999981E-003     0.0000000000000000     
  -6.5999999999999982E-003     0.0000000000000000     
  -6.3000000000000000E-003     0.0000000000000000     
  -6.0000000000000001E-003     0.0000000000000000     
  -5.6999999999999985E-003     0.0000000000000000     
  -5.3999999999999986E-003     0.0000000000000000     
  -5.1000000000000004E-003     0.0000000000000000     
  -4.7999999999999987E-003     0.0000000000000000     
  -4.5000000000000005E-003     0.0000000000000000     
  -4.1999999999999989E-003     0.0000000000000000     
  -3.8999999999999990E-003     0.0000000000000000     
  -3.5999999999999990E-003     0.0000000000000000     
  -3.2999999999999991E-003     0.0000000000000000     
  -2.9999999999999992E-003     0.0000000000000000     
  -2.6999999999999993E-003     0.0000000000000000     
  -2.3999999999999994E-003     0.0000000000000000     
  -2.0999999999999977E-003     0.0000000000000000     
  -1.7999999999999995E-003     0.0000000000000000     
  -1.4999999999999979E-003     0.0000000000000000     
  -1.1999999999999997E-003     0.0000000000000000     
  -8.9999999999999976E-004     0.0000000000000000     
  -5.9999999999999810E-004     0.0000000000000000     
  -2.9999999999999992E-004     0.0000000000000000     
   0.0000000000000000          0.0000000000000000     
   3.0000000000000165E-004     0.0000000000000000     
   5.9999999999999984E-004     0.0000000000000000     
   9.0000000000000149E-004     0.0000000000000000     
   1.2000000000000031E-003     0.0000000000000000     
   1.5000000000000013E-003     0.0000000000000000     
   1.8000000000000030E-003     0.0000000000000000     
   2.1000000000000012E-003     0.0000000000000000     
   2.3999999999999994E-003     0.0000000000000000     
   2.7000000000000010E-003     0.0000000000000000     
   2.9999999999999992E-003     0.0000000000000000     
   3.3000000000000008E-003     0.0000000000000000     
   3.6000000000000025E-003     0.0000000000000000     
   3.9000000000000007E-003     0.0000000000000000     
   4.2000000000000023E-003     0.0000000000000000     
   4.5000000000000005E-003     0.0000000000000000     
   4.7999999999999987E-003     0.0000000000000000     
   5.1000000000000004E-003     0.0000000000000000     
   5.4000000000000020E-003     0.0000000000000000     
   5.7000000000000037E-003     0.0000000000000000     
   5.9999999999999984E-003     0.0000000000000000     
   6.3000000000000000E-003     0.0000000000000000     
   6.6000000000000017E-003     0.0000000000000000     
   6.9000000000000034E-003     0.0000000000000000     
   7.2000000000000015E-003     0.0000000000000000     
   7.5000000000000032E-003     0.0000000000000000     
   7.8000000000000014E-003     0.0000000000000000     
   8.0999999999999996E-003     0.0000000000000000     
   8.4000000000000012E-003     0.0000000000000000     
   8.7000000000000029E-003     0.0000000000000000     
   9.0000000000000011E-003     0.0000000000000000     
   9.2999999999999992E-003     0.0000000000000000     
   9.6000000000000009E-003     0.0000000000000000     
   9.8999999999999991E-003     0.0000000000000000     
   1.0200000000000001E-002     0.0000000000000000     
   1.0500000000000002E-002     0.0000000000000000     
   1.0800000000000004E-002     0.0000000000000000     
   1.1099999999999999E-002     0.0000000000000000     
   1.1400000000000000E-002     0.0000000000000000     
   1.1700000000000002E-002     0.0000000000000000     
   1.2000000000000004E-002     0.0000000000000000     
   1.2300000000000002E-002     0.0000000000000000     
   1.2600000000000000E-002     0.0000000000000000     
   1.2900000000000002E-002     0.0000000000000000     
   1.3200000000000000E-002     0.0000000000000000     
   1.3500000000000002E-002     0.0000000000000000     
   1.3800000000000003E-002     0.0000000000000000     
   1.4100000000000001E-002     0.0000000000000000     
   1.4400000000000000E-002     0.0000000000000000     
   1.4700000000000001E-002     0.0000000000000000     
   1.4999999999999999E-002     0.0000000000000000     
   1.5300000000000001E-002     0.0000000000000000     
   1.5600000000000003E-002     0.0000000000000000     
   1.5899999999999997E-002     0.0000000000000000     
   1.6199999999999999E-002     0.0000000000000000     
   1.6500000000000001E-002     0.0000000000000000     
   1.6800000000000002E-002     0.0000000000000000     
   1.7100000000000004E-002     0.0000000000000000     
   1.7400000000000006E-002     0.0000000000000000     
   1.7700000000000000E-002     0.0000000000000000     
   1.8000000000000002E-002     0.0000000000000000     
   1.8300000000000004E-002     0.0000000000000000     
   1.8600000000000005E-002     0.0000000000000000     
   1.8900000000000000E-002     0.0000000000000000     
   1.9200000000000002E-002     0.0000000000000000     
   1.9500000000000003E-002     0.0000000000000000     
   1.9799999999999998E-002     0.0000000000000000     
   2.0100000000000000E-002     0.0000000000000000     
   2.0400000000000001E-002     0.0000000000000000     
   2.0700000000000003E-002     0.0000000000000000     
   2.0999999999999998E-002     0.0000000000000000     
   2.1299999999999999E-002     0.0000000000000000     
   2.1600000000000001E-002     0.0000000000000000     
   2.1900000000000003E-002     0.0000000000000000     
   2.2200000000000004E-002     0.0000000000000000     
   2.2500000000000006E-002     0.0000000000000000     
   2.2800000000000001E-002     0.0000000000000000     
   2.3100000000000002E-002     0.0000000000000000     
   2.3400000000000004E-002     0.0000000000000000     
   2.3699999999999999E-002     0.0000000000000000     
   2.4000000000000000E-002     0.0000000000000000     
   2.4300000000000002E-002     0.0000000000000000     
   2.4599999999999997E-002     0.0000000000000000     
   2.4900000000000005E-002     0.0000000000000000     
   2.5200000000000000E-002     0.0000000000000000     
   2.5499999999999995E-002     0.0000000000000000     
   2.5800000000000003E-002     0.0000000000000000     
   2.6099999999999998E-002     0.0000000000000000     
   2.6400000000000007E-002     0.0000000000000000     
   2.6700000000000002E-002     0.0000000000000000     
   2.6999999999999996E-002     0.0000000000000000     
   2.7300000000000005E-002     0.0000000000000000     
   2.7600000000000000E-002     0.0000000000000000     
   2.7900000000000008E-002     0.0000000000000000     
   2.8200000000000003E-002     0.0000000000000000     
   2.8499999999999998E-002     0.0000000000000000     
   2.8800000000000006E-002     0.0000000000000000     
   2.9100000000000001E-002     0.0000000000000000     
   2.9400000000000003E-002     0.0000000000000000     
   2.9700000000000004E-002     0.0000000000000000     
   3.0000000000000006E-002     0.0000000000000000     
   3.0300000000000001E-002     0.0000000000000000     
   3.0600000000000002E-002     0.0000000000000000     
   3.0900000000000004E-002     1.9228628668241054E-058
   3.1199999999999999E-002     4.0585882516322603E-045
   3.1500000000000007E-002    -9.7369691360865766E-044
   3.1800000000000002E-002     7.1197714673265322E-043
   3.2099999999999997E-002    -1.9969426838940638E-042
   3.2400000000000005E-002     1.9192078674662543E-036
   3.2700000000000000E-002    -2.3356872702405139E-035
   3.3000000000000002E-002     8.4242565990330057E-035
   3.3300000000000003E-002    -3.1171561561233468E-034
   3.3599999999999998E-002     3.1991381358258809E-034
   3.3900000000000000E-002    -1.0562261401438620E-033
   3.4200000000000001E-002     5.4743881483197374E-033
   3.4500000000000003E-002    -3.0360188760108451E-032
   3.4799999999999998E-002     1.6055398967299299E-031
   3.5099999999999999E-002    -7.7342743785728925E-031
   3.5400000000000001E-002     3.3839752192046594E-030
   3.5699999999999996E-002    -1.3562125323985477E-029
   3.6000000000000004E-002     4.9989056214887334E-029
   3.6299999999999999E-002    -1.6942170052696198E-028
   3.6600000000000008E-002     5.2498499014242335E-028
   3.6900000000000002E-002    -1.4661163314390153E-027
   3.7199999999999997E-002     3.5720793039237076E-027
   3.7500000000000006E-002    -6.9636056297059692E-027
   3.7800000000000000E-002     7.2950683890969098E-027
   3.8100000000000009E-002     1.9986171069414952E-026
   3.8400000000000004E-002    -1.7061744785060299E-025
   3.8699999999999998E-002     7.5399126827303963E-025
   3.9000000000000007E-002    -2.6307265902618557E-024
   3.9300000000000002E-002     7.8065710793050820E-024
   3.9600000000000003E-002    -1.9633657196512789E-023
   3.9900000000000005E-002     3.8427472237074873E-023
   4.0200000000000000E-002    -3.6236418586137080E-023
   4.0500000000000001E-002    -1.3354791108138057E-022
   4.0800000000000003E-002     9.6050393876353636E-022
   4.1100000000000005E-002    -3.5602221207361617E-021
   4.1399999999999999E-002     9.0594827857073941E-021
   4.1700000000000008E-002    -1.3508203132139913E-020
   4.2000000000000003E-002    -8.8218077207079340E-021
   4.2299999999999997E-002     1.3367489010979796E-019
   4.2600000000000006E-002    -4.6958173633744656E-019
   4.2900000000000001E-002     8.8134321990366894E-019
   4.3200000000000002E-002    -1.1244671727151728E-019
   4.3500000000000004E-002    -5.2992142258041737E-018
   4.3799999999999999E-002     1.8517389657191719E-017
   4.4100000000000000E-002    -2.6926943121737597E-017
   4.4400000000000002E-002    -2.8861157385209075E-017
   4.4700000000000004E-002     2.4490532053675050E-016
   4.4999999999999998E-002    -5.2503640945921800E-016
   4.5300000000000000E-002     2.2906019015575488E-017
   4.5600000000000002E-002     2.8825183890729698E-015
   4.5899999999999996E-002    -7.2351609475524056E-015
   4.6200000000000005E-002     1.4258409466798343E-015
   4.6500000000000000E-002     3.5200762056338445E-014
   4.6799999999999994E-002    -8.2069429681447666E-014
   4.7100000000000003E-002    -1.5290825358715236E-014
   4.7399999999999998E-002     4.4105950854730685E-013
   4.7700000000000006E-002    -7.1152001680091690E-013
   4.8000000000000001E-002    -9.4244248640635514E-013
   4.8300000000000010E-002     4.8486746380956484E-012
   4.8600000000000004E-002    -2.6574817311973929E-012
   4.8899999999999999E-002    -1.8557808813425797E-011
   4.9200000000000008E-002     3.4759544397339432E-011
   4.9500000000000002E-002     4.2335406318187117E-011
   4.9800000000000011E-002    -1.9205459749602708E-010
   5.0100000000000006E-002    -5.0833155312070919E-012
   5.0400000000000000E-002     7.9393301010359986E-010
   5.0700000000000009E-002    -5.1419705597448840E-010
   5.1000000000000004E-002    -2.8312803956565105E-009
   5.1299999999999998E-002     3.2219629037553582E-009
   5.1600000000000007E-002     9.5606375635584876E-009
   5.1900000000000002E-002    -1.3646062321594485E-008
   5.2200000000000010E-002    -3.3308308260939480E-008
   5.2500000000000005E-002     4.3207867058345111E-008
   5.2800000000000000E-002     1.1628045870520099E-007
   5.3099999999999994E-002    -1.0476805114660800E-007
   5.3400000000000003E-002    -4.2254584069027974E-007
   5.3699999999999998E-002     1.0030789206576007E-007
   5.4000000000000006E-002     1.9591717911654282E-006
   5.4300000000000001E-002     4.5404587119024694E-006
   5.4599999999999996E-002     7.8155560760960812E-006
   5.4900000000000004E-002     1.3337755759509902E-005
   5.5199999999999999E-002     2.1918777757279515E-005
   5.5499999999999994E-002     3.2871858643346119E-005
   5.5800000000000002E-002     4.8211508901794711E-005
   5.6099999999999997E-002     7.4113745907179908E-005
   5.6400000000000006E-002     1.1521058640214715E-004
   5.6700000000000000E-002     1.7290152934036214E-004
   5.6999999999999995E-002     2.5354947920551733E-004
   5.7300000000000004E-002     3.7207855074971620E-004
   5.7599999999999998E-002     5.4368363538240900E-004
   5.7900000000000007E-002     7.8001988785387729E-004
   5.8200000000000002E-002     1.0974333584629777E-003
   5.8499999999999996E-002     1.5207483319557757E-003
   5.8800000000000005E-002     2.0766634972242824E-003
   5.9100000000000000E-002     2.7911660149193425E-003
   5.9400000000000008E-002     3.6922552845572239E-003
   5.9700000000000003E-002     4.8063326717779414E-003
   6.0000000000000012E-002     6.1520071663879973E-003
   6.0300000000000006E-002     7.7381086388620323E-003
   6.0600000000000001E-002     9.5563436641513885E-003
   6.0900000000000010E-002     1.1569122670341190E-002
   6.1200000000000004E-002     1.3708912666971568E-002
   6.1500000000000013E-002     1.5882000252880262E-002
   6.1800000000000008E-002     1.7955664514340112E-002
   6.2100000000000002E-002     1.9745063073096064E-002
   6.2399999999999997E-002     2.1025248004198593E-002
   6.2700000000000006E-002     2.1550664933514228E-002
   6.3000000000000000E-002     2.1061864152853212E-002
   6.3300000000000009E-002     1.9296993143919965E-002
   6.3600000000000004E-002     1.6029710714506321E-002
   6.3899999999999998E-002     1.1107491360303217E-002
   6.4199999999999993E-002     4.4768929810901359E-003
   6.4500000000000002E-002    -3.7833113162339380E-003
   6.4800000000000010E-002    -1.3427559730519741E-002
   6.5100000000000005E-002    -2.4032818563302867E-002
   6.5400000000000000E-002    -3.4993587535597150E-002
   6.5700000000000008E-002    -4.5530332911875228E-002
   6.5999999999999989E-002    -5.4732861981023347E-002
   6.6299999999999998E-002    -6.1632796712629424E-002
   6.6600000000000006E-002    -6.5286509895208761E-002
   6.6900000000000001E-002    -6.4869501639345961E-002
   6.7199999999999996E-002    -5.9776572431679664E-002
   6.7500000000000004E-002    -4.9728012530789997E-002
   6.7800000000000013E-002    -3.4845229091201628E-002
   6.8099999999999994E-002    -1.5715433971657877E-002
   6.8400000000000002E-002     6.5636751328997855E-003
   6.8700000000000011E-002     3.0412953322973158E-002
   6.8999999999999992E-002     5.3864991033662220E-002
   6.9300000000000000E-002     7.4671672476570083E-002
   6.9600000000000009E-002     9.0444537125710642E-002
   6.9900000000000004E-002     9.8868752925559050E-002
   7.0199999999999999E-002     9.7886432246037117E-002
   7.0500000000000007E-002     8.5903791548904984E-002
   7.0800000000000016E-002     6.1985376847080394E-002
   7.1099999999999997E-002     2.5995092023708883E-002
   7.1400000000000005E-002    -2.1317542063053363E-002
   7.1700000000000000E-002    -7.8268634703804615E-002
   7.1999999999999995E-002   -0.14228018453422733     
   7.2300000000000003E-002   -0.20996323918877396     
   7.2600000000000012E-002   -0.27728571589536799     
   7.2900000000000006E-002   -0.33980252382771425     
   7.3200000000000001E-002   -0.39294364079270055     
   7.3499999999999996E-002   -0.43229528324557576     
   7.3800000000000004E-002   -0.45388015244363483     
   7.4099999999999999E-002   -0.45456149429509707     
   7.4400000000000008E-002   -0.43222602605581162     
   7.4700000000000003E-002   -0.38603633219692818     
   7.5000000000000011E-002   -0.31666171316948177     
   7.5299999999999992E-002   -0.22625030537557464     
   7.5600000000000001E-002   -0.11841796489972230     
   7.5900000000000009E-002     1.8069781104905259E-003
   7.6200000000000004E-002    0.12836263589769262     
   7.6499999999999999E-002    0.25445752724230081     
   7.6800000000000007E-002    0.37296190152742825     
   7.7099999999999988E-002    0.47696544959087955     
   7.7399999999999997E-002    0.56024979767108385     
   7.7700000000000005E-002    0.61774825294086066     
   7.8000000000000014E-002    0.64597558279277467     
   7.8299999999999995E-002    0.64338212601245226     
   7.8600000000000003E-002    0.61041670552652882     
   7.8900000000000012E-002    0.54961913478382551     
   7.9199999999999993E-002    0.46547734541608871     
   7.9500000000000001E-002    0.36401343302081801     
   7.9800000000000010E-002    0.25241041284998084     
   8.0100000000000018E-002    0.13846914699248108     
   8.0399999999999999E-002     2.9874091575614100E-002
   8.0700000000000008E-002    -6.6247906190494643E-002
   8.1000000000000003E-002   -0.14394802900617334     
   8.1299999999999997E-002   -0.19902453870188003     
   8.1600000000000006E-002   -0.22914701287898881     
   8.1900000000000014E-002   -0.23407914889778492     
   8.2199999999999995E-002   -0.21570662902835183     
   8.2500000000000004E-002   -0.17766442757695955     
   8.2799999999999999E-002   -0.12513032543349031     
   8.3100000000000007E-002    -6.4250291541659080E-002
   8.3400000000000002E-002    -1.5907658120760402E-003
   8.3700000000000011E-002     5.6369260252214323E-002
   8.4000000000000005E-002    0.10385261047113387     
   8.4300000000000000E-002    0.13616151617578495     
   8.4599999999999995E-002    0.15005573107035486     
   8.4900000000000003E-002    0.14401404030452303     
   8.5199999999999998E-002    0.11821347711988288     
   8.5500000000000007E-002     7.4529836921227499E-002
   8.5800000000000001E-002     1.6385825110896673E-002
   8.6100000000000010E-002    -5.1668818455931700E-002
   8.6399999999999991E-002   -0.12413205427004007     
   8.6699999999999999E-002   -0.19505539656821991     
   8.7000000000000008E-002   -0.25845813767626735     
   8.7300000000000003E-002   -0.30867144377709410     
   8.7599999999999997E-002   -0.34069701841456690     
   8.7900000000000006E-002   -0.35061672047978176     
   8.8200000000000014E-002   -0.33582642305946431     
   8.8499999999999995E-002   -0.29523333462040119     
   8.8800000000000004E-002   -0.22935176877810712     
   8.9100000000000013E-002   -0.14041229526864143     
   8.9399999999999993E-002    -3.2228776916935771E-002
   8.9700000000000002E-002     8.9959895603686502E-002
   9.0000000000000011E-002    0.21980056747973611     
   9.0299999999999991E-002    0.35013509338897930     
   9.0600000000000000E-002    0.47354385734283433     
   9.0900000000000009E-002    0.58287448078442539     
   9.1200000000000017E-002    0.67171812331790270     
   9.1499999999999998E-002    0.73488664769773260     
   9.1800000000000007E-002    0.76889115570140942     
   9.2100000000000001E-002    0.77217298594303996     
   9.2399999999999996E-002    0.74518435896723656     
   9.2700000000000005E-002    0.69039010573338488     
   9.3000000000000013E-002    0.61193262994499420     
   9.3300000000000008E-002    0.51525395496682080     
   9.3600000000000003E-002    0.40652891345786268     
   9.3899999999999997E-002    0.29209145265211400     
   9.4200000000000006E-002    0.17786447122223165     
   9.4500000000000001E-002     6.8808178278345067E-002
   9.4800000000000009E-002    -3.1593095124481767E-002
   9.5100000000000004E-002   -0.12138600054070775     
   9.5399999999999999E-002   -0.20015382712203253     
   9.5699999999999993E-002   -0.26909351073124460     
   9.6000000000000002E-002   -0.33047687507712742     
   9.6300000000000011E-002   -0.38714333660203237     
   9.6600000000000005E-002   -0.44230433405627784     
   9.6900000000000000E-002   -0.49867557440554344     
   9.7200000000000009E-002   -0.55815767107466208     
   9.7499999999999989E-002   -0.62157671470933984     
   9.7799999999999998E-002   -0.68842767519908277     
   9.8100000000000007E-002   -0.75684760939312368     
   9.8400000000000015E-002   -0.82379787248010095     
   9.8699999999999996E-002   -0.88538604267560383     
   9.9000000000000005E-002   -0.93729227324910003     
   9.9300000000000013E-002   -0.97516208716142705     
   9.9599999999999994E-002   -0.99516129628194716     
   9.9900000000000003E-002   -0.99434584824699856     
  0.10020000000000001        -0.97102815657631714     
  0.10049999999999999        -0.92480809515632001     
  0.10080000000000000        -0.85675956074827442     
  0.10110000000000001        -0.76938427938308496     
  0.10140000000000000        -0.66625894690269916     
  0.10170000000000000        -0.55167843557050322     
  0.10200000000000001        -0.43043677674012876     
  0.10230000000000002        -0.30727438743260255     
  0.10260000000000000        -0.18654890366250493     
  0.10290000000000001         -7.1910797070793203E-002
  0.10320000000000000          3.3857535298001493E-002
  0.10350000000000001         0.12903449515075849     
  0.10380000000000000         0.21301444704557723     
  0.10410000000000001         0.28610971176904376     
  0.10440000000000001         0.34925177574172700     
  0.10470000000000000         0.40402802973677493     
  0.10500000000000000         0.45213169261724750     
  0.10530000000000000         0.49516115225843932     
  0.10560000000000000         0.53429699779917172     
  0.10590000000000001         0.57012117910918558     
  0.10620000000000000         0.60235549147929268     
  0.10650000000000001         0.63001490850357056     
  0.10679999999999999         0.65128136932894498     
  0.10710000000000000         0.66381759704677046     
  0.10740000000000001         0.66507650639902893     
  0.10770000000000000         0.65249533615649136     
  0.10800000000000000         0.62395639299619021     
  0.10830000000000001         0.57834399722764107     
  0.10859999999999999         0.51557684822821226     
  0.10890000000000000         0.43709240146370837     
  0.10920000000000001         0.34582922557888074     
  0.10950000000000001         0.24624589703607716     
  0.10979999999999999         0.14415708732467378     
  0.11009999999999999          4.6276007933813409E-002
  0.11040000000000001         -4.0420155548920582E-002
  0.11070000000000001        -0.10891645811307628     
  0.11100000000000000        -0.15321621061387442     
  0.11130000000000000        -0.16870039586651470     
  0.11160000000000002        -0.15256759563984326     
  0.11190000000000001        -0.10444098935685528     
  0.11220000000000001         -2.6362740144386752E-002
  0.11250000000000000          7.7402152839455327E-002
  0.11280000000000000         0.20029026841797715     
  0.11309999999999999         0.33427752885035400     
  0.11340000000000001         0.47028367329042980     
  0.11369999999999998         0.59885178426643859     
  0.11400000000000000         0.71092103205348411     
  0.11430000000000000         0.79843686229598210     
  0.11460000000000002         0.85474864843757814     
  0.11489999999999999         0.87516473008368845     
  0.11520000000000001         0.85689936496018748     
  0.11550000000000001         0.79932849236396297     
  0.11580000000000000         0.70380573368159227     
  0.11609999999999999         0.57354151412778143     
  0.11640000000000002         0.41314166327840707     
  0.11670000000000001         0.22852247840850459     
  0.11700000000000001          2.6750224078481252E-002
  0.11730000000000000        -0.18434069516662629     
  0.11760000000000000        -0.39652576228849051     
  0.11789999999999999        -0.60101257706871902     
  0.11820000000000001        -0.78902857265790849     
  0.11850000000000001        -0.95209042858446080     
  0.11880000000000000         -1.0822211360310114     
  0.11910000000000000         -1.1724363419189294     
  0.11940000000000002         -1.2173696611894920     
  0.11970000000000001         -1.2135403017596931     
  0.12000000000000001         -1.1599013675551855     
  0.12030000000000000         -1.0579459548622476     
  0.12060000000000000        -0.91197763817706579     
  0.12089999999999999        -0.72900705614319872     
  0.12119999999999999        -0.51836990541121830     
  0.12150000000000001        -0.29131081079819915     
  0.12180000000000001         -6.0294683010637715E-002
  0.12210000000000000         0.16187189848813061     
  0.12239999999999999         0.36275792312470451     
  0.12270000000000002         0.53124320563162530     
  0.12300000000000001         0.65803843665305584     
  0.12330000000000001         0.73641544390071922     
  0.12360000000000000         0.76258563694397974     
  0.12390000000000000         0.73567181426762596     
  0.12419999999999999         0.65782117363364723     
  0.12450000000000001         0.53403424672679001     
  0.12480000000000001         0.37159728421149901     
  0.12509999999999999         0.17992112935564109     
  0.12540000000000001         -3.0236223892608934E-002
  0.12570000000000003        -0.24723472227896923     
  0.12600000000000000        -0.45921481099950573     
  0.12630000000000002        -0.65468752715602663     
  0.12659999999999999        -0.82304728224296553     
  0.12690000000000001        -0.95510190764101610     
  0.12719999999999998         -1.0437424170260599     
  0.12750000000000000         -1.0839571924139917     
  0.12780000000000002         -1.0734665350520409     
  0.12809999999999999         -1.0125818197502194     
  0.12840000000000001        -0.90433948603976222     
  0.12869999999999998        -0.75432335672671269     
  0.12900000000000000        -0.57019703948185629     
  0.12930000000000003        -0.36119818143008575     
  0.12959999999999999        -0.13786768511333902     
  0.12990000000000002          8.9100169215073244E-002
  0.13019999999999998         0.30918604102654623     
  0.13050000000000000         0.51285946067034016     
  0.13080000000000003         0.69206731925549936     
  0.13109999999999999         0.84071772421523583     
  0.13140000000000002         0.95482896625697977     
  0.13169999999999998          1.0327675206140665     
  0.13200000000000001          1.0748768890171705     
  0.13229999999999997          1.0835025143189332     
  0.13260000000000000          1.0623291557476835     
  0.13290000000000002          1.0161245888547206     
  0.13319999999999999         0.95015983118849234     
  0.13350000000000001         0.86973111303958350     
  0.13380000000000003         0.77985499965062011     
  0.13410000000000000         0.68493728746814131     
  0.13440000000000002         0.58862572106097488     
  0.13469999999999999         0.49388980369924240     
  0.13500000000000001         0.40286263652173643     
  0.13529999999999998         0.31713491837399632     
  0.13560000000000000         0.23780189939103222     
  0.13590000000000002         0.16552729210550282     
  0.13619999999999999         0.10077280143717390     
  0.13650000000000001          4.3763978694541635E-002
  0.13680000000000003         -5.7571394973694170E-003
  0.13710000000000000         -4.8370731821965149E-002
  0.13740000000000002         -8.5171257016452437E-002
  0.13769999999999999        -0.11791152941075625     
  0.13800000000000001        -0.14872096226337472     
  0.13829999999999998        -0.18015570824872945     
  0.13860000000000000        -0.21498698100531763     
  0.13890000000000002        -0.25584714510727463     
  0.13919999999999999        -0.30471953012457004     
  0.13950000000000001        -0.36259495881691001     
  0.13979999999999998        -0.42927220566498631     
  0.14010000000000000        -0.50293160024286709     
  0.14040000000000002        -0.58023793458964734     
  0.14069999999999999        -0.65664060237490407     
  0.14100000000000001        -0.72648568556786342     
  0.14130000000000004        -0.78389449700576064     
  0.14160000000000000        -0.82328553834615559     
  0.14189999999999997        -0.83996399008851075     
  0.14219999999999999        -0.83119799249054305     
  0.14250000000000002        -0.79628027691057512     
  0.14279999999999998        -0.73672641088466828     
  0.14310000000000000        -0.65671819688861377     
  0.14339999999999997        -0.56220048333165784     
  0.14369999999999999        -0.46037833969706782     
  0.14400000000000002        -0.35926432931928626     
  0.14429999999999998        -0.26638762190889176     
  0.14460000000000001        -0.18798521806062213     
  0.14490000000000003        -0.12837197278716364     
  0.14520000000000000         -8.9412356807801477E-002
  0.14550000000000002         -7.0159945323664402E-002
  0.14579999999999999         -6.7048190100161859E-002
  0.14610000000000001         -7.4402095520125444E-002
  0.14640000000000003         -8.4900407964835459E-002
  0.14670000000000000         -9.0566408876500082E-002
  0.14699999999999996         -8.3657238484095661E-002
  0.14729999999999999         -5.7605004714848813E-002
  0.14760000000000001         -7.7513406039020020E-003
  0.14789999999999998          6.8274691939214704E-002
  0.14820000000000000         0.17014520901998073     