  -1.4999999999999999E-002     0.0000000000000000     
  -1.4700000000000000E-002     0.0000000000000000     
  -1.4400000000000000E-002     0.0000000000000000     
  -1.4100000000000000E-002     0.0000000000000000     
  -1.3800000000000000E-002     0.0000000000000000     
  -1.3500000000000000E-002     0.0000000000000000     
  -1.3200000000000000E-002     0.0000000000000000     
  -1.2899999999999998E-002     0.0000000000000000     
  -1.2600000000000000E-002     0.0000000000000000     
  -1.2299999999999998E-002     0.0000000000000000     
  -1.2000000000000000E-002     0.0000000000000000     
  -1.1699999999999999E-002     0.0000000000000000     
  -1.1399999999999999E-002     0.0000000000000000     
  -1.1099999999999999E-002     0.0000000000000000     
  -1.0799999999999999E-002     0.0000000000000000     
  -1.0499999999999999E-002     0.0000000000000000     
  -1.0199999999999999E-002     0.0000000000000000     
  -9.8999999999999991E-003     0.0000000000000000     
  -9.5999999999999992E-003     0.0000000000000000     
  -9.2999999999999992E-003     0.0000000000000000     
  -8.9999999999999993E-003     0.0000000000000000     
  -8.6999999999999994E-003     0.0000000000000000     
  -8.3999999999999995E-003     0.0000000000000000     
  -8.0999999999999996E-003     0.0000000000000000     
  -7.7999999999999988E-003     0.0000000000000000     
  -7.4999999999999997E-003     0.0000000000000000     
  -7.1999999999999998E-003     0.0000000000000000     
  -6.8999999999999981E-003     0.0000000000000000     
  -6.5999999999999982E-003     0.0000000000000000     
  -6.3000000000000000E-003     0.0000000000000000     
  -6.0000000000000001E-003     0.0000000000000000     
  -5.6999999999999985E-003     0.0000000000000000     
  -5.3999999999999986E-003     0.0000000000000000     
  -5.1000000000000004E-003     0.0000000000000000     
  -4.7999999999999987E-003     0.0000000000000000     
  -4.5000000000000005E-003     0.0000000000000000     
  -4.1999999999999989E-003     0.0000000000000000     
  -3.8999999999999990E-003     0.0000000000000000     
  -3.5999999999999990E-003     0.0000000000000000     
  -3.2999999999999991E-003     0.0000000000000000     
  -2.9999999999999992E-003     0.0000000000000000     
  -2.6999999999999993E-003     0.0000000000000000     
  -2.3999999999999994E-003     0.0000000000000000     
  -2.0999999999999977E-003     0.0000000000000000     
  -1.7999999999999995E-003     0.0000000000000000     
  -1.4999999999999979E-003     0.0000000000000000     
  -1.1999999999999997E-003     0.0000000000000000     
  -8.9999999999999976E-004     0.0000000000000000     
  -5.9999999999999810E-004     0.0000000000000000     
  -2.9999999999999992E-004     0.0000000000000000     
   0.0000000000000000          0.0000000000000000     
   3.0000000000000165E-004     0.0000000000000000     
   5.9999999999999984E-004     0.0000000000000000     
   9.0000000000000149E-004     0.0000000000000000     
   1.2000000000000031E-003    -3.4849789299667653E-044
   1.5000000000000013E-003     1.8078720447458688E-043
   1.8000000000000030E-003    -9.7714860609956986E-037
   2.1000000000000012E-003     3.7749185831835799E-036
   2.3999999999999994E-003    -3.4534569777383455E-035
   2.7000000000000010E-003     2.1568145804169137E-034
   2.9999999999999992E-003    -5.0783624575444754E-034
   3.3000000000000008E-003     1.8409763321707843E-033
   3.6000000000000025E-003    -5.2453969013288576E-033
   3.9000000000000007E-003     1.0749920114379517E-032
   4.2000000000000023E-003    -1.6022263985807142E-032
   4.5000000000000005E-003     1.2978389696208605E-032
   4.7999999999999987E-003     1.2133334751268227E-032
   5.1000000000000004E-003    -7.1731073524236455E-032
   5.4000000000000020E-003     1.6037921620337900E-031
   5.7000000000000037E-003    -2.3336426188528118E-031
   5.9999999999999984E-003     1.9174850593153989E-031
   6.3000000000000000E-003     9.7332336435107255E-032
   6.6000000000000017E-003    -7.1667444347648661E-031
   6.9000000000000034E-003     1.5659100332131524E-030
   7.2000000000000015E-003    -2.2357933011767663E-030
   7.5000000000000032E-003     1.9949984545634134E-030
   7.8000000000000014E-003    -5.4964739662513110E-033
   8.0999999999999996E-003    -4.1929693843654048E-030
   8.4000000000000012E-003     1.0011740146268529E-029
   8.7000000000000029E-003    -1.5200087362281980E-029
   9.0000000000000011E-003     1.5772535923541761E-029
   9.2999999999999992E-003    -7.0699929532763726E-030
   9.6000000000000009E-003    -1.3904990623061569E-029
   9.8999999999999991E-003     4.5403142050419870E-029
   1.0200000000000001E-002    -7.8221077408333220E-029
   1.0500000000000002E-002     9.5190466946018105E-029
   1.0800000000000004E-002    -7.3722287538216697E-029
   1.1099999999999999E-002    -7.6394583266943387E-030
   1.1400000000000000E-002     1.5237154610742076E-028
   1.1700000000000002E-002    -3.2212379897233489E-028
   1.2000000000000004E-002     4.3716055677519349E-028
   1.2300000000000002E-002    -4.1179675071758941E-028
   1.2600000000000000E-002     1.8273182576280002E-028
   1.2900000000000002E-002     2.7194695394487282E-028
   1.3200000000000000E-002    -8.9424188693250010E-028
   1.3500000000000002E-002     1.5373089933042248E-027
   1.3800000000000003E-002    -1.9773377357038073E-027
   1.4100000000000001E-002     1.8592348682747971E-027
   1.4400000000000000E-002    -5.1240176667988267E-028
   1.4700000000000001E-002    -3.1113756701539405E-027
   1.4999999999999999E-002     8.1583777117080225E-027
   1.5300000000000001E-002    -7.2307833874186573E-027
   1.5600000000000003E-002    -6.8363147833891787E-027
   1.5899999999999997E-002     1.5376674147933866E-026
   1.6199999999999999E-002     2.1413780017128730E-026
   1.6500000000000001E-002    -7.7490593774138656E-026
   1.6800000000000002E-002     6.1364815557078803E-027
   1.7100000000000004E-002     2.5201955955925653E-025
   1.7400000000000006E-002    -3.2546106228221464E-025
   1.7700000000000000E-002    -3.0922199056315588E-025
   1.8000000000000002E-002     1.1265145026234845E-024
   1.8300000000000004E-002    -3.0717822848770074E-025
   1.8600000000000005E-002    -2.3770154884859156E-024
   1.8900000000000000E-002     2.8090441260629664E-024
   1.9200000000000002E-002     3.0095884247923874E-024
   1.9500000000000003E-002    -9.7001961041871247E-024
   1.9799999999999998E-002     3.4390823911065920E-024
   2.0100000000000000E-002     2.1284142864546790E-023
   2.0400000000000001E-002    -4.5342790502353232E-023
   2.0700000000000003E-002     1.7694300595400991E-023
   2.0999999999999998E-002     1.3740351611855500E-022
   2.1299999999999999E-002    -3.7166294768012017E-022
   2.1600000000000001E-002     1.4110160195518453E-022
   2.1900000000000003E-002     1.1329154157369421E-021
   2.2200000000000004E-002    -1.0136536892356415E-021
   2.2500000000000006E-002    -5.6895412124661592E-021
   2.2800000000000001E-002     4.0585234836128933E-021
   2.3100000000000002E-002     6.6527263832798838E-020
   2.3400000000000004E-002    -1.7694290885037722E-019
   2.3699999999999999E-002    -1.7769078707365104E-019
   2.4000000000000000E-002     1.6818483837823496E-018
   2.4300000000000002E-002    -2.4008569817349159E-018
   2.4599999999999997E-002    -4.6936776699700384E-018
   2.4900000000000005E-002     2.1076756255672724E-017
   2.5200000000000000E-002    -1.8363820160194847E-017
   2.5499999999999995E-002    -4.5885253509321998E-017
   2.5800000000000003E-002     1.3778118060753543E-016
   2.6099999999999998E-002    -1.6633800369693865E-016
   2.6400000000000007E-002     1.6136468986874303E-016
   2.6700000000000002E-002     4.6792325908971883E-016
   2.6999999999999996E-002    -4.3272995848083770E-015
   2.7300000000000005E-002     9.0317803608825793E-015
   2.7600000000000000E-002     1.2424301434395652E-014
   2.7900000000000008E-002    -8.4242357474257333E-014
   2.8200000000000003E-002     6.8517662096087271E-014
   2.8499999999999998E-002     3.5438622876462494E-013
   2.8800000000000006E-002    -8.3491873883718494E-013
   2.9100000000000001E-002    -6.2125471288726441E-013
   2.9400000000000003E-002     4.4662989719971367E-012
   2.9700000000000004E-002    -2.1827035816182975E-012
   3.0000000000000006E-002    -1.6020903172141757E-011
   3.0300000000000001E-002     2.3426129019624099E-011
   3.0600000000000002E-002     4.0384899227657725E-011
   3.0900000000000004E-002    -1.1767145010049804E-010
   3.1199999999999999E-002    -5.7791525103953975E-011
   3.1500000000000007E-002     4.4562211005490561E-010
   3.1800000000000002E-002    -7.0181212547377179E-011
   3.2099999999999997E-002    -1.4403856751571429E-009
   3.2400000000000005E-002     8.8091859184412289E-010
   3.2700000000000000E-002     4.2887504280366394E-009
   3.3000000000000002E-002    -3.9824782903040643E-009
   3.3300000000000003E-002    -1.2639566149987479E-008
   3.3599999999999998E-002     1.2440485592609083E-008
   3.3900000000000000E-002     3.6172930365793719E-008
   3.4200000000000001E-002    -3.3559573216407750E-008
   3.4500000000000003E-002    -1.1821158056437825E-007
   3.4799999999999998E-002     4.2688661362961705E-008
   3.5099999999999999E-002     5.3834150577570186E-007
   3.5400000000000001E-002     1.6113201920167648E-006
   3.5699999999999996E-002     5.0108388587675691E-006
   3.6000000000000004E-002     1.3929736570118680E-005
   3.6299999999999999E-002     2.9756606028044602E-005
   3.6600000000000008E-002     4.9562899312219621E-005
   3.6900000000000002E-002     6.9622663429131488E-005
   3.7199999999999997E-002     9.2130358273752124E-005
   3.7500000000000006E-002     1.2672622736342775E-004
   3.7800000000000000E-002     1.8581980929857690E-004
   3.8100000000000009E-002     2.8073223228764784E-004
   3.8400000000000004E-002     4.2083946961129018E-004
   3.8699999999999998E-002     6.1254756503937614E-004
   3.9000000000000007E-002     8.6209725365130768E-004
   3.9300000000000002E-002     1.1871572393139750E-003
   3.9600000000000003E-002     1.6230983963771096E-003
   3.9900000000000005E-002     2.2044798918480243E-003
   4.0200000000000000E-002     2.9360666043884162E-003
   4.0500000000000001E-002     3.7914512334921223E-003
   4.0800000000000003E-002     4.7395890736772507E-003
   4.1100000000000005E-002     5.7524494094351453E-003
   4.1399999999999999E-002     6.7711356321900470E-003
   4.1700000000000008E-002     7.6654395326978732E-003
   4.2000000000000003E-002     8.2235066458251800E-003
   4.2299999999999997E-002     8.1595173316994386E-003
   4.2600000000000006E-002     7.1175326739601735E-003
   4.2900000000000001E-002     4.6683093563331824E-003
   4.3200000000000002E-002     3.1427653423260444E-004
   4.3500000000000004E-002    -6.4997268328559647E-003
   4.3799999999999999E-002    -1.6340578054267602E-002
   4.4100000000000000E-002    -2.9709309467164238E-002
   4.4400000000000002E-002    -4.6941779740730487E-002
   4.4700000000000004E-002    -6.8113126117127248E-002
   4.4999999999999998E-002    -9.2926316297627737E-002
   4.5300000000000000E-002   -0.12057811808587948     
   4.5600000000000002E-002   -0.14964038183711104     
   4.5899999999999996E-002   -0.17798976657951743     
   4.6200000000000005E-002   -0.20279668335414774     
   4.6500000000000000E-002   -0.22056581147315604     
   4.6799999999999994E-002   -0.22727020152326924     
   4.7100000000000003E-002   -0.21858401659446386     
   4.7399999999999998E-002   -0.19025629811970038     
   4.7700000000000006E-002   -0.13853144682756166     
   4.8000000000000001E-002    -6.0693182201531679E-002
   4.8300000000000010E-002     4.4452171905799955E-002
   4.8600000000000004E-002    0.17604661034444630     
   4.8899999999999999E-002    0.33082872713778311     
   4.9200000000000008E-002    0.50285071259116343     
   4.9500000000000002E-002    0.68358612226023141     
   4.9800000000000011E-002    0.86214941943696133     
   5.0100000000000006E-002     1.0259131216882964     
   5.0400000000000000E-002     1.1613191392541269     
   5.0700000000000009E-002     1.2550227670128316     
   5.1000000000000004E-002     1.2951216726370522     
   5.1299999999999998E-002     1.2723585395216357     
   5.1600000000000007E-002     1.1812355544497055     
   5.1900000000000002E-002     1.0208553098742663     
   5.2200000000000010E-002    0.79559588620967514     
   5.2500000000000005E-002    0.51492452757916063     
   5.2800000000000000E-002    0.19316925187977113     
   5.3099999999999994E-002   -0.15170897527177005     
   5.3400000000000003E-002   -0.49918443010381663     
   5.3699999999999998E-002   -0.82815790284739854     
   5.4000000000000006E-002    -1.1184893863009717     
   5.4300000000000001E-002    -1.3529968283398004     
   5.4599999999999996E-002    -1.5187659289588016     
   5.4900000000000004E-002    -1.6084743767611402     
   5.5199999999999999E-002    -1.6208970578635897     
   5.5499999999999994E-002    -1.5610212121081781     
   5.5800000000000002E-002    -1.4394364391094876     
   5.6099999999999997E-002    -1.2712955508742534     
   5.6400000000000006E-002    -1.0748661789582985     
   5.6700000000000000E-002   -0.86969763355444962     
   5.6999999999999995E-002   -0.67495346365878461     
   5.7300000000000004E-002   -0.50744831834065773     
   5.7599999999999998E-002   -0.38045332083077715     
   5.7900000000000007E-002   -0.30227190474091575     
   5.8200000000000002E-002   -0.27590194534394635     
   5.8499999999999996E-002   -0.29854795494058484     
   5.8800000000000005E-002   -0.36240390070791090     
   5.9100000000000000E-002   -0.45498088094507566     
   5.9400000000000008E-002   -0.56084483922232187     
   5.9700000000000003E-002   -0.66248047375316832     
   6.0000000000000012E-002   -0.74245375384064904     
   6.0300000000000006E-002   -0.78446823309801561     
   6.0600000000000001E-002   -0.77525949393940274     
   6.0900000000000010E-002   -0.70540147898638061     
   6.1200000000000004E-002   -0.57054602944557253     
   6.1500000000000013E-002   -0.37156590632150349     
   6.1800000000000008E-002   -0.11468148014102915     
   6.2100000000000002E-002    0.18902011457109757     
   6.2399999999999997E-002    0.52460402514122961     
   6.2700000000000006E-002    0.87417084255856492     
   6.3000000000000000E-002     1.2186172037464744     
   6.3300000000000009E-002     1.5386885433692954     
   6.3600000000000004E-002     1.8170309096094102     
   6.3899999999999998E-002     2.0386931924586311     
   6.4199999999999993E-002     2.1927983788316117     
   6.4500000000000002E-002     2.2723808314159970     
   6.4800000000000010E-002     2.2754282975185500     
   6.5100000000000005E-002     2.2038853189613770     
   6.5400000000000000E-002     2.0638678092407536     
   6.5700000000000008E-002     1.8641693607218572     
   6.5999999999999989E-002     1.6160990011645373     
   6.6299999999999998E-002     1.3317986734709815     
   6.6600000000000006E-002     1.0239551071452491     
   6.6900000000000001E-002    0.70453441142121975     
   6.7199999999999996E-002    0.38458752589813633     
   6.7500000000000004E-002     7.3475672954533000E-002
   6.7800000000000013E-002   -0.22106866662963826     
   6.8099999999999994E-002   -0.49309963148616437     
   6.8400000000000002E-002   -0.73834896282069662     
   6.8700000000000011E-002   -0.95396894437343249     
   6.8999999999999992E-002    -1.1384195113687414     
   6.9300000000000000E-002    -1.2909086968347789     
   6.9600000000000009E-002    -1.4113798167989520     
   6.9900000000000004E-002    -1.5000509050269850     
   7.0199999999999999E-002    -1.5572077061974920     
   7.0500000000000007E-002    -1.5829821850245047     
   7.0800000000000016E-002    -1.5772130513148339     
   7.1099999999999997E-002    -1.5395246766492969     
   7.1400000000000005E-002    -1.4691084643752896     
   7.1700000000000000E-002    -1.3653550166901498     
   7.1999999999999995E-002    -1.2277755754062452     
   7.2300000000000003E-002    -1.0569927707605509     
   7.2600000000000012E-002   -0.85453128942408274     
   7.2900000000000006E-002   -0.62414789308834406     
   7.3200000000000001E-002   -0.37140357573485105     
   7.3499999999999996E-002   -0.10480983610103180     
   7.3800000000000004E-002    0.16525596363855732     
   7.4099999999999999E-002    0.42566856756581339     
   7.4400000000000008E-002    0.66246771869975785     
   7.4700000000000003E-002    0.86060381026721722     
   7.5000000000000011E-002     1.0062339318690852     
   7.5299999999999992E-002     1.0870933547960497     
   7.5600000000000001E-002     1.0946273820974823     
   7.5900000000000009E-002     1.0244576948531385     
   7.6200000000000004E-002    0.87770277428418664     
   7.6499999999999999E-002    0.66099274299198296     
   7.6800000000000007E-002    0.38672706586872085     
   7.7099999999999988E-002     7.2382197306547394E-002
   7.7399999999999997E-002   -0.26061952118719967     
   7.7700000000000005E-002   -0.58821290792539782     
   7.8000000000000014E-002   -0.88562768811148562     
   7.8299999999999995E-002    -1.1288652435016540     
   7.8600000000000003E-002    -1.2967534082094681     
   7.8900000000000012E-002    -1.3723049179854763     
   7.9199999999999993E-002    -1.3442536604825615     
   7.9500000000000001E-002    -1.2076514964821170     
   7.9800000000000010E-002   -0.96441203311420165     
   8.0100000000000018E-002   -0.62335038017297484     
   8.0399999999999999E-002   -0.19965873344387233     
   8.0700000000000008E-002    0.28563273421374868     
   8.1000000000000003E-002    0.80726951988955276     
   8.1299999999999997E-002     1.3364749031901868     
   8.1600000000000006E-002     1.8430931657768623     
   8.1900000000000014E-002     2.2966175177631927     
   8.2199999999999995E-002     2.6684501273886077     
   8.2500000000000004E-002     2.9330382448878520     
   8.2799999999999999E-002     3.0699193572938719     
   8.3100000000000007E-002     3.0647854887707293     
   8.3400000000000002E-002     2.9110581939736360     
   8.3700000000000011E-002     2.6103413147002552     
   8.4000000000000005E-002     2.1732444778924727     
   8.4300000000000000E-002     1.6189554916694844     
   8.4599999999999995E-002    0.97487085637680204     
   8.4900000000000003E-002    0.27489125028814104     
   8.5199999999999998E-002   -0.44200865376700971     
   8.5500000000000007E-002    -1.1346229428476693     
   8.5800000000000001E-002    -1.7620918877581975     
   8.6100000000000010E-002    -2.2868168486080958     
   8.6399999999999991E-002    -2.6776168476095332     
   8.6699999999999999E-002    -2.9116702198705307     
   8.7000000000000008E-002    -2.9770541292583710     
   8.7300000000000003E-002    -2.8732867318634616     
   8.7599999999999997E-002    -2.6120002319994957     
   8.7900000000000006E-002    -2.2155387422205721     
   8.8200000000000014E-002    -1.7157515279298790     
   8.8499999999999995E-002    -1.1509678329530952     
   8.8800000000000004E-002   -0.56333451913505195     
   8.9100000000000013E-002     4.8659978386776806E-003
   8.9399999999999993E-002    0.51406318694983211     
   8.9700000000000002E-002    0.93048579214329707     
   9.0000000000000011E-002     1.2283694803889122     
   9.0299999999999991E-002     1.3912611048138612     
   9.0600000000000000E-002     1.4130010620209001     
   9.0900000000000009E-002     1.2971370206242510     
   9.1200000000000017E-002     1.0565206960614957     
   9.1499999999999998E-002    0.71124731762894955     
   9.1800000000000007E-002    0.28769065956116668     
   9.2100000000000001E-002   -0.18428966070261538     
   9.2399999999999996E-002   -0.67236043273233470     
   9.2700000000000005E-002    -1.1446070796420260     
   9.3000000000000013E-002    -1.5702365751438860     
   9.3300000000000008E-002    -1.9218136166835145     
   9.3600000000000003E-002    -2.1756978100154831     
   9.3899999999999997E-002    -2.3138685255404527     
   9.4200000000000006E-002    -2.3241202818752398     
   9.4500000000000001E-002    -2.2012989464949499     
   9.4800000000000009E-002    -1.9473731418414881     
   9.5100000000000004E-002    -1.5718859295011762     
   9.5399999999999999E-002    -1.0917167490427651     
   9.5699999999999993E-002   -0.53080807127429919     
   9.6000000000000002E-002     8.0858863023944488E-002
   9.6300000000000011E-002    0.70873608403701316     
   9.6600000000000005E-002     1.3152350400324835     
   9.6900000000000000E-002     1.8622507052085129     
   9.7200000000000009E-002     2.3130681681051839     
   9.7499999999999989E-002     2.6354875693064090     
   9.7799999999999998E-002     2.8034217440254348     
   9.8100000000000007E-002     2.7996757062406941     
   9.8400000000000015E-002     2.6168425061001335     
   9.8699999999999996E-002     2.2588837070601819     
   9.9000000000000005E-002     1.7406494489157276     
   9.9300000000000013E-002     1.0880259099960941     
   9.9599999999999994E-002    0.33636406884928138     
   9.9900000000000003E-002   -0.47123592588425600     
  0.10020000000000001         -1.2864059478904646     
  0.10049999999999999         -2.0582356732704015     
  0.10080000000000000         -2.7359538356877557     
  0.10110000000000001         -3.2724843292047563     
  0.10140000000000000         -3.6265039687540983     
  0.10170000000000000         -3.7659712049458265     
  0.10200000000000001         -3.6693680457445614     
  0.10230000000000002         -3.3285596495582768     
  0.10260000000000000         -2.7485070302013903     
  0.10290000000000001         -1.9486470242842506     
  0.10320000000000000        -0.96164637470109127     
  0.10350000000000001         0.16739679236393062     
  0.10380000000000000          1.3835780754544225     
  0.10410000000000001          2.6248371778609791     
  0.10440000000000001          3.8256604885768533     
  0.10470000000000000          4.9212064986894566     
  0.10500000000000000          5.8509702946714537     
  0.10530000000000000          6.5636639871360414     
  0.10560000000000000          7.0196843425610354     
  0.10590000000000001          7.1950297627959836     
  0.10620000000000000          7.0819435376583026     
  0.10650000000000001          6.6909251448138827     
  0.10679999999999999          6.0486288277137454     
  0.10710000000000000          5.1969213659547018     
  0.10740000000000001          4.1889410157033842     
  0.10770000000000000          3.0857174498144757     
  0.10800000000000000          1.9512189692626183     
  0.10830000000000001         0.84762478197509072     
  0.10859999999999999        -0.16916850183127308     
  0.10890000000000000         -1.0533815644850633     
  0.10920000000000001         -1.7723654552093111     
  0.10950000000000001         -2.3077466545489340     
  0.10979999999999999         -2.6571312019409237     
  0.11009999999999999         -2.8306787087168583     
  0.11040000000000001         -2.8520069198774785     
  0.11070000000000001         -2.7517466619216173     
  0.11100000000000000         -2.5673720909665492     
  0.11130000000000000         -2.3356318541435908     
  0.11160000000000002         -2.0932464665037598     
  0.11190000000000001         -1.8695725263186591     
  0.11220000000000001         -1.6888772308909494     
  0.11250000000000000         -1.5656560717066261     
  0.11280000000000000         -1.5082750380350400     
  0.11309999999999999         -1.5165686668928635     
  0.11340000000000001         -1.5869278975149874     
  0.11369999999999998         -1.7116060330488474     
  0.11400000000000000         -1.8830421053634143     
  0.11430000000000000         -2.0936105343529037     
  0.11460000000000002         -2.3379485711129315     
  0.11489999999999999         -2.6120729562210849     
  0.11520000000000001         -2.9135737546895082     
  0.11550000000000001         -3.2399048944626672     
  0.11580000000000000         -3.5861892849084382     
  0.11609999999999999         -3.9444027103591135     
  0.11640000000000002         -4.3007631462131295     
  0.11670000000000001         -4.6364092987750398     
  0.11700000000000001         -4.9264884151072055     
  0.11730000000000000         -5.1428785471279168     
  0.11760000000000000         -5.2548537386699836     
  0.11789999999999999         -5.2341294402588803     
  0.11820000000000001         -5.0570015998149058     
  0.11850000000000001         -4.7085609500811607     
  0.11880000000000000         -4.1849150694075448     
  0.11910000000000000         -3.4953711040020266     
  0.11940000000000002         -2.6627857663737475     
  0.11970000000000001         -1.7222145747585886     
  0.12000000000000001        -0.71871047494663409     
  0.12030000000000000         0.29655296530216618     
  0.12060000000000000          1.2697296248623025     
  0.12089999999999999          2.1503346083166952     
  0.12119999999999999          2.8933978199948749     
  0.12150000000000001          3.4660003304666280     
  0.12180000000000001          3.8461322896753911     
  0.12210000000000000          4.0275898083326691     
  0.12239999999999999          4.0166587920134198     
  0.12270000000000002          3.8332986909633924     
  0.12300000000000001          3.5069682662375814     
  0.12330000000000001          3.0756008678621076     
  0.12360000000000000          2.5808270021988706     
  0.12390000000000000          2.0658946077628930     
  0.12419999999999999          1.5720247070122819     
  0.12450000000000001          1.1369200989839126     
  0.12480000000000001         0.79219854414710933     
  0.12509999999999999         0.56251025865749782     
  0.12540000000000001         0.46486721261138819     
  0.12570000000000003         0.50823945789047986     
  0.12600000000000000         0.69415683694062225     
  0.12630000000000002          1.0163630374112382     
  0.12659999999999999          1.4618348018793774     
  0.12690000000000001          2.0108299393635427     
  0.12719999999999998          2.6375112666090450     
  0.12750000000000000          3.3104539036528724     
  0.12780000000000002          3.9924340343328750     
  0.12809999999999999          4.6417164866022658     
  0.12840000000000001          5.2118892692594816     
  0.12869999999999998          5.6539845443844055     
  0.12900000000000000          5.9171576427533239     
  0.12930000000000003          5.9521980164850232     
  0.12959999999999999          5.7140588595666237     
  0.12990000000000002          5.1668824950909764     
  0.13019999999999998          4.2886094829129329     
  0.13050000000000000          3.0761682768009773     
  0.13080000000000003          1.5510617297821301     
  0.13109999999999999        -0.23757238725043547     
  0.13140000000000002         -2.2083220564321597     
  0.13169999999999998         -4.2511038775303502     
  0.13200000000000001         -6.2263288386838989     
  0.13229999999999997         -7.9766301888303213     
  0.13260000000000000         -9.3323230412030291     
  0.13290000000000002         -10.130739169722139     
  0.13319999999999999         -10.226618717371588     
  0.13350000000000001         -9.5153397990672808     
  0.13380000000000003         -7.9420155966450912     
  0.13410000000000000         -5.5218185933165955     
  0.13440000000000002         -2.3410968448012084     
  0.13469999999999999          1.4335363078354864     
  0.13500000000000001          5.5678577391612984     
  0.13529999999999998          9.7663135268917980     
  0.13560000000000000          13.698948811153171     
  0.13590000000000002          17.021795201610662     
  0.13619999999999999          19.411836534327676     
  0.13650000000000001          20.593004123181547     
  0.13680000000000003          20.368104824300122     
  0.13710000000000000          18.639085660022644     
  0.13740000000000002          15.423368353125214     
  0.13769999999999999          10.858381187145964     
  0.13800000000000001          5.1942500459288166     
  0.13829999999999998         -1.2207597816282569     
  0.13860000000000000         -7.9683938032224058     
  0.13890000000000002         -14.591896025224850     
  0.13919999999999999         -20.634105619662115     
  0.13950000000000001         -25.673652559359201     
  0.13979999999999998         -29.358943828630562     
  0.14010000000000000         -31.435489530455147     
  0.14040000000000002         -31.763404716604359     
  0.14069999999999999         -30.326946132028620     
  0.14100000000000001         -27.229213598840932     
  0.14130000000000004         -22.682269952160663     
  0.14160000000000000         -16.983220979151099     
  0.14189999999999997         -10.490887593809344     
  0.14219999999999999         -3.5938837330349629     
  0.14250000000000002          3.3163688098586110     
  0.14279999999999998          9.8737611423756739     
  0.14310000000000000          15.758411350016299     
  0.14339999999999997          20.711879654227950     
  0.14369999999999999          24.548520952626788     
  0.14400000000000002          27.155321023954439     
  0.14429999999999998          28.492233176689723     
  0.14460000000000001          28.581735513493886     
  0.14490000000000003          27.502059845897271     
  0.14520000000000000          25.371618190361833     
  0.14550000000000002          22.340795449452635     
  0.14579999999999999          18.577083534735227     
  0.14610000000000001          14.258190117777536     
  0.14640000000000003          9.5614824079467322     
  0.14670000000000000          4.6595740254984177     
  0.14699999999999996        -0.28464218188766766     
  0.14729999999999999         -5.1202802452889875     
  0.14760000000000001         -9.7098216694951969     
  0.14789999999999998         -13.930749852705112     
  0.14820000000000000         -17.673955869502763     