  -1.4999999999999999E-002     0.0000000000000000     
  -1.4700000000000000E-002     0.0000000000000000     
  -1.4400000000000000E-002     0.0000000000000000     
  -1.4100000000000000E-002     0.0000000000000000     
  -1.3800000000000000E-002     0.0000000000000000     
  -1.3500000000000000E-002     0.0000000000000000     
  -1.3200000000000000E-002     0.0000000000000000     
  -1.2899999999999998E-002     0.0000000000000000     
  -1.2600000000000000E-002     0.0000000000000000     
  -1.2299999999999998E-002     0.0000000000000000     
  -1.2000000000000000E-002     0.0000000000000000     
  -1.1699999999999999E-002     0.0000000000000000     
  -1.1399999999999999E-002     0.0000000000000000     
  -1.1099999999999999E-002     0.0000000000000000     
  -1.0799999999999999E-002     0.0000000000000000     
  -1.0499999999999999E-002     0.0000000000000000     
  -1.0199999999999999E-002     0.0000000000000000     
  -9.8999999999999991E-003     0.0000000000000000     
  -9.5999999999999992E-003     0.0000000000000000     
  -9.2999999999999992E-003     0.0000000000000000     
  -8.9999999999999993E-003     0.0000000000000000     
  -8.6999999999999994E-003     0.0000000000000000     
  -8.3999999999999995E-003     0.0000000000000000     
  -8.0999999999999996E-003     0.0000000000000000     
  -7.7999999999999988E-003     0.0000000000000000     
  -7.4999999999999997E-003     0.0000000000000000     
  -7.1999999999999998E-003     0.0000000000000000     
  -6.8999999999999981E-003     0.0000000000000000     
  -6.5999999999999982E-003     0.0000000000000000     
  -6.3000000000000000E-003     0.0000000000000000     
  -6.0000000000000001E-003     0.0000000000000000     
  -5.6999999999999985E-003     0.0000000000000000     
  -5.3999999999999986E-003     0.0000000000000000     
  -5.1000000000000004E-003     0.0000000000000000     
  -4.7999999999999987E-003     0.0000000000000000     
  -4.5000000000000005E-003     0.0000000000000000     
  -4.1999999999999989E-003     0.0000000000000000     
  -3.8999999999999990E-003     0.0000000000000000     
  -3.5999999999999990E-003     0.0000000000000000     
  -3.2999999999999991E-003     0.0000000000000000     
  -2.9999999999999992E-003     0.0000000000000000     
  -2.6999999999999993E-003     0.0000000000000000     
  -2.3999999999999994E-003     0.0000000000000000     
  -2.0999999999999977E-003     0.0000000000000000     
  -1.7999999999999995E-003     0.0000000000000000     
  -1.4999999999999979E-003     1.2995911812264424E-042
  -1.1999999999999997E-003    -4.5620789798286538E-038
  -8.9999999999999976E-004     9.1639012550129594E-037
  -5.9999999999999810E-004    -4.6887963642833026E-036
  -2.9999999999999992E-004     1.3304327454347351E-035
   0.0000000000000000         -5.0723765739111903E-035
   3.0000000000000165E-004     3.3096319485041548E-034
   5.9999999999999984E-004    -7.0227911604149775E-034
   9.0000000000000149E-004     2.0114601853474037E-033
   1.2000000000000031E-003    -1.5109976911876190E-033
   1.5000000000000013E-003    -5.7929534809811984E-033
   1.8000000000000030E-003     2.8162195305989432E-032
   2.1000000000000012E-003    -7.0934860510165277E-032
   2.3999999999999994E-003     1.2199024142356846E-031
   2.7000000000000010E-003    -1.2385610171512174E-031
   2.9999999999999992E-003    -4.4896660602701628E-032
   3.3000000000000008E-003     5.3448702206025155E-031
   3.6000000000000025E-003    -1.3904570769800578E-030
   3.9000000000000007E-003     2.3060908404868711E-030
   4.2000000000000023E-003    -2.3737218308577889E-030
   4.5000000000000005E-003     1.4936909838247537E-031
   4.7999999999999987E-003     5.6557537854084291E-030
   5.1000000000000004E-003    -1.4808657199139336E-029
   5.4000000000000020E-003     2.3902378419972491E-029
   5.7000000000000037E-003    -2.5502657771067641E-029
   5.9999999999999984E-003     9.7292701072166818E-030
   6.3000000000000000E-003     3.0975247496937364E-029
   6.6000000000000017E-003    -9.4486992339289474E-029
   6.9000000000000034E-003     1.6042600381795036E-028
   7.2000000000000015E-003    -1.8801557493751158E-028
   7.5000000000000032E-003     1.3123547528017938E-028
   7.8000000000000014E-003     4.2080018872919285E-029
   8.0999999999999996E-003    -3.4876045931129447E-028
   8.4000000000000012E-003     7.6702149537116184E-028
   8.7000000000000029E-003    -1.1506500276169147E-027
   9.0000000000000011E-003     1.1632299866736404E-027
   9.2999999999999992E-003    -3.8855243392357444E-028
   9.6000000000000009E-003    -1.2118329197690019E-027
   9.8999999999999991E-003     2.8282055938571547E-027
   1.0200000000000001E-002    -3.6999672579885105E-027
   1.0500000000000002E-002     4.7342797764270755E-027
   1.0800000000000004E-002    -6.2321511680119275E-027
   1.1099999999999999E-002     3.4630093598262495E-027
   1.1400000000000000E-002     8.5625530693183179E-027
   1.1700000000000002E-002    -2.3627230861322040E-026
   1.2000000000000004E-002     2.5144685341109050E-026
   1.2300000000000002E-002    -4.0815909804144649E-027
   1.2600000000000000E-002    -1.9265658128202031E-026
   1.2900000000000002E-002     4.1484331268045839E-027
   1.3200000000000000E-002     5.4084446182778469E-026
   1.3500000000000002E-002    -9.5474334753482615E-026
   1.3800000000000003E-002    -4.6016978737321746E-026
   1.4100000000000001E-002     6.5907491063960008E-025
   1.4400000000000000E-002    -1.2529645808051799E-024
   1.4700000000000001E-002    -5.6656126203822814E-025
   1.4999999999999999E-002     5.4193666812420366E-024
   1.5300000000000001E-002    -4.8271829897841033E-024
   1.5600000000000003E-002    -1.1599026737546569E-023
   1.5899999999999997E-002     2.7216281994470642E-023
   1.6199999999999999E-002     5.2702280950854143E-024
   1.6500000000000001E-002    -8.3121348077101255E-023
   1.6800000000000002E-002     7.0223711732475126E-023
   1.7100000000000004E-002     1.4943507208665314E-022
   1.7400000000000006E-002    -3.2052292920482819E-022
   1.7700000000000000E-002    -5.8875764435431379E-023
   1.8000000000000002E-002     7.9572542307982752E-022
   1.8300000000000004E-002    -6.1280640077961082E-022
   1.8600000000000005E-002    -1.1129614656054725E-021
   1.8900000000000000E-002     2.3254052625062336E-021
   1.9200000000000002E-002    -2.8887716467817216E-022
   1.9500000000000003E-002    -3.3029909885124120E-021
   1.9799999999999998E-002     3.6272020745558240E-021
   2.0100000000000000E-002    -3.3141911415170290E-021
   2.0400000000000001E-002     9.4034339106715876E-021
   2.0700000000000003E-002    -4.0408752438689443E-023
   2.0999999999999998E-002    -6.6997539680765613E-020
   2.1299999999999999E-002     1.1212290576616899E-019
   2.1600000000000001E-002     6.1240044968921249E-020
   2.1900000000000003E-002    -9.0628511538367004E-020
   2.2200000000000004E-002    -8.3477586502896861E-019
   2.2500000000000006E-002    -6.6537734748668039E-019
   2.2800000000000001E-002     1.3358379327511122E-017
   2.3100000000000002E-002    -1.8511702262546818E-017
   2.3400000000000004E-002    -6.9534785950343143E-017
   2.3699999999999999E-002     2.3388525245210530E-016
   2.4000000000000000E-002     5.4404980163216613E-017
   2.4300000000000002E-002    -1.3130156830543031E-015
   2.4599999999999997E-002     1.4378467293076827E-015
   2.4900000000000005E-002     4.0829218287766260E-015
   2.5200000000000000E-002    -1.0253902629819584E-014
   2.5499999999999995E-002    -4.6812817379626128E-015
   2.5800000000000003E-002     3.6454934110856080E-014
   2.6099999999999998E-002    -1.1952098293235275E-014
   2.6400000000000007E-002    -6.7026790888979701E-014
   2.6700000000000002E-002    -8.7837612873063724E-015
   2.6999999999999996E-002     4.7855482309041400E-014
   2.7300000000000005E-002     7.8197267967388295E-013
   2.7600000000000000E-002    -5.8303805479589322E-013
   2.7900000000000008E-002    -5.8607791963065500E-012
   2.8200000000000003E-002     8.0810393144593062E-012
   2.8499999999999998E-002     2.6671438635318276E-011
   2.8800000000000006E-002    -5.7850939228907066E-011
   2.9100000000000001E-002    -8.8849023954509475E-011
   2.9400000000000003E-002     2.9660004776674305E-010
   2.9700000000000004E-002     2.3090384372061315E-010
   3.0000000000000006E-002    -1.2472944982950607E-009
   3.0300000000000001E-002    -4.9853893120133540E-010
   3.0600000000000002E-002     4.6360489143185113E-009
   3.0900000000000004E-002     1.1808914986689490E-009
   3.1199999999999999E-002    -1.5947658549557516E-008
   3.1500000000000007E-002    -5.5978632412501845E-009
   3.1800000000000002E-002     4.9306831638206214E-008
   3.2099999999999997E-002     3.0154600965318570E-008
   3.2400000000000005E-002    -1.4551054830911982E-007
   3.2700000000000000E-002    -1.7683067069719925E-007
   3.3000000000000002E-002     4.5424955203261754E-007
   3.3300000000000003E-002     1.9597689397359416E-006
   3.3599999999999998E-002     4.7110734247309647E-006
   3.3900000000000000E-002     1.0469202589364793E-005
   3.4200000000000001E-002     2.1619181589509669E-005
   3.4500000000000003E-002     3.8102338791843824E-005
   3.4799999999999998E-002     5.7158598330030457E-005
   3.5099999999999999E-002     7.8722859025873285E-005
   3.5400000000000001E-002     1.0970520756101640E-004
   3.5699999999999996E-002     1.5999156139208961E-004
   3.6000000000000004E-002     2.3633672145899305E-004
   3.6299999999999999E-002     3.4532336932618246E-004
   3.6600000000000008E-002     5.0078446749958309E-004
   3.6900000000000002E-002     7.2040186452981088E-004
   3.7199999999999997E-002     1.0135751302235542E-003
   3.7500000000000006E-002     1.3818414201327974E-003
   3.7800000000000000E-002     1.8369577075094234E-003
   3.8100000000000009E-002     2.4096631178127477E-003
   3.8400000000000004E-002     3.1259966023337417E-003
   3.8699999999999998E-002     3.9688910600439026E-003
   3.9000000000000007E-002     4.8667529599642767E-003
   3.9300000000000002E-002     5.7185449121358277E-003
   3.9600000000000003E-002     6.4147382298198686E-003
   3.9900000000000005E-002     6.8097275947278024E-003
   4.0200000000000000E-002     6.6636729472743031E-003
   4.0500000000000001E-002     5.6165347100600015E-003
   4.0800000000000003E-002     3.2217035882221214E-003
   4.1100000000000005E-002    -1.0147858530492996E-003
   4.1399999999999999E-002    -7.6334583954632360E-003
   4.1700000000000008E-002    -1.7229412273391621E-002
   4.2000000000000003E-002    -3.0392056100848445E-002
   4.2299999999999997E-002    -4.7590069884398928E-002
   4.2600000000000006E-002    -6.9062513900209593E-002
   4.2900000000000001E-002    -9.4736939524016184E-002
   4.3200000000000002E-002   -0.12410939885959946     
   4.3500000000000004E-002   -0.15608607341677649     
   4.3799999999999999E-002   -0.18885683583176291     
   4.4100000000000000E-002   -0.21986143431744604     
   4.4400000000000002E-002   -0.24578863622671032     
   4.4700000000000004E-002   -0.26261298025157537     
   4.4999999999999998E-002   -0.26573993041400940     
   4.5300000000000000E-002   -0.25031507231628958     
   4.5600000000000002E-002   -0.21165597782376500     
   4.5899999999999996E-002   -0.14570610599157083     
   4.6200000000000005E-002    -4.9563015721638307E-002
   4.6500000000000000E-002     7.7953992980202863E-002
   4.6799999999999994E-002    0.23573267377946142     
   4.7100000000000003E-002    0.41995107255952879     
   4.7399999999999998E-002    0.62384295570428605     
   4.7700000000000006E-002    0.83768188813988320     
   4.8000000000000001E-002     1.0490838203840847     
   4.8300000000000010E-002     1.2436525996745098     
   4.8600000000000004E-002     1.4058806670111370     
   4.8899999999999999E-002     1.5202908407623426     
   4.9200000000000008E-002     1.5728043738420237     
   4.9500000000000002E-002     1.5521239942455327     
   4.9800000000000011E-002     1.4510659784072248     
   5.0100000000000006E-002     1.2675132206526460     
   5.0400000000000000E-002     1.0052167435132060     
   5.0700000000000009E-002    0.67382258517061511     
   5.1000000000000004E-002    0.28870416040292979     
   5.1299999999999998E-002   -0.13027171113818059     
   5.1600000000000007E-002   -0.55987041765880841     
   5.1900000000000002E-002   -0.97560485774380468     
   5.2200000000000010E-002    -1.3535021152570914     
   5.2500000000000005E-002    -1.6725215072337465     
   5.2800000000000000E-002    -1.9159430052177031     
   5.3099999999999994E-002    -2.0732601338236112     
   5.3400000000000003E-002    -2.1404971991770658     
   5.3699999999999998E-002    -2.1209441587088156     
   5.4000000000000006E-002    -2.0241217886744192     
   5.4300000000000001E-002    -1.8651904615766552     
   5.4599999999999996E-002    -1.6626441977302067     
   5.4900000000000004E-002    -1.4369406886029346     
   5.5199999999999999E-002    -1.2077916183994994     
   5.5499999999999994E-002   -0.99283379062104649     
   5.5800000000000002E-002   -0.80538356849433212     
   5.6099999999999997E-002   -0.65390763092567850     
   5.6400000000000006E-002   -0.54083813053738639     
   5.6700000000000000E-002   -0.46345099483207663     
   5.6999999999999995E-002   -0.41381250549721277     
   5.7300000000000004E-002   -0.38076824537788623     
   5.7599999999999998E-002   -0.35077676405690450     
   5.7900000000000007E-002   -0.31016627589017287     
   5.8200000000000002E-002   -0.24633217085913522     
   5.8499999999999996E-002   -0.14953832977091736     
   5.8800000000000005E-002    -1.3844352352157675E-002
   5.9100000000000000E-002    0.16228308760258769     
   5.9400000000000008E-002    0.37574234564955838     
   5.9700000000000003E-002    0.61930387001520726     
   6.0000000000000012E-002    0.88200202345338374     
   6.0300000000000006E-002     1.1505356679135814     
   6.0600000000000001E-002     1.4100414503911607     
   6.0900000000000010E-002     1.6459153650074894     
   6.1200000000000004E-002     1.8443274310703694     
   6.1500000000000013E-002     1.9939928522841899     
   6.1800000000000008E-002     2.0858772770870582     
   6.2100000000000002E-002     2.1149407400244051     
   6.2399999999999997E-002     2.0789725951353830     
   6.2700000000000006E-002     1.9799475497995087     
   6.3000000000000000E-002     1.8220600507896558     
   6.3300000000000009E-002     1.6129001279202388     
   6.3600000000000004E-002     1.3611714214849790     
   6.3899999999999998E-002     1.0776660641414135     
   6.4199999999999993E-002    0.77311100488292517     
   6.4500000000000002E-002    0.45889763339849599     
   6.4800000000000010E-002    0.14546675526378658     
   6.5100000000000005E-002   -0.15714471176246111     
   6.5400000000000000E-002   -0.44046749140600927     
   6.5700000000000008E-002   -0.69712164372710372     
   6.5999999999999989E-002   -0.92131863863284125     
   6.6299999999999998E-002    -1.1086455202834704     
   6.6600000000000006E-002    -1.2559415577466619     
   6.6900000000000001E-002    -1.3615188694248053     
   6.7199999999999996E-002    -1.4245519113175524     
   6.7500000000000004E-002    -1.4455549705310282     
   6.7800000000000013E-002    -1.4253363243462118     
   6.8099999999999994E-002    -1.3658823671957852     
   6.8400000000000002E-002    -1.2693666006571322     
   6.8700000000000011E-002    -1.1391713072405696     
   6.8999999999999992E-002   -0.97887937089768795     
   6.9300000000000000E-002   -0.79351308897344752     
   6.9600000000000009E-002   -0.58861157893709193     
   6.9900000000000004E-002   -0.37137197290642110     
   7.0199999999999999E-002   -0.14969514556126665     
   7.0500000000000007E-002     6.7020562048002857E-002
   7.0800000000000016E-002    0.26884062841913342     
   7.1099999999999997E-002    0.44516514312625094     
   7.1400000000000005E-002    0.58584317589953050     
   7.1700000000000000E-002    0.68147484299693506     
   7.1999999999999995E-002    0.72458463256775074     
   7.2300000000000003E-002    0.71019878237460232     
   7.2600000000000012E-002    0.63671800674551771     
   7.2900000000000006E-002    0.50626601155199369     
   7.3200000000000001E-002    0.32507699697715337     
   7.3499999999999996E-002    0.10328367424436780     
   7.3800000000000004E-002   -0.14555859110571820     
   7.4099999999999999E-002   -0.40517715031330898     
   7.4400000000000008E-002   -0.65760212964510156     
   7.4700000000000003E-002   -0.88445379649747513     
   7.5000000000000011E-002    -1.0682265393379429     
   7.5299999999999992E-002    -1.1933575858461825     
   7.5600000000000001E-002    -1.2473575241066870     
   7.5900000000000009E-002    -1.2216173550637195     
   7.6200000000000004E-002    -1.1118637140609335     
   7.6499999999999999E-002   -0.91862591862740173     
   7.6800000000000007E-002   -0.64694215396353516     
   7.7099999999999988E-002   -0.30649549069734894     
   7.7399999999999997E-002     8.9165334090595239E-002
   7.7700000000000005E-002    0.52301138392775393     
   7.8000000000000014E-002    0.97518033280417171     
   7.8299999999999995E-002     1.4237055387872528     
   7.8600000000000003E-002     1.8455742614648933     
   7.8900000000000012E-002     2.2176637246747601     
   7.9199999999999993E-002     2.5175985578080722     
   7.9500000000000001E-002     2.7252706409060128     
   7.9800000000000010E-002     2.8237183693020644     
   8.0100000000000018E-002     2.8008605585581110     
   8.0399999999999999E-002     2.6500530161941831     
   8.0700000000000008E-002     2.3716638827767822     
   8.1000000000000003E-002     1.9731070192327529     
   8.1299999999999997E-002     1.4696027817680615     
   8.1600000000000006E-002    0.88311781919285171     
   8.1900000000000014E-002    0.24203118544622271     
   8.2199999999999995E-002   -0.42087998681454586     
   8.2500000000000004E-002    -1.0698724621406028     
   8.2799999999999999E-002    -1.6693968428784598     
   8.3100000000000007E-002    -2.1856125248609635     
   8.3400000000000002E-002    -2.5899676084628154     
   8.3700000000000011E-002    -2.8600358011825788     
   8.4000000000000005E-002    -2.9823750867828540     
   8.4300000000000000E-002    -2.9523608041184000     
   8.4599999999999995E-002    -2.7753753855822829     
   8.4900000000000003E-002    -2.4654023761695454     
   8.5199999999999998E-002    -2.0444505503369981     
   8.5500000000000007E-002    -1.5400231331211003     
   8.5800000000000001E-002   -0.98378416730567775     
   8.6100000000000010E-002   -0.40848444300934272     
   8.6399999999999991E-002    0.15375491246352077     
   8.6699999999999999E-002    0.67378984235619122     
   8.7000000000000008E-002     1.1266232238818996     
   8.7300000000000003E-002     1.4929765771756232     
   8.7599999999999997E-002     1.7592543097207829     
   8.7900000000000006E-002     1.9182731763986509     
   8.8200000000000014E-002     1.9681671295237155     
   8.8499999999999995E-002     1.9125480389472047     
   8.8800000000000004E-002     1.7590371449856816     
   8.9100000000000013E-002     1.5188154776358072     
   8.9399999999999993E-002     1.2053776805586789     
   8.9700000000000002E-002    0.83412141623633118     
   9.0000000000000011E-002    0.42127418964359625     
   9.0299999999999991E-002    -1.6300147877365168E-002
   9.0600000000000000E-002   -0.46184106718237411     
   9.0900000000000009E-002   -0.89882467699514312     
   9.1200000000000017E-002    -1.3115758401916111     
   9.1499999999999998E-002    -1.6853829560352604     
   9.1800000000000007E-002    -2.0070707640257721     
   9.2100000000000001E-002    -2.2653159831434317     
   9.2399999999999996E-002    -2.4510439979064529     
   9.2700000000000005E-002    -2.5580901374188940     
   9.3000000000000013E-002    -2.5833985108917550     
   9.3300000000000008E-002    -2.5275385632119280     
   9.3600000000000003E-002    -2.3944149124925045     
   9.3899999999999997E-002    -2.1916147714154537     
   9.4200000000000006E-002    -1.9296624905102759     
   9.4500000000000001E-002    -1.6220302609922772     
   9.4800000000000009E-002    -1.2836191216997588     
   9.5100000000000004E-002   -0.93025767939943316     
   9.5399999999999999E-002   -0.57696802324392460     
   9.5699999999999993E-002   -0.23762473378265683     
   9.6000000000000002E-002     7.7015433749214338E-002
   9.6300000000000011E-002    0.35928748139722216     
   9.6600000000000005E-002    0.60604762906237697     
   9.6900000000000000E-002    0.81779096546544960     
   9.7200000000000009E-002    0.99924719485819968     
   9.7499999999999989E-002     1.1579304387574643     
   9.7799999999999998E-002     1.3035355860170594     
   9.8100000000000007E-002     1.4464657349626131     
   9.8400000000000015E-002     1.5963994252433658     
   9.8699999999999996E-002     1.7614059743055475     
   9.9000000000000005E-002     1.9463018454190713     
   9.9300000000000013E-002     2.1527674577298241     
   9.9599999999999994E-002     2.3784019793829732     
   9.9900000000000003E-002     2.6178370541784837     
  0.10020000000000001          2.8626226737600975     
  0.10049999999999999          3.1029155484413997     
  0.10080000000000000          3.3279013772610715     
  0.10110000000000001          3.5274879108310158     
  0.10140000000000000          3.6925940992293720     
  0.10170000000000000          3.8165313143422557     
  0.10200000000000001          3.8942291133605167     
  0.10230000000000002          3.9227889749632467     
  0.10260000000000000          3.9002601901986074     
  0.10290000000000001          3.8259228413882251     
  0.10320000000000000          3.6982486957132927     
  0.10350000000000001          3.5155542002959059     
  0.10380000000000000          3.2745281067168324     
  0.10410000000000001          2.9715826710902067     
  0.10440000000000001          2.6023227475671522     
  0.10470000000000000          2.1631621001461028     
  0.10500000000000000          1.6519585268480672     
  0.10530000000000000          1.0699639787321518     
  0.10560000000000000         0.42249534236899422     
  0.10590000000000001        -0.28001446510734840     
  0.10620000000000000         -1.0215828969880216     
  0.10650000000000001         -1.7807991575871409     
  0.10679999999999999         -2.5318569553831742     
  0.10710000000000000         -3.2459724999009545     
  0.10740000000000001         -3.8932157936382978     
  0.10770000000000000         -4.4453246115503484     
  0.10800000000000000         -4.8776057365610646     
  0.10830000000000001         -5.1718977502514409     
  0.10859999999999999         -5.3177000118603948     
  0.10890000000000000         -5.3144113930783181     
  0.10920000000000001         -5.1708223601704137     
  0.10950000000000001         -4.9060668213825362     
  0.10979999999999999         -4.5467720636209705     
  0.11009999999999999         -4.1266384919093415     
  0.11040000000000001         -3.6822747920334153     
  0.11070000000000001         -3.2512708135927517     
  0.11100000000000000         -2.8679689309356267     
  0.11130000000000000         -2.5610471470790244     
  0.11160000000000002         -2.3505908495507448     
  0.11190000000000001         -2.2466412637961648     
  0.11220000000000001         -2.2480895648067167     
  0.11250000000000000         -2.3433557879289606     
  0.11280000000000000         -2.5113541733334652     
  0.11309999999999999         -2.7240035533820222     
  0.11340000000000001         -2.9487369240319281     
  0.11369999999999998         -3.1517826587039370     
  0.11400000000000000         -3.3013160017411809     
  0.11430000000000000         -3.3703221300158086     
  0.11460000000000002         -3.3385727211081351     
  0.11489999999999999         -3.1937793645379755     
  0.11520000000000001         -2.9325653738499251     
  0.11550000000000001         -2.5589268763183393     
  0.11580000000000000         -2.0848027641798881     
  0.11609999999999999         -1.5265338371586934     
  0.11640000000000002        -0.90461745597568632     
  0.11670000000000001        -0.24033045850212376     
  0.11700000000000001         0.44466687451126186     
  0.11730000000000000          1.1308972541170075     
  0.11760000000000000          1.8009740937676149     
  0.11789999999999999          2.4415607320794113     
  0.11820000000000001          3.0415205267506136     
  0.11850000000000001          3.5938750192608824     
  0.11880000000000000          4.0924333357143619     
  0.11910000000000000          4.5331785791219055     
  0.11940000000000002          4.9103906986863208     
  0.11970000000000001          5.2178396513758081     
  0.12000000000000001          5.4446945190645337     
  0.12030000000000000          5.5771620394674706     
  0.12060000000000000          5.5950235453350459     
  0.12089999999999999          5.4750901271601151     
  0.12119999999999999          5.1902040779923357     
  0.12150000000000001          4.7144057279975478     
  0.12180000000000001          4.0252601650360207     
  0.12210000000000000          3.1112658365401247     
  0.12239999999999999          1.9757196650363342     
  0.12270000000000002         0.64456374400954575     
  0.12300000000000001        -0.83105137895274384     
  0.12330000000000001         -2.3700931437937758     
  0.12360000000000000         -3.8645466008850367     
  0.12390000000000000         -5.1820083764542675     
  0.12419999999999999         -6.1763675058954579     
  0.12450000000000001         -6.6981790661963077     
  0.12480000000000001         -6.6122598760042335     
  0.12509999999999999         -5.8132220135516661     
  0.12540000000000001         -4.2437229992563541     
  0.12570000000000003         -1.9074330509982840     
  0.12600000000000000          1.1197315192068840     
  0.12630000000000002          4.6874497992245168     
  0.12659999999999999          8.5740826916374786     
  0.12690000000000001          12.499491376287533     
  0.12719999999999998          16.143988631521580     
  0.12750000000000000          19.174909414727487     
  0.12780000000000002          21.275512699162228     
  0.12809999999999999          22.175899467642850     
  0.12840000000000001          21.681003245513224     
  0.12869999999999998          19.693475355774535     
  0.12900000000000000          16.229472299859857     
  0.12930000000000003          11.423329598412106     
  0.12959999999999999          5.5218847787655303     
  0.12990000000000002         -1.1314822596131311     
  0.13019999999999998         -8.1213904329927367     
  0.13050000000000000         -14.993448773493569     
  0.13080000000000003         -21.288676423217279     
  0.13109999999999999         -26.581520308242652     
  0.13140000000000002         -30.510663577173506     
  0.13169999999999998         -32.808869186516645     
  0.13200000000000001         -33.319861529215871     
  0.13229999999999997         -32.008914466672067     
  0.13260000000000000         -28.962029893479777     
  0.13290000000000002         -24.374919620683492     
  0.13319999999999999         -18.537234093021979     
  0.13350000000000001         -11.805626614800801     
  0.13380000000000003         -4.5804704901747382     
  0.13410000000000000          2.7277754486376447     
  0.13440000000000002          9.7190919987521429     
  0.13469999999999999          16.035795670048508     
  0.13500000000000001          21.372747451786282     
  0.13529999999999998          25.501461108605344     
  0.13560000000000000          28.268086302552121     
  0.13590000000000002          29.605741284727245     
  0.13619999999999999          29.522261501778178     
  0.13650000000000001          28.102621529781072     
  0.13680000000000003          25.489195983474083     
  0.13710000000000000          21.876542686637627     
  0.13740000000000002          17.489719426972286     
  0.13769999999999999          12.574379885771723     
  0.13800000000000001          7.3777662648831352     
  0.13829999999999998          2.1371398210077972     
  0.13860000000000000         -2.9335444599564635     
  0.13890000000000002         -7.6514948976225430     
  0.13919999999999999         -11.871724189458359     
  0.13950000000000001         -15.490761576684612     
  0.13979999999999998         -18.444606859046715     
  0.14010000000000000         -20.708374751873180     
  0.14040000000000002         -22.286964535887471     
  0.14069999999999999         -23.213577043006445     
  0.14100000000000001         -23.535816375653468     
  0.14130000000000004         -23.314835645187664     
  0.14160000000000000         -22.611182098663523     
  0.14189999999999997         -21.487855528538446     
  0.14219999999999999         -19.997185318824670     
  0.14250000000000002         -18.189206600539432     
  0.14279999999999998         -16.100448822263704     
  0.14310000000000000         -13.766701213317313     
  0.14339999999999997         -11.214604786737459     
  0.14369999999999999         -8.4743411030360072     
  0.14400000000000002         -5.5740584222931737     
  0.14429999999999998         -2.5508026931487997     
  0.14460000000000001         0.55575703759637829     
  0.14490000000000003          3.6943828265612426     
  0.14520000000000000          6.8092323296989719     
  0.14550000000000002          9.8351867680247995     
  0.14579999999999999          12.705542737717149     
  0.14610000000000001          15.349633329953015     
  0.14640000000000003          17.701021009522965     
  0.14670000000000000          19.697150038771337     
  0.14699999999999996          21.285619938818670     
  0.14729999999999999          22.425214568597397     
  0.14760000000000001          23.089616358644456     
  0.14789999999999998          23.266866186967039     
  0.14820000000000000          22.961925856426515     