  -1.4999999999999999E-002     0.0000000000000000     
  -1.4700000000000000E-002    -4.8426732064399403E-006
  -1.4400000000000000E-002    -2.2682123017148115E-005
  -1.4100000000000000E-002     1.9740470452234149E-004
  -1.3800000000000000E-002     5.5326725123450160E-004
  -1.3500000000000000E-002     6.9172558141872287E-004
  -1.3200000000000000E-002     1.0511674918234348E-003
  -1.2899999999999998E-002     1.1723343050107360E-003
  -1.2600000000000000E-002     9.8547525703907013E-004
  -1.2299999999999998E-002     1.2646693503484130E-003
  -1.2000000000000000E-002     2.2387376520782709E-003
  -1.1699999999999999E-002     3.2657107803970575E-003
  -1.1399999999999999E-002     3.8527352735400200E-003
  -1.1099999999999999E-002     5.3869863040745258E-003
  -1.0799999999999999E-002     7.1374280378222466E-003
  -1.0499999999999999E-002     7.7257528901100159E-003
  -1.0199999999999999E-002     7.6197749003767967E-003
  -9.8999999999999991E-003     6.3876491039991379E-003
  -9.5999999999999992E-003     2.1644169464707375E-003
  -9.2999999999999992E-003    -8.3619002252817154E-003
  -8.9999999999999993E-003    -2.7299076318740845E-002
  -8.6999999999999994E-003    -5.8469578623771667E-002
  -8.3999999999999995E-003   -0.10823815315961838     
  -8.0999999999999996E-003   -0.18323501944541931     
  -7.7999999999999988E-003   -0.29303297400474548     
  -7.4999999999999997E-003   -0.44796144962310791     
  -7.1999999999999998E-003   -0.66012740135192871     
  -6.8999999999999981E-003   -0.94259142875671387     
  -6.5999999999999982E-003    -1.3071950674057007     
  -6.3000000000000000E-003    -1.7651741504669189     
  -6.0000000000000001E-003    -2.3229191303253174     
  -5.6999999999999985E-003    -2.9816398620605469     
  -5.3999999999999986E-003    -3.7337021827697754     
  -5.1000000000000004E-003    -4.5591306686401367     
  -4.7999999999999987E-003    -5.4249787330627441     
  -4.5000000000000005E-003    -6.2808794975280762     
  -4.1999999999999989E-003    -7.0597143173217773     
  -3.8999999999999990E-003    -7.6790308952331543     
  -3.5999999999999990E-003    -8.0425682067871094     
  -3.2999999999999991E-003    -8.0452461242675781     
  -2.9999999999999992E-003    -7.5807418823242188     
  -2.6999999999999993E-003    -6.5522236824035645     
  -2.3999999999999994E-003    -4.8831486701965332     
  -2.0999999999999977E-003    -2.5284638404846191     
  -1.7999999999999995E-003    0.51201379299163818     
  -1.4999999999999979E-003     4.1835923194885254     
  -1.1999999999999997E-003     8.3720169067382812     
  -8.9999999999999976E-004     12.900295257568359     
  -5.9999999999999810E-004     17.532625198364258     
  -2.9999999999999992E-004     21.986454010009766     
   0.0000000000000000          25.948545455932617     
   3.0000000000000165E-004     29.098260879516602     
   5.9999999999999984E-004     31.133422851562500     
   9.0000000000000149E-004     31.798894882202148     
   1.2000000000000031E-003     30.913236618041992     
   1.5000000000000013E-003     28.389652252197266     
   1.8000000000000030E-003     24.252944946289062     
   2.1000000000000012E-003     18.644329071044922     
   2.3999999999999994E-003     11.817461967468262     
   2.7000000000000010E-003     4.1235675811767578     
   2.9999999999999992E-003    -4.0137510299682617     
   3.3000000000000008E-003    -12.127616882324219     
   3.6000000000000025E-003    -19.746122360229492     
   3.9000000000000007E-003    -26.428997039794922     
   4.2000000000000023E-003    -31.801187515258789     
   4.5000000000000005E-003    -35.579959869384766     
   4.7999999999999987E-003    -37.594696044921875     
   5.1000000000000004E-003    -37.797748565673828     
   5.4000000000000020E-003    -36.261234283447266     
   5.7000000000000037E-003    -33.165824890136719     
   5.9999999999999984E-003    -28.781555175781250     
   6.3000000000000000E-003    -23.442148208618164     
   6.6000000000000017E-003    -17.515888214111328     
   6.9000000000000034E-003    -11.376364707946777     
   7.2000000000000015E-003    -5.3755121231079102     
   7.5000000000000032E-003    0.18019425868988037     
   7.8000000000000014E-003     5.0455889701843262     
   8.0999999999999996E-003     9.0475234985351562     
   8.4000000000000012E-003     12.088027954101562     
   8.7000000000000029E-003     14.142340660095215     
   9.0000000000000011E-003     15.251615524291992     
   9.2999999999999992E-003     15.508518218994141     
   9.6000000000000009E-003     15.044611930847168     
   9.8999999999999991E-003     14.015172958374023     
   1.0200000000000001E-002     12.583473205566406     
   1.0500000000000002E-002     10.907868385314941     
   1.0800000000000004E-002     9.1294775009155273     
   1.1099999999999999E-002     7.3678584098815918     
   1.1400000000000000E-002     5.7149648666381836     
   1.1700000000000002E-002     4.2324094772338867     
   1.2000000000000004E-002     2.9557445049285889     
   1.2300000000000002E-002     1.8979502916336060     
   1.2600000000000000E-002     1.0532869100570679     
   1.2900000000000002E-002    0.40312680602073669     
   1.3200000000000000E-002    -7.7464170753955841E-002
   1.3500000000000002E-002   -0.41551682353019714     
   1.3800000000000003E-002   -0.63741594552993774     
   1.4100000000000001E-002   -0.76703095436096191     
   1.4400000000000000E-002   -0.82440447807312012     
   1.4700000000000001E-002   -0.82595741748809814     
   1.4999999999999999E-002   -0.78537201881408691     
   1.5300000000000001E-002   -0.71434205770492554     
   1.5600000000000003E-002   -0.62449717521667480     
   1.5899999999999997E-002   -0.52641695737838745     
   1.6199999999999999E-002   -0.42905801534652710     
   1.6500000000000001E-002   -0.34216976165771484     
   1.6800000000000002E-002   -0.27326032519340515     
   1.7100000000000004E-002   -0.22571223974227905     
   1.7400000000000006E-002   -0.20013518631458282     
   1.7700000000000000E-002   -0.19522821903228760     
   1.8000000000000002E-002   -0.20644102990627289     
   1.8300000000000004E-002   -0.22605948150157928     
   1.8600000000000005E-002   -0.24775916337966919     
   1.8900000000000000E-002   -0.26548200845718384     
   1.9200000000000002E-002   -0.27447372674942017     
   1.9500000000000003E-002   -0.27319204807281494     
   1.9799999999999998E-002   -0.26292991638183594     
   2.0100000000000000E-002   -0.24727411568164825     
   2.0400000000000001E-002   -0.23095445334911346     
   2.0700000000000003E-002   -0.21961332857608795     
   2.0999999999999998E-002   -0.21678513288497925     
   2.1299999999999999E-002   -0.22346690297126770     
   2.1600000000000001E-002   -0.24016785621643066     
   2.1900000000000003E-002   -0.26349627971649170     
   2.2200000000000004E-002   -0.28672111034393311     
   2.2500000000000006E-002   -0.30436715483665466     
   2.2800000000000001E-002   -0.31190344691276550     
   2.3100000000000002E-002   -0.30457189679145813     
   2.3400000000000004E-002   -0.28024521470069885     
   2.3699999999999999E-002   -0.24111331999301910     
   2.4000000000000000E-002   -0.19190594553947449     
   2.4300000000000002E-002   -0.13823002576828003     
   2.4599999999999997E-002    -8.6623370647430420E-002
   2.4900000000000005E-002    -4.4400084763765335E-002
   2.5200000000000000E-002    -1.6090327873826027E-002
   2.5499999999999995E-002    -3.3327764831483364E-003
   2.5800000000000003E-002    -5.7854671031236649E-003
   2.6099999999999998E-002    -1.9548337906599045E-002
   2.6400000000000007E-002    -4.0553867816925049E-002
   2.6700000000000002E-002    -6.3273578882217407E-002
   2.6999999999999996E-002    -8.1717140972614288E-002
   2.7300000000000005E-002    -9.2473849654197693E-002
   2.7600000000000000E-002    -9.4129055738449097E-002
   2.7900000000000008E-002    -8.7816663086414337E-002
   2.8200000000000003E-002    -7.5975999236106873E-002
   2.8499999999999998E-002    -6.2819480895996094E-002
   2.8800000000000006E-002    -5.2742477506399155E-002
   2.9100000000000001E-002    -4.8021409660577774E-002
   2.9400000000000003E-002    -5.0360176712274551E-002
   2.9700000000000004E-002    -5.9448748826980591E-002
   3.0000000000000006E-002    -7.2321645915508270E-002
   3.0300000000000001E-002    -8.4977544844150543E-002
   3.0600000000000002E-002    -9.3571260571479797E-002
   3.0900000000000004E-002    -9.4161622226238251E-002
   3.1199999999999999E-002    -8.3559311926364899E-002
   3.1500000000000007E-002    -6.2041442841291428E-002
   3.1800000000000002E-002    -3.1741790473461151E-002
   3.2099999999999997E-002     4.1958251968026161E-003
   3.2400000000000005E-002     4.0958166122436523E-002
   3.2700000000000000E-002     7.3555327951908112E-002
   3.3000000000000002E-002     9.8096489906311035E-002
   3.3300000000000003E-002    0.11296655237674713     
   3.3599999999999998E-002    0.11790943145751953     
   3.3900000000000000E-002    0.11474433541297913     
   3.4200000000000001E-002    0.10741218179464340     
   3.4500000000000003E-002    0.10010731220245361     
   3.4799999999999998E-002     9.5796704292297363E-002
   3.5099999999999999E-002     9.6321016550064087E-002
   3.5400000000000001E-002    0.10172206163406372     
   3.5699999999999996E-002    0.10891079902648926     
   3.6000000000000004E-002    0.11310633271932602     
   3.6299999999999999E-002    0.10830301046371460     
   3.6600000000000008E-002     8.9416690170764923E-002
   3.6900000000000002E-002     5.3252529352903366E-002
   3.7199999999999997E-002    -1.8403076101094484E-003
   3.7500000000000006E-002    -7.3074974119663239E-002
   3.7800000000000000E-002   -0.15358217060565948     
   3.8100000000000009E-002   -0.23383636772632599     
   3.8400000000000004E-002   -0.30321118235588074     
   3.8699999999999998E-002   -0.35098332166671753     
   3.9000000000000007E-002   -0.36740815639495850     
   3.9300000000000002E-002   -0.34724926948547363     
   3.9600000000000003E-002   -0.29000023007392883     
   3.9900000000000005E-002   -0.19976216554641724     
   4.0200000000000000E-002    -8.5201792418956757E-002
   4.0500000000000001E-002     4.1342280805110931E-002
   4.0800000000000003E-002    0.16570432484149933     
   4.1100000000000005E-002    0.27488747239112854     
   4.1399999999999999E-002    0.35742157697677612     
   4.1700000000000008E-002    0.40651890635490417     
   4.2000000000000003E-002    0.42043212056159973     
   4.2299999999999997E-002    0.40134882926940918     
   4.2600000000000006E-002    0.35652482509613037     
   4.2900000000000001E-002    0.29518526792526245     
   4.3200000000000002E-002    0.22738529741764069     
   4.3500000000000004E-002    0.16211591660976410     
   4.3799999999999999E-002    0.10549579560756683     
   4.4100000000000000E-002     6.0076106339693069E-002
   4.4400000000000002E-002     2.3210819810628891E-002
   4.4700000000000004E-002    -1.0079863481223583E-002
   4.4999999999999998E-002    -4.6874769032001495E-002
   4.5300000000000000E-002    -9.5659010112285614E-002
   4.5600000000000002E-002   -0.16246020793914795     
   4.5899999999999996E-002   -0.24883300065994263     
   4.6200000000000005E-002   -0.35208353400230408     
   4.6500000000000000E-002   -0.46462205052375793     
   4.6799999999999994E-002   -0.57283127307891846     
   4.7100000000000003E-002   -0.65944635868072510     
   4.7399999999999998E-002   -0.70612275600433350     
   4.7700000000000006E-002   -0.69541144371032715     
   4.8000000000000001E-002   -0.61338740587234497     
   4.8300000000000010E-002   -0.45314732193946838     
   4.8600000000000004E-002   -0.21636483073234558     
   4.8899999999999999E-002     8.6869753897190094E-002
   4.9200000000000008E-002    0.43707051873207092     
   4.9500000000000002E-002    0.80617755651473999     
   4.9800000000000011E-002     1.1611858606338501     
   5.0100000000000006E-002     1.4668602943420410     
   5.0400000000000000E-002     1.6889681816101074     
   5.0700000000000009E-002     1.7978805303573608     
   5.1000000000000004E-002     1.7729371786117554     
   5.1299999999999998E-002     1.6040663719177246     
   5.1600000000000007E-002     1.2936806678771973     
   5.1900000000000002E-002    0.85763376951217651     
   5.2200000000000010E-002    0.32355290651321411     
   5.2500000000000005E-002   -0.26979938149452209     
   5.2800000000000000E-002   -0.87773454189300537     
   5.3099999999999994E-002    -1.4521079063415527     
   5.3400000000000003E-002    -1.9457410573959351     
   5.3699999999999998E-002    -2.3175375461578369     
   5.4000000000000006E-002    -2.5353820323944092     
   5.4300000000000001E-002    -2.5807259082794189     
   5.4599999999999996E-002    -2.4489655494689941     
   5.4900000000000004E-002    -2.1501829624176025     
   5.5199999999999999E-002    -1.7092187404632568     
   5.5499999999999994E-002    -1.1616053581237793     
   5.5800000000000002E-002   -0.55114293098449707     
   5.6099999999999997E-002     7.4622660875320435E-002
   5.6400000000000006E-002    0.66896748542785645     
   5.6700000000000000E-002     1.1900941133499146     
   5.6999999999999995E-002     1.6051634550094604     
   5.7300000000000004E-002     1.8921480178833008     
   5.7599999999999998E-002     2.0412821769714355     
   5.7900000000000007E-002     2.0544834136962891     
   5.8200000000000002E-002     1.9447603225708008     
   5.8499999999999996E-002     1.7332559823989868     
   5.8800000000000005E-002     1.4459868669509888     
   5.9100000000000000E-002     1.1113305091857910     
   5.9400000000000008E-002    0.75675249099731445     
   5.9700000000000003E-002    0.40698233246803284     
   6.0000000000000012E-002     8.1895366311073303E-002
   6.0300000000000006E-002   -0.20375479757785797     
   6.0600000000000001E-002   -0.44059714674949646     
   6.0900000000000010E-002   -0.62442022562026978     
   6.1200000000000004E-002   -0.75485473871231079     
   6.1500000000000013E-002   -0.83389943838119507     
   6.1800000000000008E-002   -0.86540913581848145     
   6.2100000000000002E-002   -0.85495901107788086     
   6.2399999999999997E-002   -0.80834257602691650     
   6.2700000000000006E-002   -0.73194307088851929     
   6.3000000000000000E-002   -0.63255429267883301     
   6.3300000000000009E-002   -0.51731389760971069     
   6.3600000000000004E-002   -0.39435440301895142     
   6.3899999999999998E-002   -0.27055802941322327     
   6.4199999999999993E-002   -0.15307410061359406     
   6.4500000000000002E-002    -4.8969976603984833E-002
   6.4800000000000010E-002     3.6491457372903824E-002
   6.5100000000000005E-002    0.10016821324825287     
   6.5400000000000000E-002    0.14173234999179840     
   6.5700000000000008E-002    0.16175372898578644     
   6.5999999999999989E-002    0.16321523487567902     
   6.6299999999999998E-002    0.15150462090969086     
   6.6600000000000006E-002    0.13151729106903076     
   6.6900000000000001E-002    0.10843379050493240     
   6.7199999999999996E-002     8.6798198521137238E-002
   6.7500000000000004E-002     6.9673314690589905E-002
   6.7800000000000013E-002     5.7997949421405792E-002
   6.8099999999999994E-002     5.1462590694427490E-002
   6.8400000000000002E-002     4.9084056168794632E-002
   6.8700000000000011E-002     4.8528075218200684E-002
   6.8999999999999992E-002     4.7405663877725601E-002
   6.9300000000000000E-002     4.4255096465349197E-002
   6.9600000000000009E-002     3.8687899708747864E-002
   6.9900000000000004E-002     3.1094470992684364E-002
   7.0199999999999999E-002     2.2865395992994308E-002
   7.0500000000000007E-002     1.6082311049103737E-002
   7.0800000000000016E-002     1.2488584034144878E-002
   7.1099999999999997E-002     1.3882946223020554E-002
   7.1400000000000005E-002     2.0573582500219345E-002
   7.1700000000000000E-002     3.1710330396890640E-002
   7.1999999999999995E-002     4.5995295047760010E-002
   7.2300000000000003E-002     6.1259131878614426E-002
   7.2600000000000012E-002     7.4415452778339386E-002
   7.2900000000000006E-002     8.2444816827774048E-002
   7.3200000000000001E-002     8.3909399807453156E-002
   7.3499999999999996E-002     7.7994316816329956E-002
   7.3800000000000004E-002     6.5062418580055237E-002
   7.4099999999999999E-002     4.6834126114845276E-002
   7.4400000000000008E-002     2.5628902018070221E-002
   7.4700000000000003E-002     4.4206436723470688E-003
   7.5000000000000011E-002    -1.4589197002351284E-002
   7.5299999999999992E-002    -2.9262632131576538E-002
   7.5600000000000001E-002    -3.8543395698070526E-002
   7.5900000000000009E-002    -4.2375225573778152E-002
   7.6200000000000004E-002    -4.1325580328702927E-002
   7.6499999999999999E-002    -3.7650913000106812E-002
   7.6800000000000007E-002    -3.2976239919662476E-002
   7.7099999999999988E-002    -2.8476286679506302E-002
   7.7399999999999997E-002    -2.5489401072263718E-002
   7.7700000000000005E-002    -2.4448765441775322E-002
   7.8000000000000014E-002    -2.4738013744354248E-002
   7.8299999999999995E-002    -2.4993514642119408E-002
   7.8600000000000003E-002    -2.4446297436952591E-002
   7.8900000000000012E-002    -2.1905727684497833E-002
   7.9199999999999993E-002    -1.6389109194278717E-002
   7.9500000000000001E-002    -8.0826049670577049E-003
   7.9800000000000010E-002     2.2159984800964594E-003
   8.0100000000000018E-002     1.3399556279182434E-002
   8.0399999999999999E-002     2.4006145074963570E-002
   8.0700000000000008E-002     3.1607776880264282E-002
   8.1000000000000003E-002     3.4611936658620834E-002
   8.1299999999999997E-002     3.2653957605361938E-002
   8.1600000000000006E-002     2.5614509359002113E-002
   8.1900000000000014E-002     1.4324314892292023E-002
   8.2199999999999995E-002     2.1935848053544760E-004
   8.2500000000000004E-002    -1.4554616063833237E-002
   8.2799999999999999E-002    -2.8135363012552261E-002
   8.3100000000000007E-002    -3.8950286805629730E-002
   8.3400000000000002E-002    -4.5511145144701004E-002
   8.3700000000000011E-002    -4.7402840107679367E-002
   8.4000000000000005E-002    -4.4950693845748901E-002
   8.4300000000000000E-002    -3.9143569767475128E-002
   8.4599999999999995E-002    -3.1102774664759636E-002
   8.4900000000000003E-002    -2.2450009360909462E-002
   8.5199999999999998E-002    -1.4299658127129078E-002
   8.5500000000000007E-002    -7.0691164582967758E-003
   8.5800000000000001E-002    -1.1344642844051123E-003
   8.6100000000000010E-002     3.5883404780179262E-003
   8.6399999999999991E-002     7.3140207678079605E-003
   8.6699999999999999E-002     1.1159730143845081E-002
   8.7000000000000008E-002     1.5492094680666924E-002
   8.7300000000000003E-002     2.0071165636181831E-002
   8.7599999999999997E-002     2.5073546916246414E-002
   8.7900000000000006E-002     2.9867600649595261E-002
   8.8200000000000014E-002     3.3586997538805008E-002
   8.8499999999999995E-002     3.5153325647115707E-002
   8.8800000000000004E-002     3.3812355250120163E-002
   8.9100000000000013E-002     2.9533058404922485E-002
   8.9399999999999993E-002     2.1965043619275093E-002
   8.9700000000000002E-002     1.1894679628312588E-002
   9.0000000000000011E-002     4.8494327347725630E-004
   9.0299999999999991E-002    -1.1050430126488209E-002
   9.0600000000000000E-002    -2.1229449659585953E-002
   9.0900000000000009E-002    -2.8940539807081223E-002
   9.1200000000000017E-002    -3.3321451395750046E-002
   9.1499999999999998E-002    -3.4483294934034348E-002
   9.1800000000000007E-002    -3.2205853611230850E-002
   9.2100000000000001E-002    -2.7150979265570641E-002
   9.2399999999999996E-002    -2.0436091348528862E-002
   9.2700000000000005E-002    -1.3079060241580009E-002
   9.3000000000000013E-002    -5.9228553436696529E-003
   9.3300000000000008E-002     4.3847679626196623E-004
   9.3600000000000003E-002     5.6361807510256767E-003
   9.3899999999999997E-002     1.0074228979647160E-002
   9.4200000000000006E-002     1.4144169166684151E-002
   9.4500000000000001E-002     1.7794525250792503E-002
   9.4800000000000009E-002     2.1416980773210526E-002
   9.5100000000000004E-002     2.5333588942885399E-002
   9.5399999999999999E-002     2.9005020856857300E-002
   9.5699999999999993E-002     3.1561043113470078E-002
   9.6000000000000002E-002     3.2650627195835114E-002
   9.6300000000000011E-002     3.1608495861291885E-002
   9.6600000000000005E-002     2.7695614844560623E-002
   9.6900000000000000E-002     2.0631523802876472E-002
   9.7200000000000009E-002     1.0664176195859909E-002
   9.7499999999999989E-002    -1.0268066544085741E-003
   9.7799999999999998E-002    -1.3569742441177368E-002
   9.8100000000000007E-002    -2.5408882647752762E-002
   9.8400000000000015E-002    -3.4791152924299240E-002
   9.8699999999999996E-002    -4.0880020707845688E-002
   9.9000000000000005E-002    -4.2935255914926529E-002
   9.9300000000000013E-002    -4.1288077831268311E-002
   9.9599999999999994E-002    -3.5827994346618652E-002
   9.9900000000000003E-002    -2.7298428118228912E-002
  0.10020000000000001         -1.7446003854274750E-002
  0.10049999999999999         -7.3101315647363663E-003
  0.10080000000000000          2.0537811797112226E-003
  0.10110000000000001          9.7751012071967125E-003
  0.10140000000000000          1.5445925295352936E-002
  0.10170000000000000          1.9483311101794243E-002
  0.10200000000000001          2.2491753101348877E-002
  0.10230000000000002          2.4361409246921539E-002
  0.10260000000000000          2.5652980431914330E-002
  0.10290000000000001          2.6755180209875107E-002
  0.10320000000000000          2.7497759088873863E-002
  0.10350000000000001          2.7228670194745064E-002
  0.10380000000000000          2.5646952912211418E-002
  0.10410000000000001          2.2255275398492813E-002
  0.10440000000000001          1.6390338540077209E-002
  0.10470000000000000          8.1986421719193459E-003
  0.10500000000000000         -2.0642869640141726E-003
  0.10530000000000000         -1.3569293543696404E-002
  0.10560000000000000         -2.4820970371365547E-002
  0.10590000000000001         -3.4585997462272644E-002
  0.10620000000000000         -4.1435636579990387E-002
  0.10650000000000001         -4.4383119791746140E-002
  0.10679999999999999         -4.2955659329891205E-002
  0.10710000000000000         -3.7397343665361404E-002
  0.10740000000000001         -2.8399964794516563E-002
  0.10770000000000000         -1.7063766717910767E-002
  0.10800000000000000         -4.6451091766357422E-003
  0.10830000000000001          7.3256855830550194E-003
  0.10859999999999999          1.7331114038825035E-002
  0.10890000000000000          2.4614768102765083E-002
  0.10920000000000001          2.8792424127459526E-002
  0.10950000000000001          3.0364366248250008E-002
  0.10979999999999999          2.9838506132364273E-002
  0.11009999999999999          2.7511762455105782E-002
  0.11040000000000001          2.4789525195956230E-002
  0.11070000000000001          2.1915126591920853E-002
  0.11100000000000000          1.8856558948755264E-002
  0.11130000000000000          1.5705360099673271E-002
  0.11160000000000002          1.2244445271790028E-002
  0.11190000000000001          8.1143444404006004E-003
  0.11220000000000001          2.6771137490868568E-003
  0.11250000000000000         -4.1443193331360817E-003
  0.11280000000000000         -1.2321393005549908E-002
  0.11309999999999999         -2.1262126043438911E-002
  0.11340000000000001         -2.9579043388366699E-002
  0.11369999999999998         -3.6236062645912170E-002
  0.11400000000000000         -4.0272947400808334E-002
  0.11430000000000000         -4.0871866047382355E-002
  0.11460000000000002         -3.7189520895481110E-002
  0.11489999999999999         -2.9614055529236794E-002
  0.11520000000000001         -1.9018433988094330E-002
  0.11550000000000001         -6.2767798081040382E-003
  0.11580000000000000          6.6372239962220192E-003
  0.11609999999999999          1.8272025510668755E-002
  0.11640000000000002          2.7510024607181549E-002
  0.11670000000000001          3.3321514725685120E-002
  0.11700000000000001          3.5292848944664001E-002
  0.11730000000000000          3.3541634678840637E-002
  0.11760000000000000          2.9246756806969643E-002
  0.11789999999999999          2.3383442312479019E-002
  0.11820000000000001          1.6929466277360916E-002
  0.11850000000000001          1.1169743724167347E-002
  0.11880000000000000          6.6873989999294281E-003
  0.11910000000000000          3.3237249590456486E-003
  0.11940000000000002          9.0499070938676596E-004
  0.11970000000000001         -1.0616381186991930E-003
  0.12000000000000001         -3.2774410210549831E-003
  0.12030000000000000         -6.3879094086587429E-003
  0.12060000000000000         -1.1086098849773407E-002
  0.12089999999999999         -1.6938535496592522E-002
  0.12119999999999999         -2.3161280900239944E-002
  0.12150000000000001         -2.9308581724762917E-002
  0.12180000000000001         -3.3840470016002655E-002
  0.12210000000000000         -3.5454902797937393E-002
  0.12239999999999999         -3.3416759222745895E-002
  0.12270000000000002         -2.7628276497125626E-002
  0.12300000000000001         -1.8254376947879791E-002
  0.12330000000000001         -5.7761315256357193E-003
  0.12360000000000000          7.8258104622364044E-003
  0.12390000000000000          2.0889110863208771E-002
  0.12419999999999999          3.2052241265773773E-002
  0.12450000000000001          3.9917122572660446E-002
  0.12480000000000001          4.3377235531806946E-002
  0.12509999999999999          4.2209561914205551E-002
  0.12540000000000001          3.7131085991859436E-002
  0.12570000000000003          2.8822006657719612E-002
  0.12600000000000000          1.9009765237569809E-002
  0.12630000000000002          9.1299032792448997E-003
  0.12659999999999999         -3.5510805901139975E-005
  0.12690000000000001         -7.3166205547749996E-003
  0.12719999999999998         -1.2548010796308517E-002
  0.12750000000000000         -1.5999995172023773E-002
  0.12780000000000002         -1.8056072294712067E-002
  0.12809999999999999         -1.9432226195931435E-002
  0.12840000000000001         -2.0639304071664810E-002
  0.12869999999999998         -2.2511223331093788E-002
  0.12900000000000000         -2.4765804409980774E-002
  0.12930000000000003         -2.6775054633617401E-002
  0.12959999999999999         -2.8223650529980659E-002
  0.12990000000000002         -2.7828833088278770E-002
  0.13019999999999998         -2.4457633495330811E-002
  0.13050000000000000         -1.8167302012443542E-002
  0.13080000000000003         -9.1770403087139130E-003
  0.13109999999999999          2.3870817385613918E-003
  0.13140000000000002          1.5115028247237206E-002
  0.13169999999999998          2.7554824948310852E-002
  0.13200000000000001          3.7980146706104279E-002
  0.13229999999999997          4.5052245259284973E-002
  0.13260000000000000          4.7591526061296463E-002
  0.13290000000000002          4.5007318258285522E-002
  0.13319999999999999          3.8032121956348419E-002
  0.13350000000000001          2.7392851188778877E-002
  0.13380000000000003          1.4415342360734940E-002
  0.13410000000000000          1.0807043872773647E-003
  0.13440000000000002         -1.1178805492818356E-002
  0.13469999999999999         -2.1068396046757698E-002
  0.13500000000000001         -2.7777910232543945E-002
  0.13529999999999998         -3.1302463263273239E-002
  0.13560000000000000         -3.2139111310243607E-002
  0.13590000000000002         -3.0735971406102180E-002
  0.13619999999999999         -2.7741303667426109E-002
  0.13650000000000001         -2.4382481351494789E-002
  0.13680000000000003         -2.1076433360576630E-002
  0.13710000000000000         -1.7948223277926445E-002
  0.13740000000000002         -1.4916413463652134E-002
  0.13769999999999999         -1.1615728028118610E-002
  0.13800000000000001         -7.3921596631407738E-003
  0.13829999999999998         -1.3839487219229341E-003
  0.13860000000000000          5.9603368863463402E-003
  0.13890000000000002          1.4449683018028736E-002
  0.13919999999999999          2.3492280393838882E-002
  0.13950000000000001          3.1899474561214447E-002
  0.13979999999999998          3.8559146225452423E-002
  0.14010000000000000          4.2284797877073288E-002
  0.14040000000000002          4.2136620730161667E-002
  0.14069999999999999          3.7637814879417419E-002
  0.14100000000000001          2.8982065618038177E-002
  0.14130000000000004          1.7082205042243004E-002
  0.14160000000000000          3.3215917646884918E-003
  0.14189999999999997         -1.0595097206532955E-002
  0.14219999999999999         -2.3085048422217369E-002
  0.14250000000000002         -3.2670695334672928E-002
  0.14279999999999998         -3.8601178675889969E-002
  0.14310000000000000         -4.0366526693105698E-002
  0.14339999999999997         -3.8264684379100800E-002
  0.14369999999999999         -3.3100120723247528E-002
  0.14400000000000002         -2.5616135448217392E-002
  0.14429999999999998         -1.7365762963891029E-002
  0.14460000000000001         -9.5966532826423645E-003
  0.14490000000000003         -2.7215383015573025E-003
  0.14520000000000000          2.6824588421732187E-003
  0.14550000000000002          6.6832415759563446E-003
  0.14579999999999999          9.7394445911049843E-003
  0.14610000000000001          1.2424624525010586E-002
  0.14640000000000003          1.5246383845806122E-002
  0.14670000000000000          1.8520912155508995E-002
  0.14699999999999996          2.2005507722496986E-002
  0.14729999999999999          2.5470731779932976E-002
  0.14760000000000001          2.8384875506162643E-002
  0.14789999999999998          2.9985740780830383E-002
  0.14820000000000000          2.9521822929382324E-002