  -1.4999999999999999E-002     0.0000000000000000     
  -1.4700000000000000E-002     0.0000000000000000     
  -1.4400000000000000E-002     0.0000000000000000     
  -1.4100000000000000E-002     0.0000000000000000     
  -1.3800000000000000E-002     0.0000000000000000     
  -1.3500000000000000E-002     0.0000000000000000     
  -1.3200000000000000E-002     0.0000000000000000     
  -1.2899999999999998E-002     0.0000000000000000     
  -1.2600000000000000E-002     0.0000000000000000     
  -1.2299999999999998E-002     0.0000000000000000     
  -1.2000000000000000E-002     0.0000000000000000     
  -1.1699999999999999E-002     0.0000000000000000     
  -1.1399999999999999E-002     0.0000000000000000     
  -1.1099999999999999E-002     0.0000000000000000     
  -1.0799999999999999E-002     0.0000000000000000     
  -1.0499999999999999E-002     0.0000000000000000     
  -1.0199999999999999E-002     0.0000000000000000     
  -9.8999999999999991E-003     0.0000000000000000     
  -9.5999999999999992E-003     0.0000000000000000     
  -9.2999999999999992E-003     0.0000000000000000     
  -8.9999999999999993E-003     0.0000000000000000     
  -8.6999999999999994E-003     0.0000000000000000     
  -8.3999999999999995E-003     0.0000000000000000     
  -8.0999999999999996E-003     0.0000000000000000     
  -7.7999999999999988E-003     0.0000000000000000     
  -7.4999999999999997E-003     0.0000000000000000     
  -7.1999999999999998E-003     0.0000000000000000     
  -6.8999999999999981E-003     0.0000000000000000     
  -6.5999999999999982E-003     0.0000000000000000     
  -6.3000000000000000E-003     0.0000000000000000     
  -6.0000000000000001E-003     0.0000000000000000     
  -5.6999999999999985E-003     0.0000000000000000     
  -5.3999999999999986E-003     0.0000000000000000     
  -5.1000000000000004E-003     0.0000000000000000     
  -4.7999999999999987E-003     0.0000000000000000     
  -4.5000000000000005E-003     0.0000000000000000     
  -4.1999999999999989E-003     0.0000000000000000     
  -3.8999999999999990E-003     0.0000000000000000     
  -3.5999999999999990E-003     0.0000000000000000     
  -3.2999999999999991E-003     0.0000000000000000     
  -2.9999999999999992E-003     0.0000000000000000     
  -2.6999999999999993E-003     0.0000000000000000     
  -2.3999999999999994E-003     0.0000000000000000     
  -2.0999999999999977E-003     0.0000000000000000     
  -1.7999999999999995E-003     0.0000000000000000     
  -1.4999999999999979E-003     0.0000000000000000     
  -1.1999999999999997E-003     0.0000000000000000     
  -8.9999999999999976E-004     0.0000000000000000     
  -5.9999999999999810E-004     0.0000000000000000     
  -2.9999999999999992E-004     0.0000000000000000     
   0.0000000000000000          0.0000000000000000     
   3.0000000000000165E-004     0.0000000000000000     
   5.9999999999999984E-004     0.0000000000000000     
   9.0000000000000149E-004     0.0000000000000000     
   1.2000000000000031E-003     0.0000000000000000     
   1.5000000000000013E-003     0.0000000000000000     
   1.8000000000000030E-003     0.0000000000000000     
   2.1000000000000012E-003     0.0000000000000000     
   2.3999999999999994E-003     0.0000000000000000     
   2.7000000000000010E-003     0.0000000000000000     
   2.9999999999999992E-003     0.0000000000000000     
   3.3000000000000008E-003     0.0000000000000000     
   3.6000000000000025E-003     0.0000000000000000     
   3.9000000000000007E-003     0.0000000000000000     
   4.2000000000000023E-003     0.0000000000000000     
   4.5000000000000005E-003     0.0000000000000000     
   4.7999999999999987E-003     0.0000000000000000     
   5.1000000000000004E-003     0.0000000000000000     
   5.4000000000000020E-003     0.0000000000000000     
   5.7000000000000037E-003     0.0000000000000000     
   5.9999999999999984E-003     0.0000000000000000     
   6.3000000000000000E-003     0.0000000000000000     
   6.6000000000000017E-003     0.0000000000000000     
   6.9000000000000034E-003     0.0000000000000000     
   7.2000000000000015E-003     0.0000000000000000     
   7.5000000000000032E-003     0.0000000000000000     
   7.8000000000000014E-003     0.0000000000000000     
   8.0999999999999996E-003     0.0000000000000000     
   8.4000000000000012E-003     6.5829961596831707E-037
   8.7000000000000029E-003    -2.9144373527160163E-035
   9.0000000000000011E-003     1.2074059229991173E-034
   9.2999999999999992E-003     1.1757068581603971E-033
   9.6000000000000009E-003    -1.7628271644747664E-032
   9.8999999999999991E-003     6.9880764657796331E-032
   1.0200000000000001E-002     3.8373067985135515E-031
   1.0500000000000002E-002    -5.4585684495122923E-030
   1.0800000000000004E-002     1.8232772764982886E-029
   1.1099999999999999E-002     7.3277030207661023E-029
   1.1400000000000000E-002    -8.9969152906218909E-028
   1.1700000000000002E-002     2.7790321688332283E-027
   1.2000000000000004E-002     5.8435584148325873E-027
   1.2300000000000002E-002    -8.0194656689467288E-026
   1.2600000000000000E-002     2.6037004987066302E-025
   1.2900000000000002E-002     9.2554005499525228E-026
   1.3200000000000000E-002    -3.9070375536510606E-024
   1.3500000000000002E-002     1.4164601820696666E-023
   1.3800000000000003E-002    -8.3973036403591719E-024
   1.4100000000000001E-002    -1.2744167830703039E-022
   1.4400000000000000E-002     5.9040712942923841E-022
   1.4700000000000001E-002    -1.0539185732720552E-021
   1.4999999999999999E-002    -1.4715450201058164E-021
   1.5300000000000001E-002     1.6480817610340415E-020
   1.5600000000000003E-002    -6.4233508470977748E-020
   1.5899999999999997E-002     1.9368786887159185E-019
   1.6199999999999999E-002    -6.3679300045506634E-019
   1.6500000000000001E-002     2.6973081781307838E-018
   1.6800000000000002E-002    -1.2704522271594755E-017
   1.7100000000000004E-002     5.7564749524651376E-017
   1.7400000000000006E-002    -2.4399051390434098E-016
   1.7700000000000000E-002     9.8763448726788342E-016
   1.8000000000000002E-002    -3.9122702710640053E-015
   1.8300000000000004E-002     1.5287504741929789E-014
   1.8600000000000005E-002    -5.8050820281405763E-014
   1.8900000000000000E-002     2.0679656175404820E-013
   1.9200000000000002E-002    -6.5465368586162254E-013
   1.9500000000000003E-002     1.6786592732173644E-012
   1.9799999999999998E-002    -2.6693146391171263E-012
   2.0100000000000000E-002    -2.3778550743008831E-012
   2.0400000000000001E-002     3.5529783976029350E-011
   2.0700000000000003E-002    -1.3576666180181718E-010
   2.0999999999999998E-002     2.6640870065541833E-010
   2.1299999999999999E-002    -7.5145792366448916E-012
   2.1600000000000001E-002    -1.5837265943119405E-009
   2.1900000000000003E-002     4.0557317504408275E-009
   2.2200000000000004E-002    -5.3553617096468997E-010
   2.2500000000000006E-002    -1.8044872263089928E-008
   2.2800000000000001E-002     2.6153747612056577E-008
   2.3100000000000002E-002     4.7479165488084618E-008
   2.3400000000000004E-002    -1.3045242042153404E-007
   2.3699999999999999E-002    -1.4588469809950766E-007
   2.4000000000000000E-002     4.0043769899966719E-007
   2.4300000000000002E-002     5.2861622634736705E-007
   2.4599999999999997E-002    -8.9682959014680819E-007
   2.4900000000000005E-002    -1.8244019202029449E-006
   2.5200000000000000E-002     1.7195656027979567E-006
   2.5499999999999995E-002     9.1779766080435365E-006
   2.5800000000000003E-002     1.4845213627268095E-005
   2.6099999999999998E-002     1.7442880562157370E-005
   2.6400000000000007E-002     2.5356059268233366E-005
   2.6700000000000002E-002     4.6958859456935897E-005
   2.6999999999999996E-002     8.0656900536268950E-005
   2.7300000000000005E-002     1.2238134513609111E-004
   2.7600000000000000E-002     1.8049903155770153E-004
   2.7900000000000008E-002     2.7453972143121064E-004
   2.8200000000000003E-002     4.2001417023129761E-004
   2.8499999999999998E-002     6.2579696532338858E-004
   2.8800000000000006E-002     9.1063237050548196E-004
   2.9100000000000001E-002     1.3127226848155260E-003
   2.9400000000000003E-002     1.8775302451103926E-003
   2.9700000000000004E-002     2.6464723050594330E-003
   3.0000000000000006E-002     3.6678523756563663E-003
   3.0300000000000001E-002     5.0115375779569149E-003
   3.0600000000000002E-002     6.7604058422148228E-003
   3.0900000000000004E-002     8.9906454086303711E-003
   3.1199999999999999E-002     1.1770819313824177E-002
   3.1500000000000007E-002     1.5173445455729961E-002
   3.1800000000000002E-002     1.9266597926616669E-002
   3.2099999999999997E-002     2.4084500968456268E-002
   3.2400000000000005E-002     2.9609393328428268E-002
   3.2700000000000000E-002     3.5775154829025269E-002
   3.3000000000000002E-002     4.2462233453989029E-002
   3.3300000000000003E-002     4.9470461905002594E-002
   3.3599999999999998E-002     5.6496642529964447E-002
   3.3900000000000000E-002     6.3144423067569733E-002
   3.4200000000000001E-002     6.8944066762924194E-002
   3.4500000000000003E-002     7.3357164859771729E-002
   3.4799999999999998E-002     7.5784549117088318E-002
   3.5099999999999999E-002     7.5609982013702393E-002
   3.5400000000000001E-002     7.2265289723873138E-002
   3.5699999999999996E-002     6.5279260277748108E-002
   3.6000000000000004E-002     5.4318822920322418E-002
   3.6299999999999999E-002     3.9246678352355957E-002
   3.6600000000000008E-002     2.0187780261039734E-002
   3.6900000000000002E-002    -2.4343060795217752E-003
   3.7199999999999997E-002    -2.7894083410501480E-002
   3.7500000000000006E-002    -5.5185418576002121E-002
   3.7800000000000000E-002    -8.3054780960083008E-002
   3.8100000000000009E-002   -0.11005911976099014     
   3.8400000000000004E-002   -0.13465961813926697     
   3.8699999999999998E-002   -0.15535597503185272     
   3.9000000000000007E-002   -0.17081692814826965     
   3.9300000000000002E-002   -0.17998269200325012     
   3.9600000000000003E-002   -0.18216137588024139     
   3.9900000000000005E-002   -0.17713537812232971     
   4.0200000000000000E-002   -0.16523112356662750     
   4.0500000000000001E-002   -0.14729996025562286     
   4.0800000000000003E-002   -0.12465599179267883     
   4.1100000000000005E-002    -9.9017441272735596E-002
   4.1399999999999999E-002    -7.2403177618980408E-002
   4.1700000000000008E-002    -4.6981811523437500E-002
   4.2000000000000003E-002    -2.4871956557035446E-002
   4.2299999999999997E-002    -7.9810367897152901E-003
   4.2600000000000006E-002     2.0951449405401945E-003
   4.2900000000000001E-002     4.2232410050928593E-003
   4.3200000000000002E-002    -2.1466710604727268E-003
   4.3500000000000004E-002    -1.6939302906394005E-002
   4.3799999999999999E-002    -3.9462354034185410E-002
   4.4100000000000000E-002    -6.8444393575191498E-002
   4.4400000000000002E-002   -0.10208499431610107     
   4.4700000000000004E-002   -0.13817808032035828     
   4.4999999999999998E-002   -0.17423187196254730     
   4.5300000000000000E-002   -0.20761047303676605     
   4.5600000000000002E-002   -0.23574209213256836     
   4.5899999999999996E-002   -0.25626537203788757     
   4.6200000000000005E-002   -0.26714241504669189     
   4.6500000000000000E-002   -0.26681336760520935     
   4.6799999999999994E-002   -0.25430014729499817     
   4.7100000000000003E-002   -0.22930583357810974     
   4.7399999999999998E-002   -0.19222247600555420     
   4.7700000000000006E-002   -0.14407490193843842     
   4.8000000000000001E-002    -8.6474344134330750E-002
   4.8300000000000010E-002    -2.1573668345808983E-002
   4.8600000000000004E-002     4.8079468309879303E-002
   4.8899999999999999E-002    0.11977628618478775     
   4.9200000000000008E-002    0.19082120060920715     
   4.9500000000000002E-002    0.25858631730079651     
   4.9800000000000011E-002    0.32069560885429382     
   5.0100000000000006E-002    0.37523975968360901     
   5.0400000000000000E-002    0.42084652185440063     
   5.0700000000000009E-002    0.45662456750869751     
   5.1000000000000004E-002    0.48217684030532837     
   5.1299999999999998E-002    0.49763655662536621     
   5.1600000000000007E-002    0.50358653068542480     
   5.1900000000000002E-002    0.50087946653366089     
   5.2200000000000010E-002    0.49053278565406799     
   5.2500000000000005E-002    0.47367078065872192     
   5.2800000000000000E-002    0.45140191912651062     
   5.3099999999999994E-002    0.42469763755798340     
   5.3400000000000003E-002    0.39434242248535156     
   5.3699999999999998E-002    0.36092126369476318     
   5.4000000000000006E-002    0.32484561204910278     
   5.4300000000000001E-002    0.28636300563812256     
   5.4599999999999996E-002    0.24560424685478210     
   5.4900000000000004E-002    0.20264780521392822     
   5.5199999999999999E-002    0.15766963362693787     
   5.5499999999999994E-002    0.11102253198623657     
   5.5800000000000002E-002     6.3269503414630890E-002
   5.6099999999999997E-002     1.5222014859318733E-002
   5.6400000000000006E-002    -3.2026086002588272E-002
   5.6700000000000000E-002    -7.7085189521312714E-002
   5.6999999999999995E-002   -0.11837484687566757     
   5.7300000000000004E-002   -0.15426127612590790     
   5.7599999999999998E-002   -0.18320472538471222     
   5.7900000000000007E-002   -0.20387834310531616     
   5.8200000000000002E-002   -0.21532130241394043     
   5.8499999999999996E-002   -0.21712110936641693     
   5.8800000000000005E-002   -0.20954523980617523     
   5.9100000000000000E-002   -0.19354715943336487     
   5.9400000000000008E-002   -0.17074136435985565     
   5.9700000000000003E-002   -0.14330253005027771     
   6.0000000000000012E-002   -0.11387945711612701     
   6.0300000000000006E-002    -8.5379488766193390E-002
   6.0600000000000001E-002    -6.0664430260658264E-002
   6.0900000000000010E-002    -4.2309377342462540E-002
   6.1200000000000004E-002    -3.2398246228694916E-002
   6.1500000000000013E-002    -3.2348878681659698E-002
   6.1800000000000008E-002    -4.2667098343372345E-002
   6.2100000000000002E-002    -6.2929086387157440E-002
   6.2399999999999997E-002    -9.1841809451580048E-002
   6.2700000000000006E-002   -0.12727254629135132     
   6.3000000000000000E-002   -0.16639509797096252     
   6.3300000000000009E-002   -0.20591858029365540     
   6.3600000000000004E-002   -0.24235081672668457     
   6.3899999999999998E-002   -0.27224463224411011     
   6.4199999999999993E-002   -0.29246222972869873     
   6.4500000000000002E-002   -0.30046862363815308     
   6.4800000000000010E-002   -0.29443779587745667     
   6.5100000000000005E-002   -0.27344015240669250     
   6.5400000000000000E-002   -0.23760291934013367     
   6.5700000000000008E-002   -0.18804657459259033     
   6.5999999999999989E-002   -0.12683214247226715     
   6.6299999999999998E-002    -5.6843310594558716E-002
   6.6600000000000006E-002     1.8337178975343704E-002
   6.6900000000000001E-002     9.4710469245910645E-002
   6.7199999999999996E-002    0.16817665100097656     
   6.7500000000000004E-002    0.23474544286727905     
   6.7800000000000013E-002    0.29076996445655823     
   6.8099999999999994E-002    0.33316665887832642     
   6.8400000000000002E-002    0.35961109399795532     
   6.8700000000000011E-002    0.36865133047103882     
   6.8999999999999992E-002    0.35966458916664124     
   6.9300000000000000E-002    0.33272203803062439     
   6.9600000000000009E-002    0.28857100009918213     
   6.9900000000000004E-002    0.22850507497787476     
   7.0199999999999999E-002    0.15412986278533936     
   7.0500000000000007E-002     6.7187510430812836E-002
   7.0800000000000016E-002    -3.0513901263475418E-002
   7.1099999999999997E-002   -0.13705736398696899     
   7.1400000000000005E-002   -0.25048419833183289     
   7.1700000000000000E-002   -0.36870357394218445     
   7.1999999999999995E-002   -0.48931014537811279     
   7.2300000000000003E-002   -0.60954195261001587     
   7.2600000000000012E-002   -0.72614967823028564     
   7.2900000000000006E-002   -0.83529639244079590     
   7.3200000000000001E-002   -0.93260920047760010     
   7.3499999999999996E-002    -1.0133856534957886     
   7.3800000000000004E-002    -1.0728241205215454     
   7.4099999999999999E-002    -1.1061960458755493     
   7.4400000000000008E-002    -1.1093103885650635     
   7.4700000000000003E-002    -1.0789146423339844     
   7.5000000000000011E-002    -1.0129891633987427     
   7.5299999999999992E-002   -0.91101890802383423     
   7.5600000000000001E-002   -0.77417188882827759     
   7.5900000000000009E-002   -0.60537642240524292     
   7.6200000000000004E-002   -0.40923348069190979     
   7.6499999999999999E-002   -0.19183352589607239     
   7.6800000000000007E-002     3.9594031870365143E-002
   7.7099999999999988E-002    0.27698075771331787     
   7.7399999999999997E-002    0.51172626018524170     
   7.7700000000000005E-002    0.73522150516510010     
   7.8000000000000014E-002    0.93916165828704834     
   7.8299999999999995E-002     1.1158008575439453     
   7.8600000000000003E-002     1.2583438158035278     
   7.8900000000000012E-002     1.3612895011901855     
   7.9199999999999993E-002     1.4204957485198975     
   7.9500000000000001E-002     1.4334104061126709     
   7.9800000000000010E-002     1.3993337154388428     
   8.0100000000000018E-002     1.3195853233337402     
   8.0399999999999999E-002     1.1975337266921997     
   8.0700000000000008E-002     1.0385234355926514     
   8.1000000000000003E-002    0.84977132081985474     
   8.1299999999999997E-002    0.64017587900161743     
   8.1600000000000006E-002    0.41992345452308655     
   8.1900000000000014E-002    0.19991870224475861     
   8.2199999999999995E-002    -9.0282866731286049E-003
   8.2500000000000004E-002   -0.19680333137512207     
   8.2799999999999999E-002   -0.35464790463447571     
   8.3100000000000007E-002   -0.47593337297439575     
   8.3400000000000002E-002   -0.55664777755737305     
   8.3700000000000011E-002   -0.59571796655654907     
   8.4000000000000005E-002   -0.59506911039352417     
   8.4300000000000000E-002   -0.55936872959136963     
   8.4599999999999995E-002   -0.49551331996917725     
   8.4900000000000003E-002   -0.41200712323188782     
   8.5199999999999998E-002   -0.31814065575599670     
   8.5500000000000007E-002   -0.22298586368560791     
   8.5800000000000001E-002   -0.13448442518711090     
   8.6100000000000010E-002    -5.8788325637578964E-002
   8.6399999999999991E-002     2.3973779752850533E-004
   8.6699999999999999E-002     4.1332546621561050E-002
   8.7000000000000008E-002     6.5836109220981598E-002
   8.7300000000000003E-002     7.7411010861396790E-002
   8.7599999999999997E-002     8.1522852182388306E-002
   8.7900000000000006E-002     8.4570445120334625E-002
   8.8200000000000014E-002     9.3063309788703918E-002
   8.8499999999999995E-002    0.11300888657569885     
   8.8800000000000004E-002    0.14897020161151886     
   8.9100000000000013E-002    0.20334422588348389     
   8.9399999999999993E-002    0.27608543634414673     
   8.9700000000000002E-002    0.36461728811264038     
   9.0000000000000011E-002    0.46376687288284302     
   9.0299999999999991E-002    0.56605964899063110     
   9.0600000000000000E-002    0.66233730316162109     
   9.0900000000000009E-002    0.74247330427169800     
   9.1200000000000017E-002    0.79618191719055176     
   9.1499999999999998E-002    0.81383919715881348     
   9.1800000000000007E-002    0.78731054067611694     
   9.2100000000000001E-002    0.71065616607666016     
   9.2399999999999996E-002    0.58089715242385864     
   9.2700000000000005E-002    0.39846339821815491     
   9.3000000000000013E-002    0.16719636321067810     
   9.3300000000000008E-002   -0.10557429492473602     
   9.3600000000000003E-002   -0.40911170840263367     
   9.3899999999999997E-002   -0.72989213466644287     
   9.4200000000000006E-002    -1.0524072647094727     
   9.4500000000000001E-002    -1.3599739074707031     
   9.4800000000000009E-002    -1.6355718374252319     
   9.5100000000000004E-002    -1.8628251552581787     
   9.5399999999999999E-002    -2.0272362232208252     
   9.5699999999999993E-002    -2.1170384883880615     
   9.6000000000000002E-002    -2.1237466335296631     
   9.6300000000000011E-002    -2.0426859855651855     
   9.6600000000000005E-002    -1.8733993768692017     
   9.6900000000000000E-002    -1.6197164058685303     
   9.7200000000000009E-002    -1.2895489931106567     
   9.7499999999999989E-002   -0.89434033632278442     
   9.7799999999999998E-002   -0.44855600595474243     
   9.8100000000000007E-002     3.0936984345316887E-002
   9.8400000000000015E-002    0.52570337057113647     
   9.8699999999999996E-002     1.0166186094284058     
   9.9000000000000005E-002     1.4847595691680908     
   9.9300000000000013E-002     1.9120839834213257     
   9.9599999999999994E-002     2.2820036411285400     
   9.9900000000000003E-002     2.5801885128021240     
  0.10020000000000001          2.7951149940490723     
  0.10049999999999999          2.9183583259582520     
  0.10080000000000000          2.9447443485260010     
  0.10110000000000001          2.8724443912506104     
  0.10140000000000000          2.7031097412109375     
  0.10170000000000000          2.4418232440948486     
  0.10200000000000001          2.0965712070465088     
  0.10230000000000002          1.6778414249420166     
  0.10260000000000000          1.1985278129577637     
  0.10290000000000001         0.67345678806304932     
  0.10320000000000000         0.11861281096935272     
  0.10350000000000001        -0.44933935999870300     
  0.10380000000000000         -1.0133177042007446     
  0.10410000000000001         -1.5561237335205078     
  0.10440000000000001         -2.0611236095428467     
  0.10470000000000000         -2.5127434730529785     
  0.10500000000000000         -2.8965792655944824     
  0.10530000000000000         -3.1996567249298096     
  0.10560000000000000         -3.4108352661132812     
  0.10590000000000001         -3.5212202072143555     
  0.10620000000000000         -3.5245409011840820     
  0.10650000000000001         -3.4172327518463135     
  0.10679999999999999         -3.1987564563751221     
  0.10710000000000000         -2.8721210956573486     
  0.10740000000000001         -2.4440407752990723     
  0.10770000000000000         -1.9249336719512939     
  0.10800000000000000         -1.3290758132934570     
  0.10830000000000001        -0.67455029487609863     
  0.10859999999999999          1.7044857144355774E-002
  0.10890000000000000         0.72115844488143921     
  0.10920000000000001          1.4110224246978760     
  0.10950000000000001          2.0587363243103027     
  0.10979999999999999          2.6364450454711914     
  0.11009999999999999          3.1175787448883057     
  0.11040000000000001          3.4784910678863525     
  0.11070000000000001          3.7001874446868896     
  0.11100000000000000          3.7693114280700684     
  0.11130000000000000          3.6792812347412109     
  0.11160000000000002          3.4314279556274414     
  0.11190000000000001          3.0352487564086914     
  0.11220000000000001          2.5079138278961182     
  0.11250000000000000          1.8737123012542725     
  0.11280000000000000          1.1630104780197144     
  0.11309999999999999         0.41055259108543396     
  0.11340000000000001        -0.34664997458457947     
  0.11369999999999998         -1.0713455677032471     
  0.11400000000000000         -1.7281057834625244     
  0.11430000000000000         -2.2853541374206543     
  0.11460000000000002         -2.7172029018402100     
  0.11489999999999999         -3.0048856735229492     
  0.11520000000000001         -3.1375455856323242     
  0.11550000000000001         -3.1125063896179199     
  0.11580000000000000         -2.9354615211486816     
  0.11609999999999999         -2.6201074123382568     
  0.11640000000000002         -2.1868078708648682     
  0.11670000000000001         -1.6612800359725952     
  0.11700000000000001         -1.0735030174255371     
  0.11730000000000000        -0.45581811666488647     
  0.11760000000000000         0.15923519432544708     
  0.11789999999999999         0.74059462547302246     
  0.11820000000000001          1.2601664066314697     
  0.11850000000000001          1.6944763660430908     
  0.11880000000000000          2.0259969234466553     
  0.11910000000000000          2.2439036369323730     
  0.11940000000000002          2.3444592952728271     
  0.11970000000000001          2.3310625553131104     
  0.12000000000000001          2.2134482860565186     
  0.12030000000000000          2.0066025257110596     
  0.12060000000000000          1.7295738458633423     
  0.12089999999999999          1.4037922620773315     
  0.12119999999999999          1.0511339902877808     
  0.12150000000000001         0.69223725795745850     
  0.12180000000000001         0.34514513611793518     
  0.12210000000000000          2.4249069392681122E-002
  0.12239999999999999        -0.26041227579116821     
  0.12270000000000002        -0.50354546308517456     
  0.12300000000000001        -0.70410472154617310     
  0.12330000000000001        -0.86441487073898315     
  0.12360000000000000        -0.98933774232864380     
  0.12390000000000000         -1.0853188037872314     
  0.12419999999999999         -1.1591789722442627     
  0.12450000000000001         -1.2168509960174561     
  0.12480000000000001         -1.2626417875289917     
  0.12509999999999999         -1.2989315986633301     
  0.12540000000000001         -1.3258162736892700     
  0.12570000000000003         -1.3411854505538940     
  0.12600000000000000         -1.3410618305206299     
  0.12630000000000002         -1.3200292587280273     
  0.12659999999999999         -1.2720860242843628     
  0.12690000000000001         -1.1912839412689209     
  0.12719999999999998         -1.0720531940460205     
  0.12750000000000000        -0.91013324260711670     
  0.12780000000000002        -0.70352786779403687     
  0.12809999999999999        -0.45275875926017761     
  0.12840000000000001        -0.16081625223159790     
  0.12869999999999998         0.16635258495807648     
  0.12900000000000000         0.51921910047531128     
  0.12930000000000003         0.88509017229080200     
  0.12959999999999999          1.2487615346908569     
  0.12990000000000002          1.5928446054458618     
  0.13019999999999998          1.8985152244567871     
  0.13050000000000000          2.1465456485748291     
  0.13080000000000003          2.3186390399932861     
  0.13109999999999999          2.3989195823669434     
  0.13140000000000002          2.3752427101135254     
  0.13169999999999998          2.2402195930480957     
  0.13200000000000001          1.9922515153884888     
  0.13229999999999997          1.6364855766296387     
  0.13260000000000000          1.1850310564041138     
  0.13290000000000002         0.65659421682357788     
  0.13319999999999999          7.5516283512115479E-002
  0.13350000000000001        -0.52940964698791504     
  0.13380000000000003         -1.1264573335647583     
  0.13410000000000000         -1.6830426454544067     
  0.13440000000000002         -2.1678507328033447     
  0.13469999999999999         -2.5532369613647461     
  0.13500000000000001         -2.8170673847198486     
  0.13529999999999998         -2.9438903331756592     
  0.13560000000000000         -2.9262096881866455     
  0.13590000000000002         -2.7653422355651855     
  0.13619999999999999         -2.4709417819976807     
  0.13650000000000001         -2.0599815845489502     
  0.13680000000000003         -1.5556511878967285     
  0.13710000000000000        -0.98588073253631592     
  0.13740000000000002        -0.38123178482055664     
  0.13769999999999999         0.22735629975795746     
  0.13800000000000001         0.81039357185363770     
  0.13829999999999998          1.3413457870483398     
  0.13860000000000000          1.7978301048278809     
  0.13890000000000002          2.1625201702117920     
  0.13919999999999999          2.4238812923431396     
  0.13950000000000001          2.5758459568023682     
  0.13979999999999998          2.6171901226043701     
  0.14010000000000000          2.5514686107635498     
  0.14040000000000002          2.3865437507629395     
  0.14069999999999999          2.1336481571197510     
  0.14100000000000001          1.8066785335540771     
  0.14130000000000004          1.4220108985900879     
  0.14160000000000000         0.99825960397720337     
  0.14189999999999997         0.55550581216812134     
  0.14219999999999999         0.11468026041984558     
  0.14250000000000002        -0.30303049087524414     
  0.14279999999999998        -0.67679524421691895     
  0.14310000000000000        -0.98743718862533569     
  0.14339999999999997         -1.2191023826599121     
  0.14369999999999999         -1.3602066040039062     
  0.14400000000000002         -1.4041392803192139     
  0.14429999999999998         -1.3506420850753784     
  0.14460000000000001         -1.2067538499832153     
  0.14490000000000003        -0.98627465963363647     
  0.14520000000000000        -0.70866131782531738     
  0.14550000000000002        -0.39833599328994751     
  0.14579999999999999         -8.3084195852279663E-002
  0.14610000000000001         0.20847685635089874     
  0.14640000000000003         0.44923275709152222     
  0.14670000000000000         0.61552715301513672     
  0.14699999999999996         0.68903648853302002     
  0.14729999999999999         0.65837800502777100     
  0.14760000000000001         0.52008885145187378     
  0.14789999999999998         0.27879846096038818     
  0.14820000000000000         -5.3344123065471649E-002