  -1.4999999999999999E-002     0.0000000000000000     
  -1.4700000000000000E-002     0.0000000000000000     
  -1.4400000000000000E-002     0.0000000000000000     
  -1.4100000000000000E-002     0.0000000000000000     
  -1.3800000000000000E-002     0.0000000000000000     
  -1.3500000000000000E-002     0.0000000000000000     
  -1.3200000000000000E-002     0.0000000000000000     
  -1.2899999999999998E-002     0.0000000000000000     
  -1.2600000000000000E-002     0.0000000000000000     
  -1.2299999999999998E-002     0.0000000000000000     
  -1.2000000000000000E-002     0.0000000000000000     
  -1.1699999999999999E-002     0.0000000000000000     
  -1.1399999999999999E-002     0.0000000000000000     
  -1.1099999999999999E-002     0.0000000000000000     
  -1.0799999999999999E-002     0.0000000000000000     
  -1.0499999999999999E-002     0.0000000000000000     
  -1.0199999999999999E-002     0.0000000000000000     
  -9.8999999999999991E-003     0.0000000000000000     
  -9.5999999999999992E-003     0.0000000000000000     
  -9.2999999999999992E-003     0.0000000000000000     
  -8.9999999999999993E-003     0.0000000000000000     
  -8.6999999999999994E-003     0.0000000000000000     
  -8.3999999999999995E-003     0.0000000000000000     
  -8.0999999999999996E-003     0.0000000000000000     
  -7.7999999999999988E-003     0.0000000000000000     
  -7.4999999999999997E-003     0.0000000000000000     
  -7.1999999999999998E-003     0.0000000000000000     
  -6.8999999999999981E-003     0.0000000000000000     
  -6.5999999999999982E-003     0.0000000000000000     
  -6.3000000000000000E-003     0.0000000000000000     
  -6.0000000000000001E-003     0.0000000000000000     
  -5.6999999999999985E-003     0.0000000000000000     
  -5.3999999999999986E-003     0.0000000000000000     
  -5.1000000000000004E-003     0.0000000000000000     
  -4.7999999999999987E-003     3.3404472288624855E-038
  -4.5000000000000005E-003    -9.4443920203113827E-037
  -4.1999999999999989E-003    -6.2688645942294038E-036
  -3.8999999999999990E-003     3.7977981114990003E-035
  -3.5999999999999990E-003     3.9535097870096823E-035
  -3.2999999999999991E-003    -3.6545646414259705E-034
  -2.9999999999999992E-003    -1.1360344748331218E-033
  -2.6999999999999993E-003     5.7096232830995077E-033
  -2.3999999999999994E-003     2.2901631138032604E-033
  -2.0999999999999977E-003    -4.8820055386119342E-032
  -1.7999999999999995E-003     6.7504291238625929E-032
  -1.4999999999999979E-003    -6.1323195171168849E-032
  -1.1999999999999997E-003     1.3449747753351433E-030
  -8.9999999999999976E-004    -7.0649136414363866E-030
  -5.9999999999999810E-004     1.1354227452219652E-029
  -2.9999999999999992E-004     3.7136202484850016E-029
   0.0000000000000000         -2.4217608493109728E-028
   3.0000000000000165E-004     5.0621951548850750E-028
   5.9999999999999984E-004     8.9736659458157343E-029
   9.0000000000000149E-004    -3.3606283452991746E-027
   1.2000000000000031E-003     9.4629635667373750E-027
   1.5000000000000013E-003    -1.0175526060909564E-026
   1.8000000000000030E-003    -1.8490369602459821E-026
   2.1000000000000012E-003     1.0751562770960845E-025
   2.3999999999999994E-003    -2.5434519866274741E-025
   2.7000000000000010E-003     4.0803090765458191E-025
   2.9999999999999992E-003    -4.8897247387284959E-025
   3.3000000000000008E-003    -8.5567140882882920E-025
   3.6000000000000025E-003     1.4593090554029184E-023
   3.9000000000000007E-003    -8.6690436607859211E-023
   4.2000000000000023E-003     3.1756271004606699E-022
   4.5000000000000005E-003    -6.5014452393397511E-022
   4.7999999999999987E-003    -4.5203764499210722E-022
   5.1000000000000004E-003     1.0662624667685619E-020
   5.4000000000000020E-003    -5.5298406891756512E-020
   5.7000000000000037E-003     1.9614170015873041E-019
   5.9999999999999984E-003    -5.3828302733036058E-019
   6.3000000000000000E-003     1.1428872248261150E-018
   6.6000000000000017E-003    -1.6141261261357104E-018
   6.9000000000000034E-003    -1.6590833924279674E-019
   7.2000000000000015E-003     1.1182459486479819E-017
   7.5000000000000032E-003    -5.0146659965724828E-017
   7.8000000000000014E-003     1.6157586249772267E-016
   8.0999999999999996E-003    -4.4784971849851649E-016
   8.4000000000000012E-003     1.1757696104572465E-015
   8.7000000000000029E-003    -3.2899812109793989E-015
   9.0000000000000011E-003     1.1089925398626802E-014
   9.2999999999999992E-003    -4.4897642054913048E-014
   9.6000000000000009E-003     1.9138949322941579E-013
   9.8999999999999991E-003    -7.5705771946515954E-013
   1.0200000000000001E-002     2.5375743173405851E-012
   1.0500000000000002E-002    -6.4316260650620904E-012
   1.0800000000000004E-002     8.4149544971046097E-012
   1.1099999999999999E-002     1.9194090761232019E-011
   1.1400000000000000E-002    -1.5440604350658305E-010
   1.1700000000000002E-002     4.4745135374668621E-010
   1.2000000000000004E-002    -4.3487591305790829E-010
   1.2300000000000002E-002    -1.5776437933823217E-009
   1.2600000000000000E-002     6.5726251108344513E-009
   1.2900000000000002E-002    -5.5400506404623684E-009
   1.3200000000000000E-002    -2.2455726167436296E-008
   1.3500000000000002E-002     5.3700784263810419E-008
   1.3800000000000003E-002     4.1896406344221759E-008
   1.4100000000000001E-002    -2.3422660433425335E-007
   1.4400000000000000E-002    -1.3596890369171888E-007
   1.4700000000000001E-002     7.1390564926332445E-007
   1.4999999999999999E-002     6.4819460021681152E-007
   1.5300000000000001E-002    -1.7063450741261477E-006
   1.5600000000000003E-002    -2.5512154024909250E-006
   1.5899999999999997E-002     4.4022817746736109E-006
   1.6199999999999999E-002     1.7837470295489766E-005
   1.6500000000000001E-002     2.9067176001262851E-005
   1.6800000000000002E-002     3.7019046430941671E-005
   1.7100000000000004E-002     5.5095722927944735E-005
   1.7400000000000006E-002     9.6622272394597530E-005
   1.7700000000000000E-002     1.6077517648227513E-004
   1.8000000000000002E-002     2.4429263430647552E-004
   1.8300000000000004E-002     3.6324298707768321E-004
   1.8600000000000005E-002     5.5022269953042269E-004
   1.8900000000000000E-002     8.3341496065258980E-004
   1.9200000000000002E-002     1.2346846051514149E-003
   1.9500000000000003E-002     1.7927184235304594E-003
   1.9799999999999998E-002     2.5755872484296560E-003
   2.0100000000000000E-002     3.6635363940149546E-003
   2.0400000000000001E-002     5.1343492232263088E-003
   2.0700000000000003E-002     7.0785568095743656E-003
   2.0999999999999998E-002     9.6170268952846527E-003
   2.1299999999999999E-002     1.2886732816696167E-002
   2.1600000000000001E-002     1.7011981457471848E-002
   2.1900000000000003E-002     2.2097287699580193E-002
   2.2200000000000004E-002     2.8237156569957733E-002
   2.2500000000000006E-002     3.5499956458806992E-002
   2.2800000000000001E-002     4.3881975114345551E-002
   2.3100000000000002E-002     5.3268413990736008E-002
   2.3400000000000004E-002     6.3429094851016998E-002
   2.3699999999999999E-002     7.4010506272315979E-002
   2.4000000000000000E-002     8.4500811994075775E-002
   2.4300000000000002E-002     9.4196468591690063E-002
   2.4599999999999997E-002    0.10221230238676071     
   2.4900000000000005E-002    0.10752180963754654     
   2.5200000000000000E-002    0.10899955779314041     
   2.5499999999999995E-002    0.10546405613422394     
   2.5800000000000003E-002     9.5768064260482788E-002
   2.6099999999999998E-002     7.8915134072303772E-002
   2.6400000000000007E-002     5.4177984595298767E-002
   2.6700000000000002E-002     2.1212078630924225E-002
   2.6999999999999996E-002    -1.9840037450194359E-002
   2.7300000000000005E-002    -6.8250328302383423E-002
   2.7600000000000000E-002   -0.12261881679296494     
   2.7900000000000008E-002   -0.18092329800128937     
   2.8200000000000003E-002   -0.24057294428348541     
   2.8499999999999998E-002   -0.29850855469703674     
   2.8800000000000006E-002   -0.35140031576156616     
   2.9100000000000001E-002   -0.39582329988479614     
   2.9400000000000003E-002   -0.42860662937164307     
   2.9700000000000004E-002   -0.44712159037590027     
   3.0000000000000006E-002   -0.44944542646408081     
   3.0300000000000001E-002   -0.43461382389068604     
   3.0600000000000002E-002   -0.40279543399810791     
   3.0900000000000004E-002   -0.35536569356918335     
   3.1199999999999999E-002   -0.29487323760986328     
   3.1500000000000007E-002   -0.22478236258029938     
   3.1800000000000002E-002   -0.14927959442138672     
   3.2099999999999997E-002    -7.3139093816280365E-002
   3.2400000000000005E-002    -1.2137661688029766E-003
   3.2700000000000000E-002     6.1971489340066910E-002
   3.3000000000000002E-002    0.11251953244209290     
   3.3300000000000003E-002    0.14743800461292267     
   3.3599999999999998E-002    0.16490796208381653     
   3.3900000000000000E-002    0.16438268125057220     
   3.4200000000000001E-002    0.14666993916034698     
   3.4500000000000003E-002    0.11398802697658539     
   3.4799999999999998E-002     6.9664187729358673E-002
   3.5099999999999999E-002     1.7981033772230148E-002
   3.5400000000000001E-002    -3.6077521741390228E-002
   3.5699999999999996E-002    -8.7098345160484314E-002
   3.6000000000000004E-002   -0.12958046793937683     
   3.6299999999999999E-002   -0.15841466188430786     
   3.6600000000000008E-002   -0.16901732981204987     
   3.6900000000000002E-002   -0.15767782926559448     
   3.7199999999999997E-002   -0.12191443890333176     
   3.7500000000000006E-002    -6.0449320822954178E-002
   3.7800000000000000E-002     2.6421727612614632E-002
   3.8100000000000009E-002    0.13678874075412750     
   3.8400000000000004E-002    0.26752445101737976     
   3.8699999999999998E-002    0.41391810774803162     
   3.9000000000000007E-002    0.57001650333404541     
   3.9300000000000002E-002    0.72920030355453491     
   3.9600000000000003E-002    0.88397675752639771     
   3.9900000000000005E-002     1.0267646312713623     
   4.0200000000000000E-002     1.1501477956771851     
   4.0500000000000001E-002     1.2469125986099243     
   4.0800000000000003E-002     1.3109186887741089     
   4.1100000000000005E-002     1.3370230197906494     
   4.1399999999999999E-002     1.3213782310485840     
   4.1700000000000008E-002     1.2618467807769775     
   4.2000000000000003E-002     1.1577992439270020     
   4.2299999999999997E-002     1.0104192495346069     
   4.2600000000000006E-002    0.82294297218322754     
   4.2900000000000001E-002    0.60027188062667847     
   4.3200000000000002E-002    0.34913957118988037     
   4.3500000000000004E-002     7.8083142638206482E-002
   4.3799999999999999E-002   -0.20298686623573303     
   4.4100000000000000E-002   -0.48282724618911743     
   4.4400000000000002E-002   -0.74944472312927246     
   4.4700000000000004E-002   -0.99065369367599487     
   4.4999999999999998E-002    -1.1944514513015747     
   4.5300000000000000E-002    -1.3499143123626709     
   4.5600000000000002E-002    -1.4480793476104736     
   4.5899999999999996E-002    -1.4823210239410400     
   4.6200000000000005E-002    -1.4491572380065918     
   4.6500000000000000E-002    -1.3485580682754517     
   4.6799999999999994E-002    -1.1842685937881470     
   4.7100000000000003E-002   -0.96416360139846802     
   4.7399999999999998E-002   -0.69935232400894165     
   4.7700000000000006E-002   -0.40377861261367798     
   4.8000000000000001E-002    -9.3688540160655975E-002
   4.8300000000000010E-002    0.21350510418415070     
   4.8600000000000004E-002    0.50012624263763428     
   4.8899999999999999E-002    0.74970287084579468     
   4.9200000000000008E-002    0.94787806272506714     
   4.9500000000000002E-002     1.0828838348388672     
   4.9800000000000011E-002     1.1466612815856934     
   5.0100000000000006E-002     1.1351965665817261     
   5.0400000000000000E-002     1.0486924648284912     
   5.0700000000000009E-002    0.89158427715301514     
   5.1000000000000004E-002    0.67177361249923706     
   5.1299999999999998E-002    0.40036404132843018     
   5.1600000000000007E-002     9.1298893094062805E-002
   5.1900000000000002E-002   -0.24010360240936279     
   5.2200000000000010E-002   -0.57798391580581665     
   5.2500000000000005E-002   -0.90669327974319458     
   5.2800000000000000E-002    -1.2116423845291138     
   5.3099999999999994E-002    -1.4799246788024902     
   5.3400000000000003E-002    -1.7015709877014160     
   5.3699999999999998E-002    -1.8694726228713989     
   5.4000000000000006E-002    -1.9793179035186768     
   5.4300000000000001E-002    -2.0296993255615234     
   5.4599999999999996E-002    -2.0221087932586670     
   5.4900000000000004E-002    -1.9601052999496460     
   5.5199999999999999E-002    -1.8485894203186035     
   5.5499999999999994E-002    -1.6932106018066406     
   5.5800000000000002E-002    -1.4998089075088501     
   5.6099999999999997E-002    -1.2739710807800293     
   5.6400000000000006E-002    -1.0201526880264282     
   5.6700000000000000E-002   -0.74190652370452881     
   5.6999999999999995E-002   -0.44221398234367371     
   5.7300000000000004E-002   -0.12337347865104675     
   5.7599999999999998E-002    0.21241214871406555     
   5.7900000000000007E-002    0.56235450506210327     
   5.8200000000000002E-002    0.92233157157897949     
   5.8499999999999996E-002     1.2865431308746338     
   5.8800000000000005E-002     1.6473650932312012     
   5.9100000000000000E-002     1.9944697618484497     
   5.9400000000000008E-002     2.3153553009033203     
   5.9700000000000003E-002     2.5956532955169678     
   6.0000000000000012E-002     2.8194959163665771     
   6.0300000000000006E-002     2.9708058834075928     
   6.0600000000000001E-002     3.0338375568389893     
   6.0900000000000010E-002     2.9945962429046631     
   6.1200000000000004E-002     2.8422164916992188     
   6.1500000000000013E-002     2.5701704025268555     
   6.1800000000000008E-002     2.1775972843170166     
   6.2100000000000002E-002     1.6697534322738647     
   6.2399999999999997E-002     1.0588800907135010     
   6.2700000000000006E-002    0.36502772569656372     
   6.3000000000000000E-002   -0.38478040695190430     
   6.3300000000000009E-002    -1.1578505039215088     
   6.3600000000000004E-002    -1.9165703058242798     
   6.3899999999999998E-002    -2.6204807758331299     
   6.4199999999999993E-002    -3.2290685176849365     
   6.4500000000000002E-002    -3.7041895389556885     
   6.4800000000000010E-002    -4.0131931304931641     
   6.5100000000000005E-002    -4.1311893463134766     
   6.5400000000000000E-002    -4.0432262420654297     
   6.5700000000000008E-002    -3.7464785575866699     
   6.5999999999999989E-002    -3.2504141330718994     
   6.6299999999999998E-002    -2.5767915248870850     
   6.6600000000000006E-002    -1.7586747407913208     
   6.6900000000000001E-002   -0.83832061290740967     
   6.7199999999999996E-002    0.13483117520809174     
   6.7500000000000004E-002     1.1080396175384521     
   6.7800000000000013E-002     2.0289878845214844     
   6.8099999999999994E-002     2.8477158546447754     
   6.8400000000000002E-002     3.5206396579742432     
   6.8700000000000011E-002     4.0135889053344727     
   6.8999999999999992E-002     4.3026127815246582     
   6.9300000000000000E-002     4.3753957748413086     
   6.9600000000000009E-002     4.2319688796997070     
   6.9900000000000004E-002     3.8842182159423828     
   7.0199999999999999E-002     3.3544573783874512     
   7.0500000000000007E-002     2.6736085414886475     
   7.0800000000000016E-002     1.8795437812805176     
   7.1099999999999997E-002     1.0151413679122925     
   7.1400000000000005E-002    0.12476897239685059     
   7.1700000000000000E-002   -0.74759918451309204     
   7.1999999999999995E-002    -1.5599534511566162     
   7.2300000000000003E-002    -2.2753384113311768     
   7.2600000000000012E-002    -2.8630011081695557     
   7.2900000000000006E-002    -3.2992665767669678     
   7.3200000000000001E-002    -3.5689496994018555     
   7.3499999999999996E-002    -3.6651468276977539     
   7.3800000000000004E-002    -3.5896315574645996     
   7.4099999999999999E-002    -3.3517417907714844     
   7.4400000000000008E-002    -2.9669513702392578     
   7.4700000000000003E-002    -2.4572312831878662     
   7.5000000000000011E-002    -1.8483960628509521     
   7.5299999999999992E-002    -1.1682331562042236     
   7.5600000000000001E-002   -0.44612464308738708     
   7.5900000000000009E-002    0.28879174590110779     
   7.6200000000000004E-002     1.0085310935974121     
   7.6499999999999999E-002     1.6872106790542603     
   7.6800000000000007E-002     2.3021073341369629     
   7.7099999999999988E-002     2.8328988552093506     
   7.7399999999999997E-002     3.2623298168182373     
   7.7700000000000005E-002     3.5771150588989258     
   7.8000000000000014E-002     3.7672488689422607     
   7.8299999999999995E-002     3.8255577087402344     
   7.8600000000000003E-002     3.7493135929107666     
   7.8900000000000012E-002     3.5401217937469482     
   7.9199999999999993E-002     3.2041566371917725     
   7.9500000000000001E-002     2.7529504299163818     
   7.9800000000000010E-002     2.2029833793640137     
   8.0100000000000018E-002     1.5767390727996826     
   8.0399999999999999E-002    0.90172320604324341     
   8.0700000000000008E-002    0.20896422863006592     
   8.1000000000000003E-002   -0.46726235747337341     
   8.1299999999999997E-002    -1.0920836925506592     
   8.1600000000000006E-002    -1.6321021318435669     
   8.1900000000000014E-002    -2.0571460723876953     
   8.2199999999999995E-002    -2.3440728187561035     
   8.2500000000000004E-002    -2.4772601127624512     
   8.2799999999999999E-002    -2.4507384300231934     
   8.3100000000000007E-002    -2.2693457603454590     
   8.3400000000000002E-002    -1.9479312896728516     
   8.3700000000000011E-002    -1.5117248296737671     
   8.4000000000000005E-002   -0.99395173788070679     
   8.4300000000000000E-002   -0.43297418951988220     
   8.4599999999999995E-002    0.12842001020908356     
   8.4900000000000003E-002    0.64692592620849609     
   8.5199999999999998E-002     1.0818301439285278     
   8.5500000000000007E-002     1.3963838815689087     
   8.5800000000000001E-002     1.5606540441513062     
   8.6100000000000010E-002     1.5525166988372803     
   8.6399999999999991E-002     1.3583225011825562     
   8.6699999999999999E-002    0.97501558065414429     
   8.7000000000000008E-002    0.40875929594039917     
   8.7300000000000003E-002   -0.32606732845306396     
   8.7599999999999997E-002    -1.2048246860504150     
   8.7900000000000006E-002    -2.1950767040252686     
   8.8200000000000014E-002    -3.2576355934143066     
   8.8499999999999995E-002    -4.3467183113098145     
   8.8800000000000004E-002    -5.4127268791198730     
   8.9100000000000013E-002    -6.4021677970886230     
   8.9399999999999993E-002    -7.2612490653991699     
   8.9700000000000002E-002    -7.9388589859008789     
   9.0000000000000011E-002    -8.3862981796264648     
   9.0299999999999991E-002    -8.5630168914794922     
   9.0600000000000000E-002    -8.4384460449218750     
   9.0900000000000009E-002    -7.9925050735473633     
   9.1200000000000017E-002    -7.2202262878417969     
   9.1499999999999998E-002    -6.1309938430786133     
   9.1800000000000007E-002    -4.7485208511352539     
   9.2100000000000001E-002    -3.1117951869964600     
   9.2399999999999996E-002    -1.2713326215744019     
   9.2700000000000005E-002    0.71118378639221191     
   9.3000000000000013E-002     2.7665731906890869     
   9.3300000000000008E-002     4.8229198455810547     
   9.3600000000000003E-002     6.8068504333496094     
   9.3899999999999997E-002     8.6477842330932617     
   9.4200000000000006E-002     10.282164573669434     
   9.4500000000000001E-002     11.653837203979492     
   9.4800000000000009E-002     12.717652320861816     
   9.5100000000000004E-002     13.442094802856445     
   9.5399999999999999E-002     13.805851936340332     
   9.5699999999999993E-002     13.801062583923340     
   9.6000000000000002E-002     13.433449745178223     
   9.6300000000000011E-002     12.717111587524414     
   9.6600000000000005E-002     11.677197456359863     
   9.6900000000000000E-002     10.346505165100098     
   9.7200000000000009E-002     8.7617979049682617     
   9.7499999999999989E-002     6.9651269912719727     
   9.7799999999999998E-002     5.0004749298095703     
   9.8100000000000007E-002     2.9124915599822998     
   9.8400000000000015E-002    0.74690067768096924     
   9.8699999999999996E-002    -1.4511286020278931     
   9.9000000000000005E-002    -3.6344032287597656     
   9.9300000000000013E-002    -5.7549352645874023     
   9.9599999999999994E-002    -7.7641477584838867     
   9.9900000000000003E-002    -9.6091814041137695     
  0.10020000000000001         -11.235272407531738     
  0.10049999999999999         -12.588397026062012     
  0.10080000000000000         -13.613009452819824     
  0.10110000000000001         -14.257424354553223     
  0.10140000000000000         -14.478447914123535     
  0.10170000000000000         -14.242772102355957     
  0.10200000000000001         -13.533556938171387     
  0.10230000000000002         -12.353785514831543     
  0.10260000000000000         -10.728566169738770     
  0.10290000000000001         -8.7089910507202148     
  0.10320000000000000         -6.3679747581481934     
  0.10350000000000001         -3.8005490303039551     
  0.10380000000000000         -1.1208049058914185     
  0.10410000000000001          1.5487074851989746     
  0.10440000000000001          4.0812282562255859     
  0.10470000000000000          6.3546886444091797     
  0.10500000000000000          8.2612524032592773     
  0.10530000000000000          9.7120618820190430     
  0.10560000000000000          10.647000312805176     
  0.10590000000000001          11.036607742309570     
  0.10620000000000000          10.882164955139160     
  0.10650000000000001          10.218052864074707     
  0.10679999999999999          9.1073627471923828     
  0.10710000000000000          7.6364779472351074     
  0.10740000000000001          5.9090805053710938     
  0.10770000000000000          4.0387787818908691     
  0.10800000000000000          2.1424515247344971     
  0.10830000000000001         0.33139044046401978     
  0.10859999999999999         -1.2950057983398438     
  0.10890000000000000         -2.6527521610260010     
  0.10920000000000001         -3.6791903972625732     
  0.10950000000000001         -4.3362102508544922     
  0.10979999999999999         -4.6088762283325195     
  0.11009999999999999         -4.5067973136901855     
  0.11040000000000001         -4.0630502700805664     
  0.11070000000000001         -3.3290216922760010     
  0.11100000000000000         -2.3727688789367676     
  0.11130000000000000         -1.2740719318389893     
  0.11160000000000002        -0.11751650273799896     
  0.11190000000000001          1.0107810497283936     
  0.11220000000000001          2.0302250385284424     
  0.11250000000000000          2.8692572116851807     
  0.11280000000000000          3.4715471267700195     
  0.11309999999999999          3.7999901771545410     
  0.11340000000000001          3.8351864814758301     
  0.11369999999999998          3.5800073146820068     
  0.11400000000000000          3.0589833259582520     
  0.11430000000000000          2.3135917186737061     
  0.11460000000000002          1.4004544019699097     
  0.11489999999999999         0.38746917247772217     
  0.11520000000000001        -0.65202170610427856     
  0.11550000000000001         -1.6471081972122192     
  0.11580000000000000         -2.5315554141998291     
  0.11609999999999999         -3.2492825984954834     
  0.11640000000000002         -3.7609131336212158     
  0.11670000000000001         -4.0439672470092773     
  0.11700000000000001         -4.0945248603820801     
  0.11730000000000000         -3.9266090393066406     
  0.11760000000000000         -3.5719268321990967     
  0.11789999999999999         -3.0749640464782715     
  0.11820000000000001         -2.4868514537811279     
  0.11850000000000001         -1.8650803565979004     
  0.11880000000000000         -1.2651534080505371     
  0.11910000000000000        -0.73514515161514282     
  0.11940000000000002        -0.31491091847419739     
  0.11970000000000001         -2.9776211827993393E-002
  0.12000000000000001         0.10887509584426880     
  0.12030000000000000         0.10511280596256256     
  0.12060000000000000         -2.3094385862350464E-002
  0.12089999999999999        -0.24820479750633240     
  0.12119999999999999        -0.53221261501312256     
  0.12150000000000001        -0.83444261550903320     
  0.12180000000000001         -1.1161202192306519     
  0.12210000000000000         -1.3400381803512573     
  0.12239999999999999         -1.4773249626159668     
  0.12270000000000002         -1.5097221136093140     
  0.12300000000000001         -1.4292373657226562     
  0.12330000000000001         -1.2391984462738037     
  0.12360000000000000        -0.95300823450088501     
  0.12390000000000000        -0.59248453378677368     
  0.12419999999999999        -0.18460449576377869     
  0.12450000000000001         0.24148505926132202     
  0.12480000000000001         0.65665394067764282     
  0.12509999999999999          1.0350077152252197     
  0.12540000000000001          1.3578867912292480     
  0.12570000000000003          1.6125119924545288     
  0.12600000000000000          1.7926771640777588     
  0.12630000000000002          1.9019882678985596     
  0.12659999999999999          1.9495967626571655     
  0.12690000000000001          1.9481159448623657     
  0.12719999999999998          1.9144002199172974     
  0.12750000000000000          1.8652013540267944     
  0.12780000000000002          1.8172128200531006     
  0.12809999999999999          1.7827597856521606     
  0.12840000000000001          1.7691464424133301     
  0.12869999999999998          1.7816812992095947     
  0.12900000000000000          1.8185722827911377     
  0.12930000000000003          1.8742593526840210     
  0.12959999999999999          1.9411830902099609     
  0.12990000000000002          2.0082900524139404     
  0.13019999999999998          2.0653705596923828     
  0.13050000000000000          2.1029942035675049     
  0.13080000000000003          2.1132581233978271     
  0.13109999999999999          2.0918710231781006     
  0.13140000000000002          2.0370218753814697     
  0.13169999999999998          1.9503288269042969     
  0.13200000000000001          1.8357156515121460     
  0.13229999999999997          1.6980464458465576     
  0.13260000000000000          1.5432217121124268     
  0.13290000000000002          1.3780766725540161     
  0.13319999999999999          1.2060474157333374     
  0.13350000000000001          1.0291931629180908     
  0.13380000000000003         0.85015362501144409     
  0.13410000000000000         0.66719698905944824     
  0.13440000000000002         0.47761923074722290     
  0.13469999999999999         0.27915698289871216     
  0.13500000000000001          6.8535387516021729E-002
  0.13529999999999998        -0.15587492287158966     
  0.13560000000000000        -0.39603707194328308     
  0.13590000000000002        -0.65100872516632080     
  0.13619999999999999        -0.91700690984725952     
  0.13650000000000001         -1.1923968791961670     
  0.13680000000000003         -1.4702950716018677     
  0.13710000000000000         -1.7431915998458862     
  0.13740000000000002         -2.0069508552551270     
  0.13769999999999999         -2.2535777091979980     
  0.13800000000000001         -2.4763650894165039     
  0.13829999999999998         -2.6721615791320801     
  0.13860000000000000         -2.8375663757324219     
  0.13890000000000002         -2.9710350036621094     
  0.13919999999999999         -3.0731222629547119     
  0.13950000000000001         -3.1469528675079346     
  0.13979999999999998         -3.1975500583648682     
  0.14010000000000000         -3.2283554077148438     
  0.14040000000000002         -3.2449245452880859     
  0.14069999999999999         -3.2535028457641602     
  0.14100000000000001         -3.2552063465118408     
  0.14130000000000004         -3.2508227825164795     
  0.14160000000000000         -3.2400808334350586     
  0.14189999999999997         -3.2164282798767090     
  0.14219999999999999         -3.1728689670562744     
  0.14250000000000002         -3.1017639636993408     
  0.14279999999999998         -2.9940676689147949     
  0.14310000000000000         -2.8434884548187256     
  0.14339999999999997         -2.6446104049682617     
  0.14369999999999999         -2.3970744609832764     
  0.14400000000000002         -2.1060221195220947     
  0.14429999999999998         -1.7770709991455078     
  0.14460000000000001         -1.4211694002151489     
  0.14490000000000003         -1.0500192642211914     
  0.14520000000000000        -0.67177385091781616     
  0.14550000000000002        -0.29500818252563477     
  0.14579999999999999          7.7593818306922913E-002
  0.14610000000000001         0.44911599159240723     
  0.14640000000000003         0.82430261373519897     
  0.14670000000000000          1.2131423950195312     
  0.14699999999999996          1.6254211664199829     
  0.14729999999999999          2.0676989555358887     
  0.14760000000000001          2.5440156459808350     
  0.14789999999999998          3.0500059127807617     
  0.14820000000000000          3.5740356445312500     