  -1.4999999999999999E-002     0.0000000000000000     
  -1.4700000000000000E-002     0.0000000000000000     
  -1.4400000000000000E-002     0.0000000000000000     
  -1.4100000000000000E-002     0.0000000000000000     
  -1.3800000000000000E-002     0.0000000000000000     
  -1.3500000000000000E-002     0.0000000000000000     
  -1.3200000000000000E-002     0.0000000000000000     
  -1.2899999999999998E-002     0.0000000000000000     
  -1.2600000000000000E-002     0.0000000000000000     
  -1.2299999999999998E-002     0.0000000000000000     
  -1.2000000000000000E-002     0.0000000000000000     
  -1.1699999999999999E-002     0.0000000000000000     
  -1.1399999999999999E-002     0.0000000000000000     
  -1.1099999999999999E-002     0.0000000000000000     
  -1.0799999999999999E-002     0.0000000000000000     
  -1.0499999999999999E-002     1.5088244745501613E-039
  -1.0199999999999999E-002    -3.7269269181518863E-037
  -9.8999999999999991E-003     1.6207959212075036E-035
  -9.5999999999999992E-003    -3.5018629237236792E-034
  -9.2999999999999992E-003     3.8933173086450850E-033
  -8.9999999999999993E-003    -3.1373068272042350E-032
  -8.6999999999999994E-003     1.6555954087753439E-031
  -8.3999999999999995E-003    -5.2885364980357631E-031
  -8.0999999999999996E-003     4.9081520538137409E-031
  -7.7999999999999988E-003     4.3296520416013224E-030
  -7.4999999999999997E-003    -2.6620514959734600E-029
  -7.1999999999999998E-003     8.8822118008000072E-029
  -6.8999999999999981E-003    -2.3541717989172454E-028
  -6.5999999999999982E-003     6.6814893165530713E-028
  -6.3000000000000000E-003    -2.3545249470853997E-027
  -6.0000000000000001E-003     8.5788480230816865E-027
  -5.6999999999999985E-003    -2.5512545606126899E-026
  -5.3999999999999986E-003     4.6070900673038507E-026
  -5.1000000000000004E-003     4.1357333526053010E-026
  -4.7999999999999987E-003    -7.6393450335621368E-025
  -4.5000000000000005E-003     3.8878132216054806E-024
  -4.1999999999999989E-003    -1.4467127445493293E-023
  -3.8999999999999990E-003     4.6441818096760052E-023
  -3.5999999999999990E-003    -1.3872210020565721E-022
  -3.2999999999999991E-003     3.9694280822673863E-022
  -2.9999999999999992E-003    -1.0816026381880416E-021
  -2.6999999999999993E-003     2.7451730504788700E-021
  -2.3999999999999994E-003    -6.3393387638067677E-021
  -2.0999999999999977E-003     1.3030971022281372E-020
  -1.7999999999999995E-003    -2.3268767271537057E-020
  -1.4999999999999979E-003     3.4965771495107973E-020
  -1.1999999999999997E-003    -4.2749699178059549E-020
  -8.9999999999999976E-004     4.5091528573639925E-020
  -5.9999999999999810E-004    -7.0899818212031978E-020
  -2.9999999999999992E-004     2.2994620989105443E-019
   0.0000000000000000         -7.5242755834853481E-019
   3.0000000000000165E-004     1.9060148483821105E-018
   5.9999999999999984E-004    -3.6174317126594432E-018
   9.0000000000000149E-004     4.7207826975626830E-018
   1.2000000000000031E-003    -2.1563669169762580E-018
   1.5000000000000013E-003    -8.9010287218400508E-018
   1.8000000000000030E-003     3.2475648617632968E-017
   2.1000000000000012E-003    -6.5027357629461813E-017
   2.3999999999999994E-003     8.0499624699557488E-017
   2.7000000000000010E-003     1.0642639731089179E-017
   2.9999999999999992E-003    -4.9567899141465833E-016
   3.3000000000000008E-003     2.2772308627627052E-015
   3.6000000000000025E-003    -7.9723504751372178E-015
   3.9000000000000007E-003     2.4292939514215205E-014
   4.2000000000000023E-003    -6.6509551058541050E-014
   4.5000000000000005E-003     1.6774554873657171E-013
   4.7999999999999987E-003    -4.0635987437623456E-013
   5.1000000000000004E-003     9.8406660192768093E-013
   5.4000000000000020E-003    -2.2860351534840717E-012
   5.7000000000000037E-003     3.8417091221591258E-012
   5.9999999999999984E-003     3.4244551364792621E-012
   6.3000000000000000E-003    -6.8418701755693390E-011
   6.6000000000000017E-003     3.5080345843851810E-010
   6.9000000000000034E-003    -1.1172458338388123E-009
   7.2000000000000015E-003     2.0288533942906546E-009
   7.5000000000000032E-003     4.4064945359736087E-010
   7.8000000000000014E-003    -1.5298447027936592E-008
   8.0999999999999996E-003     4.3325337295342261E-008
   8.4000000000000012E-003    -2.7335832694900430E-008
   8.7000000000000029E-003    -1.5607410997673579E-007
   9.0000000000000011E-003     3.9905822571354108E-007
   9.2999999999999992E-003     7.6882806175367741E-008
   9.6000000000000009E-003    -1.5681512956684230E-006
   9.8999999999999991E-003     6.8029370053672040E-007
   1.0200000000000001E-002     4.6529741736581526E-006
   1.0500000000000002E-002    -1.5750964409692456E-006
   1.0800000000000004E-002    -1.4041521395004818E-005
   1.1099999999999999E-002    -3.9784451274162851E-006
   1.1400000000000000E-002     5.3331886686732496E-005
   1.1700000000000002E-002     1.4872382245257124E-004
   1.2000000000000004E-002     2.5565349058029145E-004
   1.2300000000000002E-002     3.7236920115527213E-004
   1.2600000000000000E-002     5.3035679527538640E-004
   1.2900000000000002E-002     7.8792034558597054E-004
   1.3200000000000000E-002     1.2206606984866419E-003
   1.3500000000000002E-002     1.8982608894729386E-003
   1.3800000000000003E-002     2.9002669365470052E-003
   1.4100000000000001E-002     4.3488238025508053E-003
   1.4400000000000000E-002     6.4143373869539611E-003
   1.4700000000000001E-002     9.3285490020149631E-003
   1.4999999999999999E-002     1.3391912539037265E-002
   1.5300000000000001E-002     1.8965862058724414E-002
   1.5600000000000003E-002     2.6458536784128905E-002
   1.5899999999999997E-002     3.6319090026508016E-002
   1.6199999999999999E-002     4.9052949124041678E-002
   1.6500000000000001E-002     6.5172602372502109E-002
   1.6800000000000002E-002     8.5099987467285310E-002
   1.7100000000000004E-002    0.10911701890974923     
   1.7400000000000006E-002    0.13727882708801609     
   1.7700000000000000E-002    0.16927037449553595     
   1.8000000000000002E-002    0.20424217399019717     
   1.8300000000000004E-002    0.24065345387023029     
   1.8600000000000005E-002    0.27615011112474974     
   1.8900000000000000E-002    0.30743249280035023     
   1.9200000000000002E-002    0.33017666606419205     
   1.9500000000000003E-002    0.33908640065577167     
   1.9799999999999998E-002    0.32803873642659376     
   2.0100000000000000E-002    0.29037037036192181     
   2.0400000000000001E-002    0.21929476600919351     
   2.0700000000000003E-002    0.10851517195866411     
   2.0999999999999998E-002    -4.6992529891270118E-002
   2.1299999999999999E-002   -0.25011784906339418     
   2.1600000000000001E-002   -0.50069412346568853     
   2.1900000000000003E-002   -0.79473202668081200     
   2.2200000000000004E-002    -1.1236912527219260     
   2.2500000000000006E-002    -1.4741403538536204     
   2.2800000000000001E-002    -1.8277299438795893     
   2.3100000000000002E-002    -2.1616990454293870     
   2.3400000000000004E-002    -2.4500093664727984     
   2.3699999999999999E-002    -2.6647808009752652     
   2.4000000000000000E-002    -2.7783631499883228     
   2.4300000000000002E-002    -2.7658014976994849     
   2.4599999999999997E-002    -2.6072281039752312     
   2.4900000000000005E-002    -2.2903242920767326     
   2.5200000000000000E-002    -1.8121407455436369     
   2.5499999999999995E-002    -1.1806744846656390     
   2.5800000000000003E-002   -0.41524994975258700     
   2.6099999999999998E-002    0.45374101177260329     
   2.6400000000000007E-002     1.3862439935911297     
   2.6700000000000002E-002     2.3351975806287157     
   2.6999999999999996E-002     3.2493540703643191     
   2.7300000000000005E-002     4.0772193666323062     
   2.7600000000000000E-002     4.7708717122936548     
   2.7900000000000008E-002     5.2893021626576910     
   2.8200000000000003E-002     5.6020343726765987     
   2.8499999999999998E-002     5.6909208929253907     
   2.8800000000000006E-002     5.5517167743094546     
   2.9100000000000001E-002     5.1941314398378893     
   2.9400000000000003E-002     4.6405226377170834     
   2.9700000000000004E-002     3.9241984120684918     
   3.0000000000000006E-002     3.0863876585161023     
   3.0300000000000001E-002     2.1727395136918517     
   3.0600000000000002E-002     1.2303554139471959     
   3.0900000000000004E-002    0.30364415547835932     
   3.1199999999999999E-002   -0.56810281251111050     
   3.1500000000000007E-002    -1.3529966175501613     
   3.1800000000000002E-002    -2.0285143881296932     
   3.2099999999999997E-002    -2.5817221865032849     
   3.2400000000000005E-002    -3.0095356414325778     
   3.2700000000000000E-002    -3.3175109618960477     
   3.3000000000000002E-002    -3.5183244219591927     
   3.3300000000000003E-002    -3.6298166438168096     
   3.3599999999999998E-002    -3.6727001476296124     
   3.3900000000000000E-002    -3.6679028042981798     
   3.4200000000000001E-002    -3.6348085489899802     
   3.4500000000000003E-002    -3.5886006610561481     
   3.4799999999999998E-002    -3.5388614298426262     
   3.5099999999999999E-002    -3.4886201279981179     
   3.5400000000000001E-002    -3.4335380945249625     
   3.5699999999999996E-002    -3.3626645435428912     
   3.6000000000000004E-002    -3.2590080200357221     
   3.6299999999999999E-002    -3.1015398478850642     
   3.6600000000000008E-002    -2.8675228822376226     
   3.6900000000000002E-002    -2.5349606648633198     
   3.7199999999999997E-002    -2.0860065184282064     
   3.7500000000000006E-002    -1.5094019908553165     
   3.7800000000000000E-002   -0.80343813095148775     
   3.8100000000000009E-002     2.2338951911602400E-002
   3.8400000000000004E-002    0.94623432735179236     
   3.8699999999999998E-002     1.9340598859964828     
   3.9000000000000007E-002     2.9412551357381886     
   3.9300000000000002E-002     3.9144756160696943     
   3.9600000000000003E-002     4.7956634580575326     
   3.9900000000000005E-002     5.5263151835059716     
   4.0200000000000000E-002     6.0515750097834484     
   4.0500000000000001E-002     6.3256512774873386     
   4.0800000000000003E-002     6.3154769983649999     
   4.1100000000000005E-002     6.0039888863836666     
   4.1399999999999999E-002     5.3926537552583085     
   4.1700000000000008E-002     4.5016113728633087     
   4.2000000000000003E-002     3.3694762219883145     
   4.2299999999999997E-002     2.0509797129385454     
   4.2600000000000006E-002    0.61326222582287926     
   4.2900000000000001E-002   -0.86785033674355461     
   4.3200000000000002E-002    -2.3137986305623883     
   4.3500000000000004E-002    -3.6474578283313690     
   4.3799999999999999E-002    -4.7983812608528353     
   4.4100000000000000E-002    -5.7076215556385250     
   4.4400000000000002E-002    -6.3302249853092576     
   4.4700000000000004E-002    -6.6392282173461581     
   4.4999999999999998E-002    -6.6258234466932038     
   4.5300000000000000E-002    -6.2999362004372301     
   4.5600000000000002E-002    -5.6896404695137193     
   4.5899999999999996E-002    -4.8381435641759367     
   4.6200000000000005E-002    -3.8019735933065206     
   4.6500000000000000E-002    -2.6464553412773899     
   4.6799999999999994E-002    -1.4419021436873471     
   4.7100000000000003E-002   -0.25948856549832655     
   4.7399999999999998E-002    0.83416386255457198     
   4.7700000000000006E-002     1.7803080987134621     
   4.8000000000000001E-002     2.5320398401182729     
   4.8300000000000010E-002     3.0575706762318902     
   4.8600000000000004E-002     3.3417902506526360     
   4.8899999999999999E-002     3.3872121245735087     
   4.9200000000000008E-002     3.2137395068661974     
   4.9500000000000002E-002     2.8564997009563342     
   4.9800000000000011E-002     2.3628681907037965     
   5.0100000000000006E-002     1.7888959100669641     
   5.0400000000000000E-002     1.1934794873724011     
   5.0700000000000009E-002    0.63432667334260806     
   5.1000000000000004E-002    0.16197233158182556     
   5.1299999999999998E-002   -0.18455487062727105     
   5.1600000000000007E-002   -0.38044910950067656     
   5.1900000000000002E-002   -0.41884109684007242     
   5.2200000000000010E-002   -0.30927184073967950     
   5.2500000000000005E-002    -7.7462089489175767E-002
   5.2800000000000000E-002    0.23803225719084997     
   5.3099999999999994E-002    0.59118415362882892     
   5.3400000000000003E-002    0.93246586193577485     
   5.3699999999999998E-002     1.2166304272981847     
   5.4000000000000006E-002     1.4071315415201866     
   5.4300000000000001E-002     1.4809107788204443     
   5.4599999999999996E-002     1.4323674165766960     
   5.4900000000000004E-002     1.2733431468557299     
   5.5199999999999999E-002     1.0332417352057170     
   5.5499999999999994E-002    0.75547838609107387     
   5.5800000000000002E-002    0.49229749529758138     
   5.6099999999999997E-002    0.29928184451688544     
   5.6400000000000006E-002    0.22805777184868870     
   5.6700000000000000E-002    0.31981384666865509     
   5.6999999999999995E-002    0.60006411369725932     
   5.7300000000000004E-002     1.0739076533143930     
   5.7599999999999998E-002     1.7246345952054440     
   5.7900000000000007E-002     2.5145816061178294     
   5.8200000000000002E-002     3.3865120268530688     
   5.8499999999999996E-002     4.2702500613907972     
   5.8800000000000005E-002     5.0876890187487049     
   5.9100000000000000E-002     5.7600843072870020     
   5.9400000000000008E-002     6.2159139167729620     
   5.9700000000000003E-002     6.3949131114665931     
   6.0000000000000012E-002     6.2559584966190442     
   6.0300000000000006E-002     5.7777257316504205     
   6.0600000000000001E-002     4.9603123432618172     
   6.0900000000000010E-002     3.8259258545931445     
   6.1200000000000004E-002     2.4135112801279917     
   6.1500000000000013E-002    0.77764261287773451     
   6.1800000000000008E-002    -1.0174714075725602     
   6.2100000000000002E-002    -2.9030689355636383     
   6.2399999999999997E-002    -4.8084938221110889     
   6.2700000000000006E-002    -6.6667271371023844     
   6.3000000000000000E-002    -8.4160832479032592     
   6.3300000000000009E-002    -10.001979031465680     
   6.3600000000000004E-002    -11.378669963617085     
   6.3899999999999998E-002    -12.508030837221668     
   6.4199999999999993E-002    -13.359493594866876     
   6.4500000000000002E-002    -13.909554090119343     
   6.4800000000000010E-002    -14.139740381254967     
   6.5100000000000005E-002    -14.037713586013638     
   6.5400000000000000E-002    -13.595561693901175     
   6.5700000000000008E-002    -12.810229332833359     
   6.5999999999999989E-002    -11.685565167123741     
   6.6299999999999998E-002    -10.231095339884163     
   6.6600000000000006E-002    -8.4654785672897113     
   6.6900000000000001E-002    -6.4168097543579137     
   6.7199999999999996E-002    -4.1238264217402048     
   6.7500000000000004E-002    -1.6377790379491444     
   6.7800000000000013E-002    0.97851783201921272     
   6.8099999999999994E-002     3.6505089049063884     
   6.8400000000000002E-002     6.2942422832193756     
   6.8700000000000011E-002     8.8181608407790009     
   6.8999999999999992E-002     11.127054738710854     
   6.9300000000000000E-002     13.127388895887577     
   6.9600000000000009E-002     14.730923582958098     
   6.9900000000000004E-002     15.862109842039445     
   7.0199999999999999E-002     16.461725160119443     
   7.0500000000000007E-002     16.492930102801722     
   7.0800000000000016E-002     15.945190989768150     
   7.1099999999999997E-002     14.835561557517650     
   7.1400000000000005E-002     13.211046530364044     
   7.1700000000000000E-002     11.146200026847225     
   7.1999999999999995E-002     8.7406505533906085     
   7.2300000000000003E-002     6.1139553465230705     
   7.2600000000000012E-002     3.3987879451090350     
   7.2900000000000006E-002    0.73416638944098622     
   7.3200000000000001E-002    -1.7435936945708299     
   7.3499999999999996E-002    -3.9094502016817927     
   7.3800000000000004E-002    -5.6568618645137860     
   7.4099999999999999E-002    -6.9058442197100760     
   7.4400000000000008E-002    -7.6070865676798718     
   7.4700000000000003E-002    -7.7457587255632490     
   7.5000000000000011E-002    -7.3437389484501381     
   7.5299999999999992E-002    -6.4564265533883329     
   7.5600000000000001E-002    -5.1703405114695755     
   7.5900000000000009E-002    -3.5971964590765282     
   7.6200000000000004E-002    -1.8656796089906180     
   7.6499999999999999E-002   -0.11335873552217635     
   7.6800000000000007E-002     1.5240967351175065     
   7.7099999999999988E-002     2.9221529005713194     
   7.7399999999999997E-002     3.9764736890148384     
   7.7700000000000005E-002     4.6112014718960239     
   7.8000000000000014E-002     4.7834755643676452     
   7.8299999999999995E-002     4.4871682235551589     
   7.8600000000000003E-002     3.7530488512150555     
   7.8900000000000012E-002     2.6455884306795667     
   7.9199999999999993E-002     1.2580059679951745     
   7.9500000000000001E-002   -0.29637173121805560     
   7.9800000000000010E-002    -1.8933045734856080     
   8.0100000000000018E-002    -3.4086222234656560     
   8.0399999999999999E-002    -4.7283140399259622     
   8.0700000000000008E-002    -5.7583758708533708     
   8.1000000000000003E-002    -6.4325262101091312     
   8.1299999999999997E-002    -6.7175279368247089     
   8.1600000000000006E-002    -6.6147059036195088     
   8.1900000000000014E-002    -6.1593416352754673     
   8.2199999999999995E-002    -5.4163238359371348     
   8.2500000000000004E-002    -4.4721874103946782     
   8.2799999999999999E-002    -3.4270083339227266     
   8.3100000000000007E-002    -2.3834332092587847     
   8.3400000000000002E-002    -1.4363835689040805     
   8.3700000000000011E-002   -0.66511131699568793     
   8.4000000000000005E-002   -0.12398863904455126     
   8.4300000000000000E-002    0.15984474415035876     
   8.4599999999999995E-002    0.18908275397622276     
   8.4900000000000003E-002    -5.6934431298003574E-003
   8.5199999999999998E-002   -0.37257081030114314     
   8.5500000000000007E-002   -0.84293319051279703     
   8.5800000000000001E-002    -1.3418020295261890     
   8.6100000000000010E-002    -1.7962026263217865     
   8.6399999999999991E-002    -2.1424988915455572     
   8.6699999999999999E-002    -2.3343358106721936     
   8.7000000000000008E-002    -2.3448956546966677     
   8.7300000000000003E-002    -2.1695676516305102     
   8.7599999999999997E-002    -1.8250015331066649     
   8.7900000000000006E-002    -1.3433518469808625     
   8.8200000000000014E-002   -0.76921943563302619     
   8.8499999999999995E-002   -0.15273676680254233     
   8.8800000000000004E-002    0.45799972162462943     
   8.9100000000000013E-002     1.0205432867111597     
   8.9399999999999993E-002     1.5040776776499811     
   8.9700000000000002E-002     1.8906416685606260     
   9.0000000000000011E-002     2.1752053718634841     
   9.0299999999999991E-002     2.3659900279363484     
   9.0600000000000000E-002     2.4790231514947010     
   9.0900000000000009E-002     2.5371341000562069     
   9.1200000000000017E-002     2.5658809076161049     
   9.1499999999999998E-002     2.5870056591185602     
   9.1800000000000007E-002     2.6207755506770098     
   9.2100000000000001E-002     2.6802148784554021     
   9.2399999999999996E-002     2.7719490844418715     
   9.2700000000000005E-002     2.8983978294100865     
   9.3000000000000013E-002     3.0545251973182417     
   9.3300000000000008E-002     3.2339088508234539     
   9.3600000000000003E-002     3.4263373642240254     
   9.3899999999999997E-002     3.6199576707563210     
   9.4200000000000006E-002     3.8044771785630473     
   9.4500000000000001E-002     3.9667632821191603     
   9.4800000000000009E-002     4.0963481090650333     
   9.5100000000000004E-002     4.1832275700583352     
   9.5399999999999999E-002     4.2176714956188732     
   9.5699999999999993E-002     4.1946204819238062     
   9.6000000000000002E-002     4.1101722148454769     
   9.6300000000000011E-002     3.9656122867817771     
   9.6600000000000005E-002     3.7669457921145693     
   9.6900000000000000E-002     3.5236104546842881     
   9.7200000000000009E-002     3.2499685675963548     
   9.7499999999999989E-002     2.9602393001303113     
   9.7799999999999998E-002     2.6678710229813873     
   9.8100000000000007E-002     2.3823897073924130     
   9.8400000000000015E-002     2.1041913176687252     
   9.8699999999999996E-002     1.8250772178333117     
   9.9000000000000005E-002     1.5254924115291857     
   9.9300000000000013E-002     1.1760810999130911     
   9.9599999999999994E-002    0.74210115960929457     
   9.9900000000000003E-002    0.18661324718251926     
  0.10020000000000001        -0.52189808444967323     
  0.10049999999999999         -1.4032556636939084     
  0.10080000000000000         -2.4609097594359355     
  0.10110000000000001         -3.6765032574336800     
  0.10140000000000000         -5.0110953689773368     
  0.10170000000000000         -6.4072999495968190     
  0.10200000000000001         -7.7942034473464048     
  0.10230000000000002         -9.0987820255621443     
  0.10260000000000000         -10.253838906958379     
  0.10290000000000001         -11.209724540963180     
  0.10320000000000000         -11.942636886030243     
  0.10350000000000001         -12.457735761262711     
  0.10380000000000000         -12.790776159741597     
  0.10410000000000001         -13.002275373980353     
  0.10440000000000001         -13.166267333125404     
  0.10470000000000000         -13.356190193585007     
  0.10500000000000000         -13.628042655023989     
  0.10530000000000000         -14.003130726994925     
  0.10560000000000000         -14.455322796539178     
  0.10590000000000001         -14.901044553330962     
  0.10620000000000000         -15.198622080087951     
  0.10650000000000001         -15.156806191008400     
  0.10679999999999999         -14.546127309819781     
  0.10710000000000000         -13.127644968971254     
  0.10740000000000001         -10.678746598447560     
  0.10770000000000000         -7.0238168736215698     
  0.10800000000000000         -2.0715757358585165     
  0.10830000000000001          4.1664851430577556     
  0.10859999999999999          11.552103221527943     
  0.10890000000000000          19.813373634020252     
  0.10920000000000001          28.555023773995572     
  0.10950000000000001          37.270135267384148     
  0.10979999999999999          45.380412361689196     
  0.11009999999999999          52.275278331721665     
  0.11040000000000001          57.359675328429830     
  0.11070000000000001          60.114193822265975     
  0.11100000000000000          60.135628241089080     
  0.11130000000000000          57.185741596524736     
  0.11160000000000002          51.220813916908810     
  0.11190000000000001          42.400761258217244     
  0.11220000000000001          31.093767182696411     
  0.11250000000000000          17.849151064595048     
  0.11280000000000000          3.3633646776585238     
  0.11309999999999999         -11.566992299838745     
  0.11340000000000001         -26.111291163389694     
  0.11369999999999998         -39.453355726120549     
  0.11400000000000000         -50.862200165368677     
  0.11430000000000000         -59.736216128633941     
  0.11460000000000002         -65.641530573113073     
  0.11489999999999999         -68.343670404719433     
  0.11520000000000001         -67.806470675392205     
  0.11550000000000001         -64.193432205071545     
  0.11580000000000000         -57.841347882062792     
  0.11609999999999999         -49.227773267264638     
  0.11640000000000002         -38.934544553275259     
  0.11670000000000001         -27.597521118342684     
  0.11700000000000001         -15.865647149393112     
  0.11730000000000000         -4.3586372379126033     
  0.11760000000000000          6.3681436005024352     
  0.11789999999999999          15.852784629986928     
  0.11820000000000001          23.741863739860833     
  0.11850000000000001          29.803708938415411     
  0.11880000000000000          33.929672887051765     
  0.11910000000000000          36.122386221372381     
  0.11940000000000002          36.492007196944201     
  0.11970000000000001          35.229998982858774     
  0.12000000000000001          32.595254174561674     
  0.12030000000000000          28.890107499681385     
  0.12060000000000000          24.435283553515788     
  0.12089999999999999          19.555209751585821     
  0.12119999999999999          14.551596811775767     
  0.12150000000000001          9.6940035849802939     
  0.12180000000000001          5.2052234974513851     
  0.12210000000000000          1.2528241146522134     
  0.12239999999999999         -2.0495603859726010     
  0.12270000000000002         -4.6463361254999569     
  0.12300000000000001         -6.5308969978630671     
  0.12330000000000001         -7.7397929219342245     
  0.12360000000000000         -8.3410300350667512     
  0.12390000000000000         -8.4268434430593828     
  0.12419999999999999         -8.0992573230053395     
  0.12450000000000001         -7.4633048866715939     
  0.12480000000000001         -6.6205872057478992     
  0.12509999999999999         -5.6583576564191826     
  0.12540000000000001         -4.6560409929776885     
  0.12570000000000003         -3.6722800160044224     
  0.12600000000000000         -2.7540963973091457     
  0.12630000000000002         -1.9366663612413064     
  0.12659999999999999         -1.2368304864896931     
  0.12690000000000001        -0.67090462743679913     
  0.12719999999999998        -0.23821549344834558     
  0.12750000000000000          6.3840211066528596E-002
  0.12780000000000002         0.24271120211890107     
  0.12809999999999999         0.31749718639124325     
  0.12840000000000001         0.30085135802925755     
  0.12869999999999998         0.21701901505083931     
  0.12900000000000000          8.7493580857310960E-002
  0.12930000000000003         -6.8151388626680909E-002
  0.12959999999999999        -0.22557768043445225     
  0.12990000000000002        -0.37135045956244106     
  0.13019999999999998        -0.49012934111562068     
  0.13050000000000000        -0.57369528036119988     
  0.13080000000000003        -0.62063877620932040     
  0.13109999999999999        -0.62934916402977414     
  0.13140000000000002        -0.60637926366950090     
  0.13169999999999998        -0.55826315709234464     
  0.13200000000000001        -0.49194847623899207     
  0.13229999999999997        -0.41670493987805912     
  0.13260000000000000        -0.33803857716366270     
  0.13290000000000002        -0.26069585343177804     
  0.13319999999999999        -0.18920221152964212     
  0.13350000000000001        -0.12312963782697084     
  0.13380000000000003         -6.3757566150012046E-002
  0.13410000000000000         -1.1368397634409222E-002
  0.13440000000000002          3.6492312499364687E-002
  0.13469999999999999          7.7281114482754765E-002
  0.13500000000000001         0.11351762255458020     
  0.13529999999999998         0.14374775652525384     
  0.13560000000000000         0.16624045604151227     
  0.13590000000000002         0.18352996526548981     
  0.13619999999999999         0.19170732054116302     
  0.13650000000000001         0.19412480571519541     
  0.13680000000000003         0.19062732114048275     
  0.13710000000000000         0.18173863790349820     
  0.13740000000000002         0.17184682018703556     
  0.13769999999999999         0.15967724312145481     
  0.13800000000000001         0.14983648385720549     
  0.13829999999999998         0.14249110525529174     
  0.13860000000000000         0.13846512579037640     
  0.13890000000000002         0.13945465549947222     
  0.13919999999999999         0.14367298046103372     
  0.13950000000000001         0.15173005086332703     
  0.13979999999999998         0.16099526106772455     
  0.14010000000000000         0.17055037272657741     
  0.14040000000000002         0.17772390767350493     
  0.14069999999999999         0.18064252538267089     
  0.14100000000000001         0.17757812041460636     
  0.14130000000000004         0.16672187460058296     
  0.14160000000000000         0.14943360913134374     
  0.14189999999999997         0.12462949164480985     
  0.14219999999999999          9.6209349960759027E-002
  0.14250000000000002          6.6573708325326830E-002
  0.14279999999999998          3.9097906140598937E-002
  0.14310000000000000          1.9833628371530798E-002
  0.14339999999999997          9.7845743343007996E-003
  0.14369999999999999          1.3816139809025629E-002
  0.14400000000000002          3.1132007622066804E-002
  0.14429999999999998          5.9671949996969870E-002
  0.14460000000000001          9.7007925575876341E-002
  0.14490000000000003         0.13414211844772117     
  0.14520000000000000         0.16638772114935829     
  0.14550000000000002         0.18471749402923532     
  0.14579999999999999         0.18300747417013241     
  0.14610000000000001         0.15858104777116289     
  0.14640000000000003         0.10964262881490772     
  0.14670000000000000          4.1411493341328764E-002
  0.14699999999999996         -3.9177777694052396E-002
  0.14729999999999999        -0.12011670594962109     
  0.14760000000000001        -0.18960810054565069     
  0.14789999999999998        -0.23466125895396761     
  0.14820000000000000        -0.24610077152855059     