  -1.4999999999999999E-002     0.0000000000000000     
  -1.4700000000000000E-002     0.0000000000000000     
  -1.4400000000000000E-002     0.0000000000000000     
  -1.4100000000000000E-002     0.0000000000000000     
  -1.3800000000000000E-002     0.0000000000000000     
  -1.3500000000000000E-002     0.0000000000000000     
  -1.3200000000000000E-002     0.0000000000000000     
  -1.2899999999999998E-002     0.0000000000000000     
  -1.2600000000000000E-002     0.0000000000000000     
  -1.2299999999999998E-002     0.0000000000000000     
  -1.2000000000000000E-002     4.5777347389595939E-036
  -1.1699999999999999E-002    -2.5692888506602575E-035
  -1.1399999999999999E-002     5.7657561689226452E-034
  -1.1099999999999999E-002    -4.3204181083575773E-032
  -1.0799999999999999E-002     1.4635937221975242E-030
  -1.0499999999999999E-002    -2.1746531138121871E-029
  -1.0199999999999999E-002     1.6592996288026490E-028
  -9.8999999999999991E-003    -3.6067051365172608E-028
  -9.5999999999999992E-003    -6.2071131289466548E-027
  -9.2999999999999992E-003     8.3154629206203719E-026
  -8.9999999999999993E-003    -5.8472682643509824E-025
  -8.6999999999999994E-003     2.9231140263199177E-024
  -8.3999999999999995E-003    -1.1416197016271272E-023
  -8.0999999999999996E-003     3.6270385539771000E-023
  -7.7999999999999988E-003    -9.5509112667324902E-023
  -7.4999999999999997E-003     2.1551513323214860E-022
  -7.1999999999999998E-003    -4.6430707001916102E-022
  -6.8999999999999981E-003     1.1185405440148225E-021
  -6.5999999999999982E-003    -2.7101102586008109E-021
  -6.3000000000000000E-003     2.7125972530450469E-021
  -6.0000000000000001E-003     2.4047140455352394E-020
  -5.6999999999999985E-003    -1.8402552043757165E-019
  -5.3999999999999986E-003     7.4765996625676035E-019
  -5.1000000000000004E-003    -2.0726246882531875E-018
  -4.7999999999999987E-003     3.8880102680727968E-018
  -4.5000000000000005E-003    -3.2894723029967766E-018
  -4.1999999999999989E-003    -8.6370741947826678E-018
  -3.8999999999999990E-003     4.9381895093472602E-017
  -3.5999999999999990E-003    -1.4033389083714052E-016
  -3.2999999999999991E-003     2.8500469624334146E-016
  -2.9999999999999992E-003    -4.2502702453968021E-016
  -2.6999999999999993E-003     3.9122479835095806E-016
  -2.3999999999999994E-003     9.7153448205316770E-017
  -2.0999999999999977E-003    -1.3398979140972914E-015
  -1.7999999999999995E-003     3.5539558526176494E-015
  -1.4999999999999979E-003    -6.9561344125156424E-015
  -1.1999999999999997E-003     1.1819010702041836E-014
  -8.9999999999999976E-004    -1.7202156650628249E-014
  -5.9999999999999810E-004     1.6867488850970391E-014
  -2.9999999999999992E-004     5.1761615894635633E-015
   0.0000000000000000         -6.9165600167803848E-014
   3.0000000000000165E-004     1.7310637515435823E-013
   5.9999999999999984E-004    -2.5675119040384498E-013
   9.0000000000000149E-004     2.0388119632234331E-013
   1.2000000000000031E-003     6.9364673239199343E-014
   1.5000000000000013E-003    -4.6923158717945834E-013
   1.8000000000000030E-003     6.5701946921209453E-013
   2.1000000000000012E-003    -2.5014024055206030E-013
   2.3999999999999994E-003    -4.8278357223444091E-013
   2.7000000000000010E-003    -4.1681713419325361E-013
   2.9999999999999992E-003     4.5120764763373344E-012
   3.3000000000000008E-003     5.3939053744345156E-012
   3.6000000000000025E-003    -1.1613674605337465E-010
   3.9000000000000007E-003     5.1179088744746082E-010
   4.2000000000000023E-003    -1.1606520189388903E-009
   4.5000000000000005E-003     5.4125331994114845E-010
   4.7999999999999987E-003     6.1878968615758367E-009
   5.1000000000000004E-003    -2.3614814992356514E-008
   5.4000000000000020E-003     3.3273611421691385E-008
   5.7000000000000037E-003     3.9641708582394131E-008
   5.9999999999999984E-003    -2.5150890792247083E-007
   6.3000000000000000E-003     2.9945397272967966E-007
   6.6000000000000017E-003     5.5952222055566381E-007
   6.9000000000000034E-003    -1.7787339174901717E-006
   7.2000000000000015E-003    -5.3693003110311111E-007
   7.5000000000000032E-003     5.6981966736202594E-006
   7.8000000000000014E-003     1.3178491826693062E-006
   8.0999999999999996E-003    -1.5834229998290539E-005
   8.4000000000000012E-003    -1.2687026355706621E-005
   8.7000000000000029E-003     4.9298876547254622E-005
   9.0000000000000011E-003     1.6977831546682864E-004
   9.2999999999999992E-003     3.1586995464749634E-004
   9.6000000000000009E-003     4.7279943828471005E-004
   9.8999999999999991E-003     6.6469394369050860E-004
   1.0200000000000001E-002     9.5990573754534125E-004
   1.0500000000000002E-002     1.4647052157670259E-003
   1.0800000000000004E-002     2.2793118841946125E-003
   1.1099999999999999E-002     3.5018827766180038E-003
   1.1400000000000000E-002     5.2713374607264996E-003
   1.1700000000000002E-002     7.7856401912868023E-003
   1.2000000000000004E-002     1.1326891370117664E-002
   1.2300000000000002E-002     1.6270164400339127E-002
   1.2600000000000000E-002     2.3062678053975105E-002
   1.2900000000000002E-002     3.2193649560213089E-002
   1.3200000000000000E-002     4.4201601296663284E-002
   1.3500000000000002E-002     5.9704076498746872E-002
   1.3800000000000003E-002     7.9310528934001923E-002
   1.4100000000000001E-002    0.10349895805120468     
   1.4400000000000000E-002    0.13256895542144775     
   1.4700000000000001E-002    0.16652214527130127     
   1.4999999999999999E-002    0.20486885309219360     
   1.5300000000000001E-002    0.24642647802829742     
   1.5600000000000003E-002    0.28912630677223206     
   1.5899999999999997E-002    0.32984781265258789     
   1.6199999999999999E-002    0.36425936222076416     
   1.6500000000000001E-002    0.38672858476638794     
   1.6800000000000002E-002    0.39039754867553711     
   1.7100000000000004E-002    0.36739730834960938     
   1.7400000000000006E-002    0.30923774838447571     
   1.7700000000000000E-002    0.20736947655677795     
   1.8000000000000002E-002     5.3977511823177338E-002
   1.8300000000000004E-002   -0.15688723325729370     
   1.8600000000000005E-002   -0.42822897434234619     
   1.8900000000000000E-002   -0.75889843702316284     
   1.9200000000000002E-002    -1.1425909996032715     
   1.9500000000000003E-002    -1.5669587850570679     
   1.9799999999999998E-002    -2.0131630897521973     
   2.0100000000000000E-002    -2.4559166431427002     
   2.0400000000000001E-002    -2.8642489910125732     
   2.0700000000000003E-002    -3.2030639648437500     
   2.0999999999999998E-002    -3.4353110790252686     
   2.1299999999999999E-002    -3.5248539447784424     
   2.1600000000000001E-002    -3.4397473335266113     
   2.1900000000000003E-002    -3.1555430889129639     
   2.2200000000000004E-002    -2.6584005355834961     
   2.2500000000000006E-002    -1.9478094577789307     
   2.2800000000000001E-002    -1.0383673906326294     
   2.3100000000000002E-002     3.9675220847129822E-002
   2.3400000000000004E-002     1.2413194179534912     
   2.3699999999999999E-002     2.5090875625610352     
   2.4000000000000000E-002     3.7765495777130127     
   2.4300000000000002E-002     4.9725828170776367     
   2.4599999999999997E-002     6.0270605087280273     
   2.4900000000000005E-002     6.8757801055908203     
   2.5200000000000000E-002     7.4654216766357422     
   2.5499999999999995E-002     7.7579832077026367     
   2.5800000000000003E-002     7.7331323623657227     
   2.6099999999999998E-002     7.3900361061096191     
   2.6400000000000007E-002     6.7466249465942383     
   2.6700000000000002E-002     5.8374400138854980     
   2.6999999999999996E-002     4.7110729217529297     
   2.7300000000000005E-002     3.4252328872680664     
   2.7600000000000000E-002     2.0422284603118896     
   2.7900000000000008E-002    0.62487888336181641     
   2.8200000000000003E-002   -0.76878947019577026     
   2.8499999999999998E-002    -2.0873084068298340     
   2.8800000000000006E-002    -3.2893137931823730     
   2.9100000000000001E-002    -4.3439035415649414     
   2.9400000000000003E-002    -5.2298116683959961     
   2.9700000000000004E-002    -5.9353818893432617     
   3.0000000000000006E-002    -6.4549231529235840     
   3.0300000000000001E-002    -6.7878313064575195     
   3.0600000000000002E-002    -6.9361495971679688     
   3.0900000000000004E-002    -6.9017643928527832     
   3.1199999999999999E-002    -6.6875019073486328     
   3.1500000000000007E-002    -6.2950291633605957     
   3.1800000000000002E-002    -5.7268633842468262     
   3.2099999999999997E-002    -4.9879493713378906     
   3.2400000000000005E-002    -4.0866761207580566     
   3.2700000000000000E-002    -3.0389788150787354     
   3.3000000000000002E-002    -1.8686349391937256     
   3.3300000000000003E-002   -0.60903787612915039     
   3.3599999999999998E-002    0.69592219591140747     
   3.3900000000000000E-002     1.9941455125808716     
   3.4200000000000001E-002     3.2263939380645752     
   3.4500000000000003E-002     4.3306474685668945     
   3.4799999999999998E-002     5.2461905479431152     
   3.5099999999999999E-002     5.9182868003845215     
   3.5400000000000001E-002     6.3037667274475098     
   3.5699999999999996E-002     6.3745870590209961     
   3.6000000000000004E-002     6.1217470169067383     
   3.6299999999999999E-002     5.5565276145935059     
   3.6600000000000008E-002     4.7105922698974609     
   3.6900000000000002E-002     3.6345229148864746     
   3.7199999999999997E-002     2.3934583663940430     
   3.7500000000000006E-002     1.0627439022064209     
   3.7800000000000000E-002   -0.27845019102096558     
   3.8100000000000009E-002    -1.5533952713012695     
   3.8400000000000004E-002    -2.6937432289123535     
   3.8699999999999998E-002    -3.6453423500061035     
   3.9000000000000007E-002    -4.3712506294250488     
   3.9300000000000002E-002    -4.8545293807983398     
   3.9600000000000003E-002    -5.0985593795776367     
   3.9900000000000005E-002    -5.1247701644897461     
   4.0200000000000000E-002    -4.9703712463378906     
   4.0500000000000001E-002    -4.6824150085449219     
   4.0800000000000003E-002    -4.3129110336303711     
   4.1100000000000005E-002    -3.9133167266845703     
   4.1399999999999999E-002    -3.5280597209930420     
   4.1700000000000008E-002    -3.1912727355957031     
   4.2000000000000003E-002    -2.9226822853088379     
   4.2299999999999997E-002    -2.7264077663421631     
   4.2600000000000006E-002    -2.5914924144744873     
   4.2900000000000001E-002    -2.4929311275482178     
   4.3200000000000002E-002    -2.3962433338165283     
   4.3500000000000004E-002    -2.2610127925872803     
   4.3799999999999999E-002    -2.0457012653350830     
   4.4100000000000000E-002    -1.7137829065322876     
   4.4400000000000002E-002    -1.2365553379058838     
   4.4700000000000004E-002   -0.59758502244949341     
   4.4999999999999998E-002    0.20547479391098022     
   4.5300000000000000E-002     1.1610957384109497     
   4.5600000000000002E-002     2.2439417839050293     
   4.5899999999999996E-002     3.4182426929473877     
   4.6200000000000005E-002     4.6404819488525391     
   4.6500000000000000E-002     5.8630590438842773     
   4.6799999999999994E-002     7.0391407012939453     
   4.7100000000000003E-002     8.1247358322143555     
   4.7399999999999998E-002     9.0817127227783203     
   4.7700000000000006E-002     9.8790721893310547     
   4.8000000000000001E-002     10.492811203002930     
   4.8300000000000010E-002     10.905390739440918     
   4.8600000000000004E-002     11.103926658630371     
   4.8899999999999999E-002     11.078229904174805     
   4.9200000000000008E-002     10.819452285766602     
   4.9500000000000002E-002     10.318521499633789     
   4.9800000000000011E-002     9.5664129257202148     
   5.0100000000000006E-002     8.5545349121093750     
   5.0400000000000000E-002     7.2769627571105957     
   5.0700000000000009E-002     5.7329144477844238     
   5.1000000000000004E-002     3.9300606250762939     
   5.1299999999999998E-002     1.8872576951980591     
   5.1600000000000007E-002   -0.36248812079429626     
   5.1900000000000002E-002    -2.7703759670257568     
   5.2200000000000010E-002    -5.2717103958129883     
   5.2500000000000005E-002    -7.7863903045654297     
   5.2800000000000000E-002    -10.222629547119141     
   5.3099999999999994E-002    -12.480370521545410     
   5.3400000000000003E-002    -14.456698417663574     
   5.3699999999999998E-002    -16.052919387817383     
   5.4000000000000006E-002    -17.179349899291992     
   5.4300000000000001E-002    -17.763677597045898     
   5.4599999999999996E-002    -17.755319595336914     
   5.4900000000000004E-002    -17.130399703979492     
   5.5199999999999999E-002    -15.896286964416504     
   5.5499999999999994E-002    -14.091055870056152     
   5.5800000000000002E-002    -11.785010337829590     
   5.6099999999999997E-002    -9.0774106979370117     
   5.6400000000000006E-002    -6.0910601615905762     
   5.6700000000000000E-002    -2.9682667255401611     
   5.6999999999999995E-002    0.13969627022743225     
   5.7300000000000004E-002     3.0798888206481934     
   5.7599999999999998E-002     5.7072892189025879     
   5.7900000000000007E-002     7.8953537940979004     
   5.8200000000000002E-002     9.5431289672851562     
   5.8499999999999996E-002     10.583320617675781     
   5.8800000000000005E-002     10.987277984619141     
   5.9100000000000000E-002     10.766691207885742     
   5.9400000000000008E-002     9.9742050170898438     
   5.9700000000000003E-002     8.6986942291259766     
   6.0000000000000012E-002     7.0598702430725098     
   6.0300000000000006E-002     5.1990694999694824     
   6.0600000000000001E-002     3.2684774398803711     
   6.0900000000000010E-002     1.4203598499298096     
   6.1200000000000004E-002   -0.20556670427322388     
   6.1500000000000013E-002    -1.4919952154159546     
   6.1800000000000008E-002    -2.3535223007202148     
   6.2100000000000002E-002    -2.7427103519439697     
   6.2399999999999997E-002    -2.6527326107025146     
   6.2700000000000006E-002    -2.1174821853637695     
   6.3000000000000000E-002    -1.2071754932403564     
   6.3300000000000009E-002    -2.1541647613048553E-002
   6.3600000000000004E-002     1.3204001188278198     
   6.3899999999999998E-002     2.6908385753631592     
   6.4199999999999993E-002     3.9658071994781494     
   6.4500000000000002E-002     5.0356693267822266     
   6.4800000000000010E-002     5.8146419525146484     
   6.5100000000000005E-002     6.2484145164489746     
   6.5400000000000000E-002     6.3161106109619141     
   6.5700000000000008E-002     6.0322318077087402     
   6.5999999999999989E-002     5.4411997795104980     
   6.6299999999999998E-002     4.6121888160705566     
   6.6600000000000006E-002     3.6309497356414795     
   6.6900000000000001E-002     2.5876934528350830     
   6.7199999999999996E-002     1.5710468292236328     
   6.7500000000000004E-002    0.65555143356323242     
   6.7800000000000013E-002   -0.10283891111612320     
   6.8099999999999994E-002   -0.67085635662078857     
   6.8400000000000002E-002    -1.0417424440383911     
   6.8700000000000011E-002    -1.2298142910003662     
   6.8999999999999992E-002    -1.2703280448913574     
   6.9300000000000000E-002    -1.2115114927291870     
   6.9600000000000009E-002    -1.1070309877395630     
   6.9900000000000004E-002    -1.0125298500061035     
   7.0199999999999999E-002   -0.97432184219360352     
   7.0500000000000007E-002    -1.0287600755691528     
   7.0800000000000016E-002    -1.1970624923706055     
   7.1099999999999997E-002    -1.4828811883926392     
   7.1400000000000005E-002    -1.8772552013397217     
   7.1700000000000000E-002    -2.3566460609436035     
   7.1999999999999995E-002    -2.8906142711639404     
   7.2300000000000003E-002    -3.4459795951843262     
   7.2600000000000012E-002    -3.9888706207275391     
   7.2900000000000006E-002    -4.4941978454589844     
   7.3200000000000001E-002    -4.9433073997497559     
   7.3499999999999996E-002    -5.3282909393310547     
   7.3800000000000004E-002    -5.6521697044372559     
   7.4099999999999999E-002    -5.9225234985351562     
   7.4400000000000008E-002    -6.1541748046875000     
   7.4700000000000003E-002    -6.3592252731323242     
   7.5000000000000011E-002    -6.5451231002807617     
   7.5299999999999992E-002    -6.7127208709716797     
   7.5600000000000001E-002    -6.8497581481933594     
   7.5900000000000009E-002    -6.9363603591918945     
   7.6200000000000004E-002    -6.9433388710021973     
   7.6499999999999999E-002    -6.8374180793762207     
   7.6800000000000007E-002    -6.5885338783264160     
   7.7099999999999988E-002    -6.1716008186340332     
   7.7399999999999997E-002    -5.5757751464843750     
   7.7700000000000005E-002    -4.8053083419799805     
   7.8000000000000014E-002    -3.8786463737487793     
   7.8299999999999995E-002    -2.8290431499481201     
   7.8600000000000003E-002    -1.6932333707809448     
   7.8900000000000012E-002   -0.50723314285278320     
   7.9199999999999993E-002    0.70466691255569458     
   7.9500000000000001E-002     1.9400775432586670     
   7.9800000000000010E-002     3.2209813594818115     
   8.0100000000000018E-002     4.5992755889892578     
   8.0399999999999999E-002     6.1506695747375488     
   8.0700000000000008E-002     7.9640879631042480     
   8.1000000000000003E-002     10.128011703491211     
   8.1299999999999997E-002     12.709838867187500     
   8.1600000000000006E-002     15.735485076904297     
   8.1900000000000014E-002     19.169961929321289     
   8.2199999999999995E-002     22.902153015136719     
   8.2500000000000004E-002     26.737775802612305     
   8.2799999999999999E-002     30.402008056640625     
   8.3100000000000007E-002     33.552104949951172     
   8.3400000000000002E-002     35.802719116210938     
   8.3700000000000011E-002     36.758430480957031     
   8.4000000000000005E-002     36.053024291992188     
   8.4300000000000000E-002     33.393875122070312     
   8.4599999999999995E-002     28.599071502685547     
   8.4900000000000003E-002     21.632457733154297     
   8.5199999999999998E-002     12.627628326416016     
   8.5500000000000007E-002     1.8888040781021118     
   8.5800000000000001E-002    -10.107438087463379     
   8.6100000000000010E-002    -22.745027542114258     
   8.6399999999999991E-002    -35.308246612548828     
   8.6699999999999999E-002    -47.023262023925781     
   8.7000000000000008E-002    -57.134708404541016     
   8.7300000000000003E-002    -64.949157714843750     
   8.7599999999999997E-002    -69.902038574218750     
   8.7900000000000006E-002    -71.606422424316406     
   8.8200000000000014E-002    -69.875404357910156     
   8.8499999999999995E-002    -64.754783630371094     
   8.8800000000000004E-002    -56.508792877197266     
   8.9100000000000013E-002    -45.601856231689453     
   8.9399999999999993E-002    -32.670928955078125     
   8.9700000000000002E-002    -18.461027145385742     
   9.0000000000000011E-002    -3.7829432487487793     
   9.0299999999999991E-002     10.550666809082031     
   9.0600000000000000E-002     23.790611267089844     
   9.0900000000000009E-002     35.282012939453125     
   9.1200000000000017E-002     44.520259857177734     
   9.1499999999999998E-002     51.168636322021484     
   9.1800000000000007E-002     55.058139801025391     
   9.2100000000000001E-002     56.206756591796875     
   9.2399999999999996E-002     54.779407501220703     
   9.2700000000000005E-002     51.075550079345703     
   9.3000000000000013E-002     45.500064849853516     
   9.3300000000000008E-002     38.509723663330078     
   9.3600000000000003E-002     30.602447509765625     
   9.3899999999999997E-002     22.264177322387695     
   9.4200000000000006E-002     13.946817398071289     
   9.4500000000000001E-002     6.0562210083007812     
   9.4800000000000009E-002    -1.0861499309539795     
   9.5100000000000004E-002    -7.2300596237182617     
   9.5399999999999999E-002    -12.211571693420410     
   9.5699999999999993E-002    -15.955221176147461     
   9.6000000000000002E-002    -18.451547622680664     
   9.6300000000000011E-002    -19.766862869262695     
   9.6600000000000005E-002    -20.016832351684570     
   9.6900000000000000E-002    -19.355030059814453     
   9.7200000000000009E-002    -17.969491958618164     
   9.7499999999999989E-002    -16.049665451049805     
   9.7799999999999998E-002    -13.790794372558594     
   9.8100000000000007E-002    -11.374965667724609     
   9.8400000000000015E-002    -8.9554166793823242     
   9.8699999999999996E-002    -6.6662845611572266     
   9.9000000000000005E-002    -4.6009187698364258     
   9.9300000000000013E-002    -2.8220112323760986     
   9.9599999999999994E-002    -1.3642890453338623     
   9.9900000000000003E-002   -0.22685654461383820     
  0.10020000000000001         0.60442423820495605     
  0.10049999999999999          1.1641399860382080     
  0.10080000000000000          1.4970121383666992     
  0.10110000000000001          1.6445268392562866     
  0.10140000000000000          1.6552418470382690     
  0.10170000000000000          1.5666359663009644     
  0.10200000000000001          1.4108649492263794     
  0.10230000000000002          1.2179764509201050     
  0.10260000000000000          1.0041959285736084     
  0.10290000000000001         0.78788828849792480     
  0.10320000000000000         0.58062416315078735     
  0.10350000000000001         0.38973292708396912     
  0.10380000000000000         0.22641876339912415     
  0.10410000000000001          9.4292230904102325E-002
  0.10440000000000001         -1.2148825917392969E-003
  0.10470000000000000         -5.6015226989984512E-002
  0.10500000000000000         -7.2911038994789124E-002
  0.10530000000000000         -5.2489675581455231E-002
  0.10560000000000000         -1.1095516383647919E-003
  0.10590000000000001          7.1795858442783356E-002
  0.10620000000000000         0.15984472632408142     
  0.10650000000000001         0.25134119391441345     
  0.10679999999999999         0.33856126666069031     
  0.10710000000000000         0.41604375839233398     
  0.10740000000000001         0.47686043381690979     
  0.10770000000000000         0.52254712581634521     
  0.10800000000000000         0.55298244953155518     
  0.10830000000000001         0.56911003589630127     
  0.10859999999999999         0.57752728462219238     
  0.10890000000000000         0.57777845859527588     
  0.10920000000000001         0.57326525449752808     
  0.10950000000000001         0.56613010168075562     
  0.10979999999999999         0.55171859264373779     
  0.11009999999999999         0.53242862224578857     
  0.11040000000000001         0.50282651185989380     
  0.11070000000000001         0.46148267388343811     
  0.11100000000000000         0.41072985529899597     
  0.11130000000000000         0.34667596220970154     
  0.11160000000000002         0.27700793743133545     
  0.11190000000000001         0.20448999106884003     
  0.11220000000000001         0.13305926322937012     
  0.11250000000000000          7.3327377438545227E-002
  0.11280000000000000          2.5959517806768417E-002
  0.11309999999999999         -2.4970164522528648E-003
  0.11340000000000001         -1.0099563747644424E-002
  0.11369999999999998         -1.3923577498644590E-003
  0.11400000000000000          2.5150761008262634E-002
  0.11430000000000000          5.9673395007848740E-002
  0.11460000000000002          9.6611700952053070E-002
  0.11489999999999999         0.13166423141956329     
  0.11520000000000001         0.15338239073753357     
  0.11550000000000001         0.16264767944812775     
  0.11580000000000000         0.15489269793033600     
  0.11609999999999999         0.12990915775299072     
  0.11640000000000002          9.5070451498031616E-002
  0.11670000000000001          5.0319634377956390E-002
  0.11700000000000001          6.0188644565641880E-003
  0.11730000000000000         -3.2359264791011810E-002
  0.11760000000000000         -6.2095351517200470E-002
  0.11789999999999999         -7.5070753693580627E-002
  0.11820000000000001         -7.5709305703639984E-002
  0.11850000000000001         -6.3686877489089966E-002
  0.11880000000000000         -4.2798481881618500E-002
  0.11910000000000000         -2.3234589025378227E-002
  0.11940000000000002         -7.2412462905049324E-003
  0.11970000000000001         -4.7927843406796455E-003
  0.12000000000000001         -1.9021349027752876E-002
  0.12030000000000000         -4.9155972898006439E-002
  0.12060000000000000         -9.6519000828266144E-002
  0.12089999999999999        -0.15141402184963226     
  0.12119999999999999        -0.20733539760112762     
  0.12150000000000001        -0.25481212139129639     
  0.12180000000000001        -0.28152799606323242     
  0.12210000000000000        -0.28246816992759705     
  0.12239999999999999        -0.25153535604476929     
  0.12270000000000002        -0.18926310539245605     
  0.12300000000000001        -0.10301787406206131     
  0.12330000000000001         -8.4555428475141525E-004
  0.12360000000000000         0.10204168409109116     
  0.12390000000000000         0.19016206264495850     
  0.12419999999999999         0.25038734078407288     
  0.12450000000000001         0.26918685436248779     
  0.12480000000000001         0.24161520600318909     
  0.12509999999999999         0.16795122623443604     
  0.12540000000000001          5.4073382169008255E-002
  0.12570000000000003         -8.4341891109943390E-002
  0.12600000000000000        -0.23005580902099609     
  0.12630000000000002        -0.36225831508636475     
  0.12659999999999999        -0.45931759476661682     
  0.12690000000000001        -0.50692451000213623     
  0.12719999999999998        -0.49337300658226013     
  0.12750000000000000        -0.41775357723236084     
  0.12780000000000002        -0.28921413421630859     
  0.12809999999999999        -0.12126752734184265     
  0.12840000000000001          6.0228928923606873E-002
  0.12869999999999998         0.22953122854232788     
  0.12900000000000000         0.36040568351745605     
  0.12930000000000003         0.42822569608688354     
  0.12959999999999999         0.42081591486930847     
  0.12990000000000002         0.33236742019653320     
  0.13019999999999998         0.17141720652580261     
  0.13050000000000000         -4.0225155651569366E-002
  0.13080000000000003        -0.27404043078422546     
  0.13109999999999999        -0.49183484911918640     
  0.13140000000000002        -0.65513467788696289     
  0.13169999999999998        -0.73060989379882812     
  0.13200000000000001        -0.69058597087860107     
  0.13229999999999997        -0.52531886100769043     
  0.13260000000000000        -0.23870618641376495     
  0.13290000000000002         0.14873641729354858     
  0.13319999999999999         0.59679073095321655     
  0.13350000000000001          1.0583198070526123     
  0.13380000000000003          1.4755502939224243     
  0.13410000000000000          1.7921526432037354     
  0.13440000000000002          1.9607467651367188     
  0.13469999999999999          1.9434700012207031     
  0.13500000000000001          1.7250479459762573     
  0.13529999999999998          1.3090162277221680     
  0.13560000000000000         0.72033292055130005     
  0.13590000000000002          6.7012347280979156E-003
  0.13619999999999999        -0.77262246608734131     
  0.13650000000000001         -1.5467283725738525     
  0.13680000000000003         -2.2433922290802002     
  0.13710000000000000         -2.7978415489196777     
  0.13740000000000002         -3.1544127464294434     
  0.13769999999999999         -3.2779691219329834     
  0.13800000000000001         -3.1528890132904053     
  0.13829999999999998         -2.7853758335113525     
  0.13860000000000000         -2.2045726776123047     
  0.13890000000000002         -1.4554789066314697     
  0.13919999999999999        -0.59726637601852417     
  0.13950000000000001         0.30308771133422852     
  0.13979999999999998          1.1787949800491333     
  0.14010000000000000          1.9665648937225342     
  0.14040000000000002          2.6127958297729492     
  0.14069999999999999          3.0785307884216309     
  0.14100000000000001          3.3383877277374268     
  0.14130000000000004          3.3855729103088379     
  0.14160000000000000          3.2281305789947510     
  0.14189999999999997          2.8868300914764404     
  0.14219999999999999          2.3962106704711914     
  0.14250000000000002          1.7951029539108276     
  0.14279999999999998          1.1282703876495361     
  0.14310000000000000         0.44104373455047607     
  0.14339999999999997        -0.22565150260925293     
  0.14369999999999999        -0.83289968967437744     
  0.14400000000000002         -1.3511549234390259     
  0.14429999999999998         -1.7579436302185059     
  0.14460000000000001         -2.0385162830352783     
  0.14490000000000003         -2.1890730857849121     
  0.14520000000000000         -2.2111771106719971     
  0.14550000000000002         -2.1155850887298584     
  0.14579999999999999         -1.9184435606002808     
  0.14610000000000001         -1.6396576166152954     
  0.14640000000000003         -1.3043807744979858     
  0.14670000000000000        -0.93686658143997192     
  0.14699999999999996        -0.56226146221160889     
  0.14729999999999999        -0.20369857549667358     
  0.14760000000000001         0.11941479891538620     
  0.14789999999999998         0.39184784889221191     
  0.14820000000000000         0.60344016551971436     