  -1.4999999999999999E-002     0.0000000000000000     
  -1.4700000000000000E-002     2.8435589438657871E-009
  -1.4400000000000000E-002     2.5150174565169436E-007
  -1.4100000000000000E-002     1.2756221394738532E-006
  -1.3800000000000000E-002    -4.0598747546027880E-006
  -1.3500000000000000E-002    -1.2958712432009634E-005
  -1.3200000000000000E-002     1.3591899005405139E-005
  -1.2899999999999998E-002     2.4979452064144425E-005
  -1.2600000000000000E-002    -1.1741577509383205E-005
  -1.2299999999999998E-002     5.5529858400404919E-006
  -1.2000000000000000E-002    -1.4514182112179697E-005
  -1.1699999999999999E-002    -6.0805727116530761E-005
  -1.1399999999999999E-002    -1.0284976269758772E-005
  -1.1099999999999999E-002     3.3045100281015038E-005
  -1.0799999999999999E-002     4.1664759919513017E-005
  -1.0499999999999999E-002     5.3979427320882678E-005
  -1.0199999999999999E-002     1.6887469973880798E-004
  -9.8999999999999991E-003     3.1371461227536201E-004
  -9.5999999999999992E-003     4.5674754073843360E-004
  -9.2999999999999992E-003     8.7464024545624852E-004
  -8.9999999999999993E-003     1.4408649876713753E-003
  -8.6999999999999994E-003     1.9886584486812353E-003
  -8.3999999999999995E-003     2.9977182857692242E-003
  -8.0999999999999996E-003     4.7001740895211697E-003
  -7.7999999999999988E-003     6.8977242335677147E-003
  -7.4999999999999997E-003     1.0300502181053162E-002
  -7.1999999999999998E-003     1.5476843342185020E-002
  -6.8999999999999981E-003     2.2211732342839241E-002
  -6.5999999999999982E-003     3.1151680275797844E-002
  -6.3000000000000000E-003     4.3457612395286560E-002
  -6.0000000000000001E-003     6.0102000832557678E-002
  -5.6999999999999985E-003     8.1331662833690643E-002
  -5.3999999999999986E-003    0.10801451653242111     
  -5.1000000000000004E-003    0.14175167679786682     
  -4.7999999999999987E-003    0.18202325701713562     
  -4.5000000000000005E-003    0.22809663414955139     
  -4.1999999999999989E-003    0.27919596433639526     
  -3.8999999999999990E-003    0.33248755335807800     
  -3.5999999999999990E-003    0.38337963819503784     
  -3.2999999999999991E-003    0.42462721467018127     
  -2.9999999999999992E-003    0.44734993577003479     
  -2.6999999999999993E-003    0.43962323665618896     
  -2.3999999999999994E-003    0.38552400469779968     
  -2.0999999999999977E-003    0.26721441745758057     
  -1.7999999999999995E-003     6.4563706517219543E-002
  -1.4999999999999979E-003   -0.24357976019382477     
  -1.1999999999999997E-003   -0.67802554368972778     
  -8.9999999999999976E-004    -1.2563910484313965     
  -5.9999999999999810E-004    -1.9897098541259766     
  -2.9999999999999992E-004    -2.8801929950714111     
   0.0000000000000000         -3.9168579578399658     
   3.0000000000000165E-004    -5.0727472305297852     
   5.9999999999999984E-004    -6.3007798194885254     
   9.0000000000000149E-004    -7.5326976776123047     
   1.2000000000000031E-003    -8.6794242858886719     
   1.5000000000000013E-003    -9.6299581527709961     
   1.8000000000000030E-003    -10.258617401123047     
   2.1000000000000012E-003    -10.430579185485840     
   2.3999999999999994E-003    -10.010198593139648     
   2.7000000000000010E-003    -8.8750228881835938     
   2.9999999999999992E-003    -6.9268622398376465     
   3.3000000000000008E-003    -4.1085877418518066     
   3.6000000000000025E-003   -0.41719019412994385     
   3.9000000000000007E-003     4.0865511894226074     
   4.2000000000000023E-003     9.2661762237548828     
   4.5000000000000005E-003     14.909744262695312     
   4.7999999999999987E-003     20.733146667480469     
   5.1000000000000004E-003     26.388744354248047     
   5.4000000000000020E-003     31.487892150878906     
   5.7000000000000037E-003     35.623161315917969     
   5.9999999999999984E-003     38.398818969726562     
   6.3000000000000000E-003     39.467048645019531     
   6.6000000000000017E-003     38.560623168945312     
   6.9000000000000034E-003     35.522590637207031     
   7.2000000000000015E-003     30.330348968505859     
   7.5000000000000032E-003     23.113431930541992     
   7.8000000000000014E-003     14.151564598083496     
   8.0999999999999996E-003     3.8662874698638916     
   8.4000000000000012E-003    -7.2016992568969727     
   8.7000000000000029E-003    -18.431077957153320     
   9.0000000000000011E-003    -29.160928726196289     
   9.2999999999999992E-003    -38.743789672851562     
   9.6000000000000009E-003    -46.593769073486328     
   9.8999999999999991E-003    -52.229957580566406     
   1.0200000000000001E-002    -55.322433471679688     
   1.0500000000000002E-002    -55.706367492675781     
   1.0800000000000004E-002    -53.398338317871094     
   1.1099999999999999E-002    -48.595600128173828     
   1.1400000000000000E-002    -41.648338317871094     
   1.1700000000000002E-002    -33.034580230712891     
   1.2000000000000004E-002    -23.315828323364258     
   1.2300000000000002E-002    -13.096398353576660     
   1.2600000000000000E-002    -2.9738216400146484     
   1.2900000000000002E-002     6.5066452026367188     
   1.3200000000000000E-002     14.878605842590332     
   1.3500000000000002E-002     21.786901473999023     
   1.3800000000000003E-002     27.003845214843750     
   1.4100000000000001E-002     30.429149627685547     
   1.4400000000000000E-002     32.083827972412109     
   1.4700000000000001E-002     32.096416473388672     
   1.4999999999999999E-002     30.684436798095703     
   1.5300000000000001E-002     28.120761871337891     
   1.5600000000000003E-002     24.711267471313477     
   1.5899999999999997E-002     20.772117614746094     
   1.6199999999999999E-002     16.600744247436523     
   1.6500000000000001E-002     12.459062576293945     
   1.6800000000000002E-002     8.5611295700073242     
   1.7100000000000004E-002     5.0684552192687988     
   1.7400000000000006E-002     2.0850791931152344     
   1.7700000000000000E-002   -0.34294152259826660     
   1.8000000000000002E-002    -2.2103645801544189     
   1.8300000000000004E-002    -3.5498723983764648     
   1.8600000000000005E-002    -4.4235162734985352     
   1.8900000000000000E-002    -4.9054374694824219     
   1.9200000000000002E-002    -5.0752916336059570     
   1.9500000000000003E-002    -5.0104441642761230     
   1.9799999999999998E-002    -4.7818260192871094     
   2.0100000000000000E-002    -4.4465970993041992     
   2.0400000000000001E-002    -4.0486454963684082     
   2.0700000000000003E-002    -3.6250300407409668     
   2.0999999999999998E-002    -3.1989531517028809     
   2.1299999999999999E-002    -2.7859017848968506     
   2.1600000000000001E-002    -2.3996932506561279     
   2.1900000000000003E-002    -2.0480725765228271     
   2.2200000000000004E-002    -1.7368847131729126     
   2.2500000000000006E-002    -1.4694731235504150     
   2.2800000000000001E-002    -1.2484300136566162     
   2.3100000000000002E-002    -1.0732851028442383     
   2.3400000000000004E-002   -0.93863695859909058     
   2.3699999999999999E-002   -0.83883512020111084     
   2.4000000000000000E-002   -0.76469212770462036     
   2.4300000000000002E-002   -0.70535445213317871     
   2.4599999999999997E-002   -0.65126192569732666     
   2.4900000000000005E-002   -0.59393084049224854     
   2.5200000000000000E-002   -0.52865141630172729     
   2.5499999999999995E-002   -0.45315039157867432     
   2.5800000000000003E-002   -0.37038245797157288     
   2.6099999999999998E-002   -0.28631740808486938     
   2.6400000000000007E-002   -0.20830532908439636     
   2.6700000000000002E-002   -0.14472582936286926     
   2.6999999999999996E-002   -0.10073204338550568     
   2.7300000000000005E-002    -8.1921361386775970E-002
   2.7600000000000000E-002    -8.7404921650886536E-002
   2.7900000000000008E-002   -0.11199138313531876     
   2.8200000000000003E-002   -0.15085820853710175     
   2.8499999999999998E-002   -0.19439698755741119     
   2.8800000000000006E-002   -0.23366878926753998     
   2.9100000000000001E-002   -0.26136451959609985     
   2.9400000000000003E-002   -0.27348655462265015     
   2.9700000000000004E-002   -0.26935604214668274     
   3.0000000000000006E-002   -0.24924632906913757     
   3.0300000000000001E-002   -0.22046126425266266     
   3.0600000000000002E-002   -0.18960839509963989     
   3.0900000000000004E-002   -0.16041405498981476     
   3.1199999999999999E-002   -0.13937456905841827     
   3.1500000000000007E-002   -0.12882629036903381     
   3.1800000000000002E-002   -0.12755081057548523     
   3.2099999999999997E-002   -0.13093096017837524     
   3.2400000000000005E-002   -0.13495053350925446     
   3.2700000000000000E-002   -0.13429665565490723     
   3.3000000000000002E-002   -0.12243997305631638     
   3.3300000000000003E-002    -9.7555570304393768E-002
   3.3599999999999998E-002    -6.0420833528041840E-002
   3.3900000000000000E-002    -1.3509235344827175E-002
   3.4200000000000001E-002     3.8665428757667542E-002
   3.4500000000000003E-002     8.9078664779663086E-002
   3.4799999999999998E-002    0.13009116053581238     
   3.5099999999999999E-002    0.15932007133960724     
   3.5400000000000001E-002    0.17436617612838745     
   3.5699999999999996E-002    0.17493583261966705     
   3.6000000000000004E-002    0.16653248667716980     
   3.6299999999999999E-002    0.15415486693382263     
   3.6600000000000008E-002    0.14494203031063080     
   3.6900000000000002E-002    0.14402493834495544     
   3.7199999999999997E-002    0.15481226146221161     
   3.7500000000000006E-002    0.17924372851848602     
   3.7800000000000000E-002    0.21265804767608643     
   3.8100000000000009E-002    0.24935570359230042     
   3.8400000000000004E-002    0.28317227959632874     
   3.8699999999999998E-002    0.30452874302864075     
   3.9000000000000007E-002    0.30690214037895203     
   3.9300000000000002E-002    0.28630769252777100     
   3.9600000000000003E-002    0.24124746024608612     
   3.9900000000000005E-002    0.17543309926986694     
   4.0200000000000000E-002     9.4219259917736053E-002
   4.0500000000000001E-002     6.8656117655336857E-003
   4.0800000000000003E-002    -7.6419100165367126E-002
   4.1100000000000005E-002   -0.14821100234985352     
   4.1399999999999999E-002   -0.20094327628612518     
   4.1700000000000008E-002   -0.22927357256412506     
   4.2000000000000003E-002   -0.23348623514175415     
   4.2299999999999997E-002   -0.21527321636676788     
   4.2600000000000006E-002   -0.17828166484832764     
   4.2900000000000001E-002   -0.12877164781093597     
   4.3200000000000002E-002    -7.1300908923149109E-002
   4.3500000000000004E-002    -1.1611824855208397E-002
   4.3799999999999999E-002     4.7738850116729736E-002
   4.4100000000000000E-002    0.10656757652759552     
   4.4400000000000002E-002    0.16126398742198944     
   4.4700000000000004E-002    0.21328081190586090     
   4.4999999999999998E-002    0.26353582739830017     
   4.5300000000000000E-002    0.30749708414077759     
   4.5600000000000002E-002    0.34396550059318542     
   4.5899999999999996E-002    0.36789262294769287     
   4.6200000000000005E-002    0.37376090884208679     
   4.6500000000000000E-002    0.35642263293266296     
   4.6799999999999994E-002    0.31063959002494812     
   4.7100000000000003E-002    0.23778934776782990     
   4.7399999999999998E-002    0.13845923542976379     
   4.7700000000000006E-002     1.8217002972960472E-002
   4.8000000000000001E-002   -0.10997327417135239     
   4.8300000000000010E-002   -0.23458309471607208     
   4.8600000000000004E-002   -0.34285438060760498     
   4.8899999999999999E-002   -0.41943016648292542     
   4.9200000000000008E-002   -0.45334136486053467     
   4.9500000000000002E-002   -0.44099396467208862     
   4.9800000000000011E-002   -0.38129246234893799     
   5.0100000000000006E-002   -0.28023818135261536     
   5.0400000000000000E-002   -0.15226267278194427     
   5.0700000000000009E-002    -1.3020591810345650E-002
   5.1000000000000004E-002    0.11732796579599380     
   5.1299999999999998E-002    0.22124955058097839     
   5.1600000000000007E-002    0.28392720222473145     
   5.1900000000000002E-002    0.29310938715934753     
   5.2200000000000010E-002    0.25070297718048096     
   5.2500000000000005E-002    0.16093547642230988     
   5.2800000000000000E-002     3.6587115377187729E-002
   5.3099999999999994E-002    -9.9263682961463928E-002
   5.3400000000000003E-002   -0.22636361420154572     
   5.3699999999999998E-002   -0.31954878568649292     
   5.4000000000000006E-002   -0.35825484991073608     
   5.4300000000000001E-002   -0.33086389303207397     
   5.4599999999999996E-002   -0.22869795560836792     
   5.4900000000000004E-002    -5.8350019156932831E-002
   5.5199999999999999E-002    0.16474509239196777     
   5.5499999999999994E-002    0.41968595981597900     
   5.5800000000000002E-002    0.67446053028106689     
   5.6099999999999997E-002    0.89644581079483032     
   5.6400000000000006E-002     1.0542922019958496     
   5.6700000000000000E-002     1.1187965869903564     
   5.6999999999999995E-002     1.0712083578109741     
   5.7300000000000004E-002    0.90220445394515991     
   5.7599999999999998E-002    0.61408501863479614     
   5.7900000000000007E-002    0.22488421201705933     
   5.8200000000000002E-002   -0.23777665197849274     
   5.8499999999999996E-002   -0.73752158880233765     
   5.8800000000000005E-002    -1.2282822132110596     
   5.9100000000000000E-002    -1.6656242609024048     
   5.9400000000000008E-002    -2.0062224864959717     
   5.9700000000000003E-002    -2.2113447189331055     
   6.0000000000000012E-002    -2.2585554122924805     
   6.0300000000000006E-002    -2.1347293853759766     
   6.0600000000000001E-002    -1.8420033454895020     
   6.0900000000000010E-002    -1.4034231901168823     
   6.1200000000000004E-002   -0.84856235980987549     
   6.1500000000000013E-002   -0.22261467576026917     
   6.1800000000000008E-002    0.42255368828773499     
   6.2100000000000002E-002     1.0387731790542603     
   6.2399999999999997E-002     1.5742145776748657     
   6.2700000000000006E-002     1.9904537200927734     
   6.3000000000000000E-002     2.2607216835021973     
   6.3300000000000009E-002     2.3676810264587402     
   6.3600000000000004E-002     2.3156514167785645     
   6.3899999999999998E-002     2.1175801753997803     
   6.4199999999999993E-002     1.7975708246231079     
   6.4500000000000002E-002     1.3922975063323975     
   6.4800000000000010E-002    0.93647027015686035     
   6.5100000000000005E-002    0.46708551049232483     
   6.5400000000000000E-002     1.9777849316596985E-002
   6.5700000000000008E-002   -0.38051253557205200     
   6.5999999999999989E-002   -0.71439450979232788     
   6.6299999999999998E-002   -0.96872407197952271     
   6.6600000000000006E-002    -1.1420768499374390     
   6.6900000000000001E-002    -1.2360154390335083     
   6.7199999999999996E-002    -1.2573919296264648     
   6.7500000000000004E-002    -1.2179386615753174     
   6.7800000000000013E-002    -1.1261148452758789     
   6.8099999999999994E-002   -0.99641865491867065     
   6.8400000000000002E-002   -0.84069603681564331     
   6.8700000000000011E-002   -0.66509425640106201     
   6.8999999999999992E-002   -0.48370689153671265     
   6.9300000000000000E-002   -0.30466625094413757     
   6.9600000000000009E-002   -0.13335943222045898     
   6.9900000000000004E-002     1.9173175096511841E-002
   7.0199999999999999E-002    0.14911457896232605     
   7.0500000000000007E-002    0.25094711780548096     
   7.0800000000000016E-002    0.32108637690544128     
   7.1099999999999997E-002    0.36176428198814392     
   7.1400000000000005E-002    0.37191510200500488     
   7.1700000000000000E-002    0.35669329762458801     
   7.1999999999999995E-002    0.32542797923088074     
   7.2300000000000003E-002    0.28077131509780884     
   7.2600000000000012E-002    0.23230096697807312     
   7.2900000000000006E-002    0.18876565992832184     
   7.3200000000000001E-002    0.15062527358531952     
   7.3499999999999996E-002    0.12319178879261017     
   7.3800000000000004E-002    0.10721673071384430     
   7.4099999999999999E-002     9.8822414875030518E-002
   7.4400000000000008E-002     9.7319126129150391E-002
   7.4700000000000003E-002     9.6913471817970276E-002
   7.5000000000000011E-002     9.4742551445960999E-002
   7.5299999999999992E-002     8.9502811431884766E-002
   7.5600000000000001E-002     7.6401017606258392E-002
   7.5900000000000009E-002     5.9579871594905853E-002
   7.6200000000000004E-002     4.0375471115112305E-002
   7.6499999999999999E-002     1.7625994980335236E-002
   7.6800000000000007E-002    -1.3068735133856535E-003
   7.7099999999999988E-002    -1.4871982857584953E-002
   7.7399999999999997E-002    -2.4771928787231445E-002
   7.7700000000000005E-002    -2.7056982740759850E-002
   7.8000000000000014E-002    -2.4406079202890396E-002
   7.8299999999999995E-002    -1.9418029114603996E-002
   7.8600000000000003E-002    -1.2630417943000793E-002
   7.8900000000000012E-002    -8.9568300172686577E-003
   7.9199999999999993E-002    -8.4260450676083565E-003
   7.9500000000000001E-002    -1.1109899729490280E-002
   7.9800000000000010E-002    -1.8702849745750427E-002
   8.0100000000000018E-002    -2.7144346386194229E-002
   8.0399999999999999E-002    -3.5449787974357605E-002
   8.0700000000000008E-002    -4.2791265994310379E-002
   8.1000000000000003E-002    -4.3809000402688980E-002
   8.1299999999999997E-002    -4.0377080440521240E-002
   8.1600000000000006E-002    -3.2552815973758698E-002
   8.1900000000000014E-002    -1.8635487183928490E-002
   8.2199999999999995E-002    -5.0273756496608257E-003
   8.2500000000000004E-002     7.7480091713368893E-003
   8.2799999999999999E-002     1.8765032291412354E-002
   8.3100000000000007E-002     2.1677376702427864E-002
   8.3400000000000002E-002     1.9483603537082672E-002
   8.3700000000000011E-002     1.1322313919663429E-002
   8.4000000000000005E-002    -3.3041376154869795E-003
   8.4300000000000000E-002    -1.8687430769205093E-002
   8.4599999999999995E-002    -3.5550866276025772E-002
   8.4900000000000003E-002    -4.9160629510879517E-002
   8.5199999999999998E-002    -5.6839980185031891E-002
   8.5500000000000007E-002    -6.0866188257932663E-002
   8.5800000000000001E-002    -5.7580579072237015E-002
   8.6100000000000010E-002    -4.9124997109174728E-002
   8.6399999999999991E-002    -3.9582133293151855E-002
   8.6699999999999999E-002    -2.7373136952519417E-002
   8.7000000000000008E-002    -1.5899101272225380E-002
   8.7300000000000003E-002    -8.2101533189415932E-003
   8.7599999999999997E-002    -2.1393005736172199E-003
   8.7900000000000006E-002     1.7734168795868754E-003
   8.8200000000000014E-002     3.1065938528627157E-003
   8.8499999999999995E-002     4.8758010379970074E-003
   8.8800000000000004E-002     6.4995083957910538E-003
   8.9100000000000013E-002     1.0319110006093979E-002
   8.9399999999999993E-002     1.7040936276316643E-002
   8.9700000000000002E-002     2.2375904023647308E-002
   9.0000000000000011E-002     2.9980039224028587E-002
   9.0299999999999991E-002     3.6264479160308838E-002
   9.0600000000000000E-002     3.7202168256044388E-002
   9.0900000000000009E-002     3.7237342447042465E-002
   9.1200000000000017E-002     3.1598992645740509E-002
   9.1499999999999998E-002     2.1045597270131111E-002
   9.1800000000000007E-002     9.5622437074780464E-003
   9.2100000000000001E-002    -4.8050531186163425E-003
   9.2399999999999996E-002    -1.7308227717876434E-002
   9.2700000000000005E-002    -2.6884332299232483E-002
   9.3000000000000013E-002    -3.3794283866882324E-002
   9.3300000000000008E-002    -3.4252151846885681E-002
   9.3600000000000003E-002    -3.1255852431058884E-002
   9.3899999999999997E-002    -2.5157488882541656E-002
   9.4200000000000006E-002    -1.5435599721968174E-002
   9.4500000000000001E-002    -6.4861602149903774E-003
   9.4800000000000009E-002     1.7186894547194242E-003
   9.5100000000000004E-002     9.2641646042466164E-003
   9.5399999999999999E-002     1.3038338162004948E-002
   9.5699999999999993E-002     1.5352563001215458E-002
   9.6000000000000002E-002     1.7278103157877922E-002
   9.6300000000000011E-002     1.7017088830471039E-002
   9.6600000000000005E-002     1.7849041149020195E-002
   9.6900000000000000E-002     2.0386707037687302E-002
   9.7200000000000009E-002     2.2509459406137466E-002
   9.7499999999999989E-002     2.6521483436226845E-002
   9.7799999999999998E-002     2.9454201459884644E-002
   9.8100000000000007E-002     2.9857086017727852E-002
   9.8400000000000015E-002     2.9502842575311661E-002
   9.8699999999999996E-002     2.4511318653821945E-002
   9.9000000000000005E-002     1.6724342480301857E-002
   9.9300000000000013E-002     6.6718887537717819E-003
   9.9599999999999994E-002    -7.0569398812949657E-003
   9.9900000000000003E-002    -1.8284136429429054E-002
  0.10020000000000001         -2.8899623081088066E-002
  0.10049999999999999         -3.7627328187227249E-002
  0.10080000000000000         -3.9413280785083771E-002
  0.10110000000000001         -3.8670506328344345E-002
  0.10140000000000000         -3.4075979143381119E-002
  0.10170000000000000         -2.4684950709342957E-002
  0.10200000000000001         -1.5026164241135120E-002
  0.10230000000000002         -4.8055695369839668E-003
  0.10260000000000000          4.4079432263970375E-003
  0.10290000000000001          1.0884031653404236E-002
  0.10320000000000000          1.5627710148692131E-002
  0.10350000000000001          1.7466478049755096E-002
  0.10380000000000000          1.7226213589310646E-002
  0.10410000000000001          1.7466437071561813E-002
  0.10440000000000001          1.6751954331994057E-002
  0.10470000000000000          1.6521535813808441E-002
  0.10500000000000000          1.8931616097688675E-002
  0.10530000000000000          1.9622189924120903E-002
  0.10560000000000000          2.0580990239977837E-002
  0.10590000000000001          2.1815411746501923E-002
  0.10620000000000000          1.8657715991139412E-002
  0.10650000000000001          1.4071236364543438E-002
  0.10679999999999999          6.4803836867213249E-003
  0.10710000000000000         -4.6768859028816223E-003
  0.10740000000000001         -1.5455750748515129E-002
  0.10770000000000000         -2.7536671608686447E-002
  0.10800000000000000         -3.7398554384708405E-002
  0.10830000000000001         -4.2561355978250504E-002
  0.10859999999999999         -4.5080620795488358E-002
  0.10890000000000000         -4.1482940316200256E-002
  0.10920000000000001         -3.3276490867137909E-002
  0.10950000000000001         -2.2790208458900452E-002
  0.10979999999999999         -8.9140050113201141E-003
  0.11009999999999999          4.2405463755130768E-003
  0.11040000000000001          1.4437983743846416E-002
  0.11070000000000001          2.3543605580925941E-002
  0.11100000000000000          2.7753181755542755E-002
  0.11130000000000000          2.8022458776831627E-002
  0.11160000000000002          2.6732893660664558E-002
  0.11190000000000001          2.2194575518369675E-002
  0.11220000000000001          1.7766570672392845E-002
  0.11250000000000000          1.4226079918444157E-002
  0.11280000000000000          1.0591004043817520E-002
  0.11309999999999999          9.6230749040842056E-003
  0.11340000000000001          8.7131615728139877E-003
  0.11369999999999998          7.4387914501130581E-003
  0.11400000000000000          7.3054959066212177E-003
  0.11430000000000000          3.0378866940736771E-003
  0.11460000000000002         -3.0910049099475145E-003
  0.11489999999999999         -9.3557117506861687E-003
  0.11520000000000001         -1.9013114273548126E-002
  0.11550000000000001         -2.7875196188688278E-002
  0.11580000000000000         -3.4369423985481262E-002
  0.11609999999999999         -3.9323020726442337E-002
  0.11640000000000002         -3.8904797285795212E-002
  0.11670000000000001         -3.4545708447694778E-002
  0.11700000000000001         -2.5805694982409477E-002
  0.11730000000000000         -1.2752041220664978E-002
  0.11760000000000000          2.6995473308488727E-004
  0.11789999999999999          1.4176155440509319E-002
  0.11820000000000001          2.6297438889741898E-002
  0.11850000000000001          3.2720722258090973E-002
  0.11880000000000000          3.6366380751132965E-002
  0.11910000000000000          3.5745881497859955E-002
  0.11940000000000002          2.9496500268578529E-002
  0.11970000000000001          2.2545667365193367E-002
  0.12000000000000001          1.4609757810831070E-002
  0.12030000000000000          6.7350119352340698E-003
  0.12060000000000000          2.1497809793800116E-003
  0.12089999999999999         -9.9920562934130430E-004
  0.12119999999999999         -1.5165040967985988E-003
  0.12150000000000001         -1.9600421364884824E-004
  0.12180000000000001         -9.7066287708003074E-005
  0.12210000000000000          6.5759359858930111E-004
  0.12239999999999999         -1.5788767486810684E-003
  0.12270000000000002         -7.2495266795158386E-003
  0.12300000000000001         -1.2673730030655861E-002
  0.12330000000000001         -2.0948005840182304E-002
  0.12360000000000000         -2.8990544378757477E-002
  0.12390000000000000         -3.3530730754137039E-002
  0.12419999999999999         -3.5811156034469604E-002
  0.12450000000000001         -3.2822705805301666E-002
  0.12480000000000001         -2.4788757786154747E-002
  0.12509999999999999         -1.3654063455760479E-002
  0.12540000000000001          1.1867857538163662E-003
  0.12570000000000003          1.5872584655880928E-002
  0.12600000000000000          2.8506703674793243E-002
  0.12630000000000002          3.8923945277929306E-002
  0.12659999999999999          4.3420925736427307E-002
  0.12690000000000001          4.2836286127567291E-002
  0.12719999999999998          3.8226354867219925E-002
  0.12750000000000000          2.8093729168176651E-002
  0.12780000000000002          1.7595220357179642E-002
  0.12809999999999999          7.0757539942860603E-003
  0.12840000000000001         -3.8237392436712980E-003
  0.12869999999999998         -1.0019619017839432E-002
  0.12900000000000000         -1.3928969390690327E-002
  0.12930000000000003         -1.5651188790798187E-002
  0.12959999999999999         -1.4140175655484200E-002
  0.12990000000000002         -1.3216156512498856E-002
  0.13019999999999998         -1.1924527585506439E-002
  0.13050000000000000         -1.1987023055553436E-002
  0.13080000000000003         -1.5004181303083897E-002
  0.13109999999999999         -1.7775053158402443E-002
  0.13140000000000002         -2.1791039034724236E-002
  0.13169999999999998         -2.5677332654595375E-002
  0.13200000000000001         -2.5890709832310677E-002
  0.13229999999999997         -2.4193340912461281E-002
  0.13260000000000000         -1.8598841503262520E-002
  0.13290000000000002         -8.1201996654272079E-003
  0.13319999999999999          3.9043645374476910E-003
  0.13350000000000001          1.7537331208586693E-002
  0.13380000000000003          3.0735054984688759E-002
  0.13410000000000000          4.0321439504623413E-002
  0.13440000000000002          4.6684570610523224E-002
  0.13469999999999999          4.6893063932657242E-002
  0.13500000000000001          4.1535384953022003E-002
  0.13529999999999998          3.2992675900459290E-002
  0.13560000000000000          1.9700473174452782E-002
  0.13590000000000002          5.4343384690582752E-003
  0.13619999999999999         -7.2877104394137859E-003
  0.13650000000000001         -1.9468935206532478E-002
  0.13680000000000003         -2.6823913678526878E-002
  0.13710000000000000         -3.0442498624324799E-002
  0.13740000000000002         -3.1624712049961090E-002
  0.13769999999999999         -2.8613459318876266E-002
  0.13800000000000001         -2.5269387289881706E-002
  0.13829999999999998         -2.1254636347293854E-002
  0.13860000000000000         -1.6700195148587227E-002
  0.13890000000000002         -1.4979192055761814E-002
  0.13919999999999999         -1.2828362174332142E-002
  0.13950000000000001         -1.1008637025952339E-002
  0.13979999999999998         -9.9850427359342575E-003
  0.14010000000000000         -6.2582362443208694E-003
  0.14040000000000002         -1.3513739686459303E-003
  0.14069999999999999          5.6604375131428242E-003
  0.14100000000000001          1.5211435966193676E-002
  0.14130000000000004          2.4239167571067810E-002
  0.14160000000000000          3.3191088587045670E-002
  0.14189999999999997          4.0549755096435547E-002
  0.14219999999999999          4.2755562812089920E-002
  0.14250000000000002          4.1180707514286041E-002
  0.14279999999999998          3.5166986286640167E-002
  0.14310000000000000          2.3400587961077690E-002
  0.14339999999999997          9.6752773970365524E-003
  0.14369999999999999         -5.5011305958032608E-003
  0.14400000000000002         -2.0508270710706711E-002
  0.14429999999999998         -3.1568445265293121E-002
  0.14460000000000001         -3.9893254637718201E-002
  0.14490000000000003         -4.2309124022722244E-002
  0.14520000000000000         -3.9448879659175873E-002
  0.14550000000000002         -3.4516990184783936E-002
  0.14579999999999999         -2.4607880041003227E-002
  0.14610000000000001         -1.4832231216132641E-002
  0.14640000000000003         -6.7110480740666389E-003
  0.14670000000000000          1.9352850504219532E-003
  0.14699999999999996          6.6644321195781231E-003
  0.14729999999999999          9.0482253581285477E-003
  0.14760000000000001          1.0495779104530811E-002
  0.14789999999999998          1.0108152404427528E-002
  0.14820000000000000          1.0724947787821293E-002