  -1.4999999999999999E-002     0.0000000000000000     
  -1.4700000000000000E-002     0.0000000000000000     
  -1.4400000000000000E-002     0.0000000000000000     
  -1.4100000000000000E-002     0.0000000000000000     
  -1.3800000000000000E-002     0.0000000000000000     
  -1.3500000000000000E-002     0.0000000000000000     
  -1.3200000000000000E-002     0.0000000000000000     
  -1.2899999999999998E-002     0.0000000000000000     
  -1.2600000000000000E-002     0.0000000000000000     
  -1.2299999999999998E-002     0.0000000000000000     
  -1.2000000000000000E-002     0.0000000000000000     
  -1.1699999999999999E-002     0.0000000000000000     
  -1.1399999999999999E-002     0.0000000000000000     
  -1.1099999999999999E-002     0.0000000000000000     
  -1.0799999999999999E-002     0.0000000000000000     
  -1.0499999999999999E-002     0.0000000000000000     
  -1.0199999999999999E-002     0.0000000000000000     
  -9.8999999999999991E-003     0.0000000000000000     
  -9.5999999999999992E-003     0.0000000000000000     
  -9.2999999999999992E-003     0.0000000000000000     
  -8.9999999999999993E-003     0.0000000000000000     
  -8.6999999999999994E-003     0.0000000000000000     
  -8.3999999999999995E-003     0.0000000000000000     
  -8.0999999999999996E-003     0.0000000000000000     
  -7.7999999999999988E-003     0.0000000000000000     
  -7.4999999999999997E-003     0.0000000000000000     
  -7.1999999999999998E-003     0.0000000000000000     
  -6.8999999999999981E-003     0.0000000000000000     
  -6.5999999999999982E-003     0.0000000000000000     
  -6.3000000000000000E-003     0.0000000000000000     
  -6.0000000000000001E-003     0.0000000000000000     
  -5.6999999999999985E-003     0.0000000000000000     
  -5.3999999999999986E-003     0.0000000000000000     
  -5.1000000000000004E-003     0.0000000000000000     
  -4.7999999999999987E-003     0.0000000000000000     
  -4.5000000000000005E-003     0.0000000000000000     
  -4.1999999999999989E-003     0.0000000000000000     
  -3.8999999999999990E-003     0.0000000000000000     
  -3.5999999999999990E-003     0.0000000000000000     
  -3.2999999999999991E-003     0.0000000000000000     
  -2.9999999999999992E-003     0.0000000000000000     
  -2.6999999999999993E-003     0.0000000000000000     
  -2.3999999999999994E-003     0.0000000000000000     
  -2.0999999999999977E-003     0.0000000000000000     
  -1.7999999999999995E-003     0.0000000000000000     
  -1.4999999999999979E-003     0.0000000000000000     
  -1.1999999999999997E-003     0.0000000000000000     
  -8.9999999999999976E-004     0.0000000000000000     
  -5.9999999999999810E-004     0.0000000000000000     
  -2.9999999999999992E-004     0.0000000000000000     
   0.0000000000000000          0.0000000000000000     
   3.0000000000000165E-004     0.0000000000000000     
   5.9999999999999984E-004     0.0000000000000000     
   9.0000000000000149E-004     0.0000000000000000     
   1.2000000000000031E-003     0.0000000000000000     
   1.5000000000000013E-003     0.0000000000000000     
   1.8000000000000030E-003     0.0000000000000000     
   2.1000000000000012E-003     0.0000000000000000     
   2.3999999999999994E-003     0.0000000000000000     
   2.7000000000000010E-003     0.0000000000000000     
   2.9999999999999992E-003     0.0000000000000000     
   3.3000000000000008E-003     0.0000000000000000     
   3.6000000000000025E-003     0.0000000000000000     
   3.9000000000000007E-003     0.0000000000000000     
   4.2000000000000023E-003     0.0000000000000000     
   4.5000000000000005E-003     0.0000000000000000     
   4.7999999999999987E-003     0.0000000000000000     
   5.1000000000000004E-003     0.0000000000000000     
   5.4000000000000020E-003     0.0000000000000000     
   5.7000000000000037E-003     0.0000000000000000     
   5.9999999999999984E-003     0.0000000000000000     
   6.3000000000000000E-003     0.0000000000000000     
   6.6000000000000017E-003     0.0000000000000000     
   6.9000000000000034E-003     0.0000000000000000     
   7.2000000000000015E-003     0.0000000000000000     
   7.5000000000000032E-003    -2.6940758213523113E-037
   7.8000000000000014E-003     1.7944529093989849E-035
   8.0999999999999996E-003    -1.8500649381916382E-035
   8.4000000000000012E-003    -1.7240115013282873E-033
   8.7000000000000029E-003     1.3494706091190620E-032
   9.0000000000000011E-003     5.9658040270520765E-033
   9.2999999999999992E-003    -7.5165550345503405E-031
   9.6000000000000009E-003     4.8464726547291812E-030
   9.8999999999999991E-003    -9.4000411383576636E-031
   1.0200000000000001E-002    -1.5748561430495505E-028
   1.0500000000000002E-002     8.8852536881097635E-028
   1.0800000000000004E-002    -6.6290757802371183E-028
   1.1099999999999999E-002    -1.6075773047000773E-026
   1.1400000000000000E-002     8.8991182297249051E-026
   1.1700000000000002E-002    -1.3936675047768156E-025
   1.2000000000000004E-002    -6.7366495935268367E-025
   1.2300000000000002E-002     4.4904811166244895E-024
   1.2600000000000000E-002    -9.8172667440570384E-024
   1.2900000000000002E-002    -8.2348905059653329E-024
   1.3200000000000000E-002     1.0826079788049445E-022
   1.3500000000000002E-002    -2.1828970735892524E-022
   1.3800000000000003E-002    -5.5112495158175274E-022
   1.4100000000000001E-002     5.0611142443069950E-021
   1.4400000000000000E-002    -1.7319587267861656E-020
   1.4700000000000001E-002     3.1746550021571507E-020
   1.4999999999999999E-002     4.5786395615852743E-021
   1.5300000000000001E-002    -3.0713156003347210E-019
   1.5600000000000003E-002     1.7157339382097960E-018
   1.5899999999999997E-002    -7.9790415316570261E-018
   1.6199999999999999E-002     3.6832051159612095E-017
   1.6500000000000001E-002    -1.6883903943255103E-016
   1.6800000000000002E-002     7.4231351432555172E-016
   1.7100000000000004E-002    -3.0513512068555673E-015
   1.7400000000000006E-002     1.1483269972490915E-014
   1.7700000000000000E-002    -3.8230790389832392E-014
   1.8000000000000002E-002     1.0377026333782069E-013
   1.8300000000000004E-002    -1.6917480250386412E-013
   1.8600000000000005E-002    -3.1096379487467492E-013
   1.8900000000000000E-002     4.2018523282487434E-012
   1.9200000000000002E-002    -2.1347246121833115E-011
   1.9500000000000003E-002     7.1881097245444102E-011
   1.9799999999999998E-002    -1.5331122682868803E-010
   2.0100000000000000E-002     7.4324416034641779E-011
   2.0400000000000001E-002     8.5394908623849813E-010
   2.0700000000000003E-002    -3.4138786961413830E-009
   2.0999999999999998E-002     4.9486607209604552E-009
   2.1299999999999999E-002     6.2180318578269956E-009
   2.1600000000000001E-002    -3.8047403299743257E-008
   2.1900000000000003E-002     3.8361765669075591E-008
   2.2200000000000004E-002     1.0404519903525387E-007
   2.2500000000000006E-002    -2.4975559393140641E-007
   2.2800000000000001E-002    -2.1484075027532028E-007
   2.3100000000000002E-002     8.4017735929783134E-007
   2.3400000000000004E-002     7.1096636747306464E-007
   2.3699999999999999E-002    -2.2179470770893806E-006
   2.4000000000000000E-002    -3.5461415711160189E-006
   2.4300000000000002E-002     4.9751802534156133E-006
   2.4599999999999997E-002     2.6823789138121260E-005
   2.4900000000000005E-002     5.7724006683137867E-005
   2.5200000000000000E-002     9.4136019852270741E-005
   2.5499999999999995E-002     1.4140669908729517E-004
   2.5800000000000003E-002     2.1394883881684871E-004
   2.6099999999999998E-002     3.3256245441362457E-004
   2.6400000000000007E-002     5.2104572437417472E-004
   2.6700000000000002E-002     8.0712166169865165E-004
   2.6999999999999996E-002     1.2296772013374868E-003
   2.7300000000000005E-002     1.8445077174777669E-003
   2.7600000000000000E-002     2.7287592947724398E-003
   2.7900000000000008E-002     3.9857192548463510E-003
   2.8200000000000003E-002     5.7472626022392059E-003
   2.8499999999999998E-002     8.1751694876652237E-003
   2.8800000000000006E-002     1.1462476882683814E-002
   2.9100000000000001E-002     1.5836782809623418E-002
   2.9400000000000003E-002     2.1558006805384333E-002
   2.9700000000000004E-002     2.8903027994321095E-002
   3.0000000000000006E-002     3.8145470992708930E-002
   3.0300000000000001E-002     4.9535328239022514E-002
   3.0600000000000002E-002     6.3262727930364360E-002
   3.0900000000000004E-002     7.9408688221714652E-002
   3.1199999999999999E-002     9.7880075596633809E-002
   3.1500000000000007E-002    0.11834996826219291     
   3.1800000000000002E-002    0.14019563986991734     
   3.2099999999999997E-002    0.16242972864110694     
   3.2400000000000005E-002    0.18365037472086154     
   3.2700000000000000E-002    0.20201924108051372     
   3.3000000000000002E-002    0.21527712762329987     
   3.3300000000000003E-002    0.22079008360213237     
   3.3599999999999998E-002    0.21566907163154969     
   3.3900000000000000E-002    0.19692271080075940     
   3.4200000000000001E-002    0.16173290225742587     
   3.4500000000000003E-002    0.10771011497702210     
   3.4799999999999998E-002     3.3231073617532303E-002
   3.5099999999999999E-002    -6.2222234658639908E-002
   3.5400000000000001E-002   -0.17779409677400126     
   3.5699999999999996E-002   -0.31095500445822477     
   3.6000000000000004E-002   -0.45738812718802180     
   3.6299999999999999E-002   -0.61096796406541465     
   3.6600000000000008E-002   -0.76392589921067611     
   3.6900000000000002E-002   -0.90716597910941843     
   3.7199999999999997E-002    -1.0307894123566399     
   3.7500000000000006E-002    -1.1247419111065966     
   3.7800000000000000E-002    -1.1795858627655704     
   3.8100000000000009E-002    -1.1872991814042280     
   3.8400000000000004E-002    -1.1420256187888498     
   3.8699999999999998E-002    -1.0407640349448357     
   3.9000000000000007E-002   -0.88384079912305324     
   3.9300000000000002E-002   -0.67512286449059289     
   3.9600000000000003E-002   -0.42199599586124137     
   3.9900000000000005E-002   -0.13494570789293237     
   4.0200000000000000E-002    0.17290350233371554     
   4.0500000000000001E-002    0.48687607891456608     
   4.0800000000000003E-002    0.79152031314059101     
   4.1100000000000005E-002     1.0717754019143619     
   4.1399999999999999E-002     1.3141360938176447     
   4.1700000000000008E-002     1.5072704744863543     
   4.2000000000000003E-002     1.6430055773891752     
   4.2299999999999997E-002     1.7166368560581589     
   4.2600000000000006E-002     1.7270817448281903     
   4.2900000000000001E-002     1.6768656018649253     
   4.3200000000000002E-002     1.5715707127274001     
   4.3500000000000004E-002     1.4193488269247609     
   4.3799999999999999E-002     1.2301456110870035     
   4.4100000000000000E-002     1.0149078031768646     
   4.4400000000000002E-002    0.78479433847137159     
   4.4700000000000004E-002    0.55049610865771825     
   4.4999999999999998E-002    0.32152744613967954     
   4.5300000000000000E-002    0.10593288063214468     
   4.5600000000000002E-002    -9.0052328924741021E-002
   4.5899999999999996E-002   -0.26211801659453471     
   4.6200000000000005E-002   -0.40765288271621003     
   4.6500000000000000E-002   -0.52580462350987744     
   4.6799999999999994E-002   -0.61697155061566278     
   4.7100000000000003E-002   -0.68259793700078575     
   4.7399999999999998E-002   -0.72496059081752051     
   4.7700000000000006E-002   -0.74657937133398633     
   4.8000000000000001E-002   -0.75021695405189703     
   4.8300000000000010E-002   -0.73856045546460436     
   4.8600000000000004E-002   -0.71397594868098224     
   4.8899999999999999E-002   -0.67866996929119594     
   4.9200000000000008E-002   -0.63440177630803518     
   4.9500000000000002E-002   -0.58268287746043512     
   4.9800000000000011E-002   -0.52487010518019872     
   5.0100000000000006E-002   -0.46207847738823915     
   5.0400000000000000E-002   -0.39559772238271584     
   5.0700000000000009E-002   -0.32680295601628373     
   5.1000000000000004E-002   -0.25733891352124516     
   5.1299999999999998E-002   -0.18937100032356202     
   5.1600000000000007E-002   -0.12540537509409955     
   5.1900000000000002E-002    -6.8564322289577984E-002
   5.2200000000000010E-002    -2.2450431924069592E-002
   5.2500000000000005E-002     9.0946040443994902E-003
   5.2800000000000000E-002     2.1993669718188613E-002
   5.3099999999999994E-002     1.2524632503308430E-002
   5.3400000000000003E-002    -2.2404518637545334E-002
   5.3699999999999998E-002    -8.4895140860901441E-002
   5.4000000000000006E-002   -0.17526768989553254     
   5.4300000000000001E-002   -0.29193085998231716     
   5.4599999999999996E-002   -0.43077937413109169     
   5.4900000000000004E-002   -0.58502538130118609     
   5.5199999999999999E-002   -0.74542127217343435     
   5.5499999999999994E-002   -0.90017734799724991     
   5.5800000000000002E-002    -1.0359048130052884     
   5.6099999999999997E-002    -1.1382636011162646     
   5.6400000000000006E-002    -1.1930021196863834     
   5.6700000000000000E-002    -1.1874923100569177     
   5.6999999999999995E-002    -1.1115655325905678     
   5.7300000000000004E-002   -0.95912206366095987     
   5.7599999999999998E-002   -0.72890356219434338     
   5.7900000000000007E-002   -0.42498087155886743     
   5.8200000000000002E-002    -5.7406204920726012E-002
   5.8499999999999996E-002    0.35870887869523227     
   5.8800000000000005E-002    0.80349253266704856     
   5.9100000000000000E-002     1.2538023459631340     
   5.9400000000000008E-002     1.6849328729204700     
   5.9700000000000003E-002     2.0720569615106683     
   6.0000000000000012E-002     2.3925021403221365     
   6.0300000000000006E-002     2.6271622741338660     
   6.0600000000000001E-002     2.7620006598787228     
   6.0900000000000010E-002     2.7891497417454616     
   6.1200000000000004E-002     2.7070883022319805     
   6.1500000000000013E-002     2.5207787161808426     
   6.1800000000000008E-002     2.2410859182096914     
   6.2100000000000002E-002     1.8835536480798254     
   6.2399999999999997E-002     1.4673795023525429     
   6.2700000000000006E-002     1.0136485592945021     
   6.3000000000000000E-002    0.54389561203826453     
   6.3300000000000009E-002     7.8820390846937260E-002
   6.3600000000000004E-002   -0.36336024570571535     
   6.3899999999999998E-002   -0.76712198348906568     
   6.4199999999999993E-002    -1.1208157040070361     
   6.4500000000000002E-002    -1.4165316636221164     
   6.4800000000000010E-002    -1.6497699066376512     
   6.5100000000000005E-002    -1.8197332817900360     
   6.5400000000000000E-002    -1.9279699588012136     
   6.5700000000000008E-002    -1.9784275845760249     
   6.5999999999999989E-002    -1.9764865017491644     
   6.6299999999999998E-002    -1.9282480671015705     
   6.6600000000000006E-002    -1.8406622061262610     
   6.6900000000000001E-002    -1.7204802992731416     
   6.7199999999999996E-002    -1.5745984268939353     
   6.7500000000000004E-002    -1.4099057219021560     
   6.7800000000000013E-002    -1.2329773522791001     
   6.8099999999999994E-002    -1.0506509171292322     
   6.8400000000000002E-002   -0.86952477497210978     
   6.8700000000000011E-002   -0.69620306853225600     
   6.8999999999999992E-002   -0.53705675424596677     
   6.9300000000000000E-002   -0.39778199907512324     
   6.9600000000000009E-002   -0.28324611546225675     
   6.9900000000000004E-002   -0.19676465416642763     
   7.0199999999999999E-002   -0.13971636089344486     
   7.0500000000000007E-002   -0.11099811124535242     
   7.0800000000000016E-002   -0.10676764555068230     
   7.1099999999999997E-002   -0.12013104637971050     
   7.1400000000000005E-002   -0.14154337720962351     
   7.1700000000000000E-002   -0.15911167225749523     
   7.1999999999999995E-002   -0.15934717975418966     
   7.2300000000000003E-002   -0.12866612232087471     
   7.2600000000000012E-002    -5.4217343296898202E-002
   7.2900000000000006E-002     7.4110890174824195E-002
   7.3200000000000001E-002    0.26248045194002279     
   7.3499999999999996E-002    0.51209145139619050     
   7.3800000000000004E-002    0.81767400318699934     
   7.4099999999999999E-002     1.1678931744683076     
   7.4400000000000008E-002     1.5449678546351890     
   7.4700000000000003E-002     1.9257944214968461     
   7.5000000000000011E-002     2.2837134293966699     
   7.5299999999999992E-002     2.5899789255918932     
   7.5600000000000001E-002     2.8168518660958597     
   7.5900000000000009E-002     2.9395397315935554     
   7.6200000000000004E-002     2.9386390849120119     
   7.6499999999999999E-002     2.8025376573280028     
   7.6800000000000007E-002     2.5281418910226847     
   7.7099999999999988E-002     2.1222377057630553     
   7.7399999999999997E-002     1.6009804939180512     
   7.7700000000000005E-002    0.98869415072231703     
   7.8000000000000014E-002    0.31670072532588467     
   7.8299999999999995E-002   -0.37959771502271700     
   7.8600000000000003E-002    -1.0630600802928107     
   7.8900000000000012E-002    -1.6974413309304701     
   7.9199999999999993E-002    -2.2506346123599528     
   7.9500000000000001E-002    -2.6960305907335567     
   7.9800000000000010E-002    -3.0150893015738660     
   8.0100000000000018E-002    -3.1977999663869383     
   8.0399999999999999E-002    -3.2427592899496318     
   8.0700000000000008E-002    -3.1575392546538410     
   8.1000000000000003E-002    -2.9564131100188007     
   8.1299999999999997E-002    -2.6596723063963879     
   8.1600000000000006E-002    -2.2913823209211301     
   8.1900000000000014E-002    -1.8769574545371057     
   8.2199999999999995E-002    -1.4419683702100912     
   8.2500000000000004E-002    -1.0093333761421128     
   8.2799999999999999E-002   -0.59857941174423246     
   8.3100000000000007E-002   -0.22457508095765633     
   8.3400000000000002E-002    0.10364216211470190     
   8.3700000000000011E-002    0.38210002416448474     
   8.4000000000000005E-002    0.61237584875313544     
   8.4300000000000000E-002    0.80072745108701326     
   8.4599999999999995E-002    0.95667485796835550     
   8.4900000000000003E-002     1.0923461555927503     
   8.5199999999999998E-002     1.2203551393467151     
   8.5500000000000007E-002     1.3526348883192298     
   8.5800000000000001E-002     1.4989108697384026     
   8.6100000000000010E-002     1.6649715541300907     
   8.6399999999999991E-002     1.8522123600070231     
   8.6699999999999999E-002     2.0562639191808714     
   8.7000000000000008E-002     2.2672069541843030     
   8.7300000000000003E-002     2.4700559172668051     
   8.7599999999999997E-002     2.6452278347118181     
   8.7900000000000006E-002     2.7706301674036666     
   8.8200000000000014E-002     2.8232652329806314     
   8.8499999999999995E-002     2.7815907108152231     
   8.8800000000000004E-002     2.6280202813770757     
   8.9100000000000013E-002     2.3508825673415998     
   8.9399999999999993E-002     1.9466049784215045     
   8.9700000000000002E-002     1.4206226665484891     
   9.0000000000000011E-002    0.78800882466221012     
   9.0299999999999991E-002     7.2968108867345283E-002
   9.0600000000000000E-002   -0.69267563367010787     
   9.0900000000000009E-002    -1.4712158572915097     
   9.1200000000000017E-002    -2.2222319831970978     
   9.1499999999999998E-002    -2.9054603893560156     
   9.1800000000000007E-002    -3.4839366404934822     
   9.2100000000000001E-002    -3.9269636649755313     
   9.2399999999999996E-002    -4.2124246690340073     
   9.2700000000000005E-002    -4.3283645321509425     
   9.3000000000000013E-002    -4.2735443878037529     
   9.3300000000000008E-002    -4.0570628392899550     
   9.3600000000000003E-002    -3.6972137203327264     
   9.3899999999999997E-002    -3.2193536396339368     
   9.4200000000000006E-002    -2.6535419966800191     
   9.4500000000000001E-002    -2.0316144003084560     
   9.4800000000000009E-002    -1.3848466041543972     
   9.5100000000000004E-002   -0.74147242010626258     
   9.5399999999999999E-002   -0.12497823343605230     
   9.5699999999999993E-002    0.44646092433897522     
   9.6000000000000002E-002    0.96093135380626649     
   9.6300000000000011E-002     1.4114306784945079     
   9.6600000000000005E-002     1.7953784377421798     
   9.6900000000000000E-002     2.1131344402667125     
   9.7200000000000009E-002     2.3657950006639084     
   9.7499999999999989E-002     2.5549886621963509     
   9.7799999999999998E-002     2.6803946986798621     
   9.8100000000000007E-002     2.7401132440306668     
   9.8400000000000015E-002     2.7306423133341298     
   9.8699999999999996E-002     2.6466940453324383     
   9.9000000000000005E-002     2.4835496332783293     
   9.9300000000000013E-002     2.2373845140395758     
   9.9599999999999994E-002     1.9074136924023435     
   9.9900000000000003E-002     1.4975964956786569     
  0.10020000000000001          1.0168663478084703     
  0.10049999999999999         0.48099202860686141     
  0.10080000000000000         -8.8545198576642115E-002
  0.10110000000000001        -0.66533644462264796     
  0.10140000000000000         -1.2188995453396920     
  0.10170000000000000         -1.7180343044861210     
  0.10200000000000001         -2.1322680563423475     
  0.10230000000000002         -2.4349314510689837     
  0.10260000000000000         -2.6059163321881158     
  0.10290000000000001         -2.6327183641145098     
  0.10320000000000000         -2.5129813953813596     
  0.10350000000000001         -2.2539249132778423     
  0.10380000000000000         -1.8720705603434453     
  0.10410000000000001         -1.3926464696900638     
  0.10440000000000001        -0.84643250098003975     
  0.10470000000000000        -0.26846730770987293     
  0.10500000000000000         0.30537800842636464     
  0.10530000000000000         0.84088386853215891     
  0.10560000000000000          1.3071881877344360     
  0.10590000000000001          1.6797471241491309     
  0.10620000000000000          1.9403998123372332     
  0.10650000000000001          2.0787349954233107     
  0.10679999999999999          2.0920434928784175     
  0.10710000000000000          1.9843661059833764     
  0.10740000000000001          1.7666218944115002     
  0.10770000000000000          1.4546897827600063     
  0.10800000000000000          1.0688557351485954     
  0.10830000000000001         0.63279870788475634     
  0.10859999999999999         0.17221575424388824     
  0.10890000000000000        -0.28558951365286589     
  0.10920000000000001        -0.71332198721500628     
  0.10950000000000001         -1.0842966496781772     
  0.10979999999999999         -1.3736599993599938     
  0.11009999999999999         -1.5599710667497462     
  0.11040000000000001         -1.6260825190402102     
  0.11070000000000001         -1.5610005582721058     
  0.11100000000000000         -1.3608192501115610     
  0.11130000000000000         -1.0298818129114444     
  0.11160000000000002        -0.58154303814764852     
  0.11190000000000001         -3.7768963868250793E-002
  0.11220000000000001         0.57086982556024068     
  0.11250000000000000          1.2071860359283151     
  0.11280000000000000          1.8291445099922612     
  0.11309999999999999          2.3923919856210603     
  0.11340000000000001          2.8539952688845744     
  0.11369999999999998          3.1747609118963283     
  0.11400000000000000          3.3229950896465965     
  0.11430000000000000          3.2770911024607443     
  0.11460000000000002          3.0272648267791169     
  0.11489999999999999          2.5776758128258876     
  0.11520000000000001          1.9455703643415774     
  0.11550000000000001          1.1615925466190760     
  0.11580000000000000         0.26802110150560154     
  0.11609999999999999        -0.68444614511629354     
  0.11640000000000002         -1.6386383456536899     
  0.11670000000000001         -2.5355799634624532     
  0.11700000000000001         -3.3178251723714993     
  0.11730000000000000         -3.9331743154930336     
  0.11760000000000000         -4.3391234414878426     
  0.11789999999999999         -4.5046640069299002     
  0.11820000000000001         -4.4138077445252861     
  0.11850000000000001         -4.0667654634121533     
  0.11880000000000000         -3.4798167869354586     
  0.11910000000000000         -2.6859351916699410     
  0.11940000000000002         -1.7317917144389696     
  0.11970000000000001        -0.67591155018432936     
  0.12000000000000001         0.41514483271053848     
  0.12030000000000000          1.4718550584660122     
  0.12060000000000000          2.4253063286215202     
  0.12089999999999999          3.2131376293317260     
  0.12119999999999999          3.7833065824984402     
  0.12150000000000001          4.0980565656247023     
  0.12180000000000001          4.1376219253171342     
  0.12210000000000000          3.9006702094963401     
  0.12239999999999999          3.4053469887239203     
  0.12270000000000002          2.6880133554507069     
  0.12300000000000001          1.7999270969192906     
  0.12330000000000001         0.80407806754617894     
  0.12360000000000000        -0.23021387674383220     
  0.12390000000000000         -1.2324595737344950     
  0.12419999999999999         -2.1361415587834394     
  0.12450000000000001         -2.8842605002723047     
  0.12480000000000001         -3.4330872294981845     
  0.12509999999999999         -3.7555190258406981     
  0.12540000000000001         -3.8425243396617219     
  0.12570000000000003         -3.7029195692779240     
  0.12600000000000000         -3.3622633770795289     
  0.12630000000000002         -2.8595412360159855     
  0.12659999999999999         -2.2432159286439912     
  0.12690000000000001         -1.5667175394829016     
  0.12719999999999998        -0.88346006230715446     
  0.12750000000000000        -0.24214967869159754     
  0.12780000000000002         0.31735029788219471     
  0.12809999999999999         0.76687624802715249     
  0.12840000000000001          1.0913187874033703     
  0.12869999999999998          1.2892501456110530     
  0.12900000000000000          1.3718005458130165     
  0.12930000000000003          1.3597754854300490     
  0.12959999999999999          1.2809378782818115     
  0.12990000000000002          1.1658366777811935     
  0.13019999999999998          1.0435939591044807     
  0.13050000000000000         0.93912505429478799     
  0.13080000000000003         0.86915064285364352     
  0.13109999999999999         0.84112268117963040     
  0.13140000000000002         0.85278388834945318     
  0.13169999999999998         0.89216623355936520     
  0.13200000000000001         0.94069497670762914     
  0.13229999999999997         0.97483338708149603     
  0.13260000000000000         0.97065130934304733     
  0.13290000000000002         0.90758082476783386     
  0.13319999999999999         0.77073018866281728     
  0.13350000000000001         0.55520947841811008     
  0.13380000000000003         0.26635454321338692     
  0.13410000000000000         -7.9533343684523139E-002
  0.13440000000000002        -0.45610595364707329     
  0.13469999999999999        -0.83039720870104794     
  0.13500000000000001         -1.1649890804997760     
  0.13529999999999998         -1.4234388943931862     
  0.13560000000000000         -1.5740602373752459     
  0.13590000000000002         -1.5935820866050321     
  0.13619999999999999         -1.4711757864912443     
  0.13650000000000001         -1.2090248766829745     
  0.13680000000000003        -0.82359660053038297     
  0.13710000000000000        -0.34391570405594862     
  0.13740000000000002         0.19135779375050177     
  0.13769999999999999         0.73711355510821974     
  0.13800000000000001          1.2469729817031334     
  0.13829999999999998          1.6776233583269899     
  0.13860000000000000          1.9932402225648573     
  0.13890000000000002          2.1688940827476983     
  0.13919999999999999          2.1927793215608560     
  0.13950000000000001          2.0668318666761323     
  0.13979999999999998          1.8058717697163686     
  0.14010000000000000          1.4359127508170957     
  0.14040000000000002         0.99063888708656123     
  0.14069999999999999         0.50801396133112675     
  0.14100000000000001          2.6419738907921264E-002
  0.14130000000000004        -0.41899093015733868     
  0.14160000000000000        -0.79876395542000722     
  0.14189999999999997         -1.0917969854783109     
  0.14219999999999999         -1.2854533866174656     
  0.14250000000000002         -1.3756001047513706     
  0.14279999999999998         -1.3659297575395897     
  0.14310000000000000         -1.2656674322897388     
  0.14339999999999997         -1.0884630671957858     
  0.14369999999999999        -0.84981265493108182     
  0.14400000000000002        -0.56559827377986238     
  0.14429999999999998        -0.25115479478819314     
  0.14460000000000001          8.0383448992261464E-002
  0.14490000000000003         0.41733265305474276     
  0.14520000000000000         0.74963794464369826     
  0.14550000000000002          1.0687182329858080     
  0.14579999999999999          1.3660873497783950     
  0.14610000000000001          1.6338954164321926     
  0.14640000000000003          1.8637416400565243     
  0.14670000000000000          2.0470161503923734     
  0.14699999999999996          2.1759448058156607     
  0.14729999999999999          2.2428706277632457     
  0.14760000000000001          2.2427478997383901     
  0.14789999999999998          2.1729136650015661     
  0.14820000000000000          2.0339242187234561     