  -1.4999999999999999E-002     0.0000000000000000     
  -1.4700000000000000E-002     0.0000000000000000     
  -1.4400000000000000E-002     0.0000000000000000     
  -1.4100000000000000E-002     0.0000000000000000     
  -1.3800000000000000E-002     0.0000000000000000     
  -1.3500000000000000E-002     0.0000000000000000     
  -1.3200000000000000E-002     0.0000000000000000     
  -1.2899999999999998E-002     0.0000000000000000     
  -1.2600000000000000E-002     0.0000000000000000     
  -1.2299999999999998E-002     0.0000000000000000     
  -1.2000000000000000E-002     0.0000000000000000     
  -1.1699999999999999E-002     0.0000000000000000     
  -1.1399999999999999E-002     0.0000000000000000     
  -1.1099999999999999E-002     0.0000000000000000     
  -1.0799999999999999E-002     0.0000000000000000     
  -1.0499999999999999E-002     0.0000000000000000     
  -1.0199999999999999E-002     0.0000000000000000     
  -9.8999999999999991E-003     0.0000000000000000     
  -9.5999999999999992E-003     0.0000000000000000     
  -9.2999999999999992E-003     0.0000000000000000     
  -8.9999999999999993E-003     0.0000000000000000     
  -8.6999999999999994E-003     0.0000000000000000     
  -8.3999999999999995E-003     0.0000000000000000     
  -8.0999999999999996E-003     0.0000000000000000     
  -7.7999999999999988E-003     0.0000000000000000     
  -7.4999999999999997E-003     0.0000000000000000     
  -7.1999999999999998E-003     0.0000000000000000     
  -6.8999999999999981E-003     0.0000000000000000     
  -6.5999999999999982E-003     0.0000000000000000     
  -6.3000000000000000E-003     0.0000000000000000     
  -6.0000000000000001E-003     0.0000000000000000     
  -5.6999999999999985E-003     0.0000000000000000     
  -5.3999999999999986E-003     0.0000000000000000     
  -5.1000000000000004E-003     0.0000000000000000     
  -4.7999999999999987E-003     0.0000000000000000     
  -4.5000000000000005E-003     0.0000000000000000     
  -4.1999999999999989E-003     0.0000000000000000     
  -3.8999999999999990E-003     0.0000000000000000     
  -3.5999999999999990E-003     0.0000000000000000     
  -3.2999999999999991E-003     0.0000000000000000     
  -2.9999999999999992E-003     0.0000000000000000     
  -2.6999999999999993E-003     0.0000000000000000     
  -2.3999999999999994E-003     0.0000000000000000     
  -2.0999999999999977E-003     0.0000000000000000     
  -1.7999999999999995E-003     0.0000000000000000     
  -1.4999999999999979E-003     0.0000000000000000     
  -1.1999999999999997E-003     0.0000000000000000     
  -8.9999999999999976E-004     0.0000000000000000     
  -5.9999999999999810E-004     0.0000000000000000     
  -2.9999999999999992E-004     0.0000000000000000     
   0.0000000000000000          0.0000000000000000     
   3.0000000000000165E-004     0.0000000000000000     
   5.9999999999999984E-004     0.0000000000000000     
   9.0000000000000149E-004     0.0000000000000000     
   1.2000000000000031E-003     0.0000000000000000     
   1.5000000000000013E-003     0.0000000000000000     
   1.8000000000000030E-003     0.0000000000000000     
   2.1000000000000012E-003     0.0000000000000000     
   2.3999999999999994E-003     0.0000000000000000     
   2.7000000000000010E-003     0.0000000000000000     
   2.9999999999999992E-003     0.0000000000000000     
   3.3000000000000008E-003     0.0000000000000000     
   3.6000000000000025E-003     0.0000000000000000     
   3.9000000000000007E-003     0.0000000000000000     
   4.2000000000000023E-003     0.0000000000000000     
   4.5000000000000005E-003     0.0000000000000000     
   4.7999999999999987E-003     0.0000000000000000     
   5.1000000000000004E-003     0.0000000000000000     
   5.4000000000000020E-003     0.0000000000000000     
   5.7000000000000037E-003     0.0000000000000000     
   5.9999999999999984E-003     0.0000000000000000     
   6.3000000000000000E-003     0.0000000000000000     
   6.6000000000000017E-003     0.0000000000000000     
   6.9000000000000034E-003     0.0000000000000000     
   7.2000000000000015E-003     0.0000000000000000     
   7.5000000000000032E-003     0.0000000000000000     
   7.8000000000000014E-003     0.0000000000000000     
   8.0999999999999996E-003     0.0000000000000000     
   8.4000000000000012E-003     0.0000000000000000     
   8.7000000000000029E-003     0.0000000000000000     
   9.0000000000000011E-003     0.0000000000000000     
   9.2999999999999992E-003     0.0000000000000000     
   9.6000000000000009E-003     0.0000000000000000     
   9.8999999999999991E-003     0.0000000000000000     
   1.0200000000000001E-002     0.0000000000000000     
   1.0500000000000002E-002     8.9060259581857519E-038
   1.0800000000000004E-002     1.6045971381537546E-036
   1.1099999999999999E-002    -5.9039978622272789E-035
   1.1400000000000000E-002     3.0880690307878382E-034
   1.1700000000000002E-002     3.1638309005431618E-033
   1.2000000000000004E-002    -4.2859215949678639E-032
   1.2300000000000002E-002     1.1655404543445919E-031
   1.2600000000000000E-002     1.2741214535622156E-030
   1.2900000000000002E-002    -1.1515025763117970E-029
   1.3200000000000000E-002     1.7372677382303216E-029
   1.3500000000000002E-002     2.4752609525032864E-028
   1.3800000000000003E-002    -1.6711834552721977E-027
   1.4100000000000001E-002     2.5334228523067705E-027
   1.4400000000000000E-002     2.1596668456114529E-026
   1.4700000000000001E-002    -1.4720080470245791E-025
   1.4999999999999999E-002     3.2597255630512113E-025
   1.5300000000000001E-002     6.8833023073056691E-025
   1.5600000000000003E-002    -7.2821696164365975E-024
   1.5899999999999997E-002     2.2539850913954937E-023
   1.6199999999999999E-002    -1.3778856974567412E-023
   1.6500000000000001E-002    -1.6504163205998095E-022
   1.6800000000000002E-002     7.5079079982831116E-022
   1.7100000000000004E-002    -1.4335145713267163E-021
   1.7400000000000006E-002    -4.6261408249433451E-022
   1.7700000000000000E-002     1.1910065009815771E-020
   1.8000000000000002E-002    -4.4067579742382565E-020
   1.8300000000000004E-002     1.3380181446936197E-019
   1.8600000000000005E-002    -5.7474447771560190E-019
   1.8900000000000000E-002     3.2139227907428619E-018
   1.9200000000000002E-002    -1.7009015556549340E-017
   1.9500000000000003E-002     7.9168759924948404E-017
   1.9799999999999998E-002    -3.3331209735190064E-016
   2.0100000000000000E-002     1.3243744261044264E-015
   2.0400000000000001E-002    -5.1352108981579923E-015
   2.0700000000000003E-002     1.9689203963471456E-014
   2.0999999999999998E-002    -7.3777943835498324E-014
   2.1299999999999999E-002     2.6129304818107117E-013
   2.1600000000000001E-002    -8.3034193583909341E-013
   2.1900000000000003E-002     2.1755658105394170E-012
   2.2200000000000004E-002    -3.7830888658681837E-012
   2.2500000000000006E-002    -9.5318808125104266E-013
   2.2800000000000001E-002     3.7665304813752331E-011
   2.3100000000000002E-002    -1.5532270010230422E-010
   2.3400000000000004E-002     3.2800627581592727E-010
   2.3699999999999999E-002    -1.0206546859522039E-010
   2.4000000000000000E-002    -1.6345017239898485E-009
   2.4300000000000002E-002     4.6569222000112016E-009
   2.4599999999999997E-002    -1.6143145077276732E-009
   2.4900000000000005E-002    -1.8707515746108838E-008
   2.5200000000000000E-002     3.1632351405222552E-008
   2.5499999999999995E-002     4.3585626078243872E-008
   2.5800000000000003E-002    -1.4752949442055330E-007
   2.6099999999999998E-002    -1.2094368808191238E-007
   2.6400000000000007E-002     4.4890246573530083E-007
   2.6700000000000002E-002     4.5115319756895072E-007
   2.6999999999999996E-002    -1.0388568040044020E-006
   2.7300000000000005E-002    -1.6726133330660168E-006
   2.7600000000000000E-002     2.1366323120496314E-006
   2.7900000000000008E-002     9.0200301243409744E-006
   2.8200000000000003E-002     1.3386290815737374E-005
   2.8499999999999998E-002     1.5202196037865921E-005
   2.8800000000000006E-002     2.3211451851209964E-005
   2.9100000000000001E-002     4.4123854102072891E-005
   2.9400000000000003E-002     7.4815896772801845E-005
   2.9700000000000004E-002     1.1189841691702351E-004
   3.0000000000000006E-002     1.6501105659035530E-004
   3.0300000000000001E-002     2.5250557362611371E-004
   3.0600000000000002E-002     3.8657940272532505E-004
   3.0900000000000004E-002     5.7411588909039510E-004
   3.1199999999999999E-002     8.3381634551126307E-004
   3.1500000000000007E-002     1.2021105213057340E-003
   3.1800000000000002E-002     1.7191958492145734E-003
   3.2099999999999997E-002     2.4207928637147574E-003
   3.2400000000000005E-002     3.3513419959504687E-003
   3.2700000000000000E-002     4.5763021873593546E-003
   3.3000000000000002E-002     6.1707999422813409E-003
   3.3300000000000003E-002     8.2018778118997382E-003
   3.3599999999999998E-002     1.0731474699282095E-002
   3.3900000000000000E-002     1.3827406663550257E-002
   3.4200000000000001E-002     1.7552650185122642E-002
   3.4500000000000003E-002     2.1937507305586301E-002
   3.4799999999999998E-002     2.6966650872217057E-002
   3.5099999999999999E-002     3.2583280453017727E-002
   3.5400000000000001E-002     3.8683905227626658E-002
   3.5699999999999996E-002     4.5091612533077141E-002
   3.6000000000000004E-002     5.1538186225301708E-002
   3.6299999999999999E-002     5.7673013416966068E-002
   3.6600000000000008E-002     6.3080628474521561E-002
   3.6900000000000002E-002     6.7285496544028156E-002
   3.7199999999999997E-002     6.9760546484377350E-002
   3.7500000000000006E-002     6.9959224351044735E-002
   3.7800000000000000E-002     6.7377201693664457E-002
   3.8100000000000009E-002     6.1597628182941344E-002
   3.8400000000000004E-002     5.2324908498178502E-002
   3.8699999999999998E-002     3.9434270815859485E-002
   3.9000000000000007E-002     2.3025964668270338E-002
   3.9300000000000002E-002     3.4657356574639905E-003
   3.9600000000000003E-002    -1.8617000345044224E-002
   3.9900000000000005E-002    -4.2358802000855844E-002
   4.0200000000000000E-002    -6.6671144010572281E-002
   4.0500000000000001E-002    -9.0296658300654364E-002
   4.0800000000000003E-002   -0.11190770809361172     
   4.1100000000000005E-002   -0.13021111800636120     
   4.1399999999999999E-002   -0.14404830825195436     
   4.1700000000000008E-002   -0.15249684131664853     
   4.2000000000000003E-002   -0.15496337961102924     
   4.2299999999999997E-002   -0.15126150928534887     
   4.2600000000000006E-002   -0.14166044009420098     
   4.2900000000000001E-002   -0.12688727694922353     
   4.3200000000000002E-002   -0.10808800813781883     
   4.3500000000000004E-002    -8.6738247770496990E-002
   4.3799999999999999E-002    -6.4564832569962594E-002
   4.4100000000000000E-002    -4.3432022422985161E-002
   4.4400000000000002E-002    -2.5174828605020849E-002
   4.4700000000000004E-002    -1.1447089180937675E-002
   4.4999999999999998E-002    -3.6070573178255544E-003
   4.5300000000000000E-002    -2.6292034136396331E-003
   4.5600000000000002E-002    -8.9992817831939242E-003
   4.5899999999999996E-002    -2.2671624610301422E-002
   4.6200000000000005E-002    -4.3038769273815114E-002
   4.6500000000000000E-002    -6.8971513930605743E-002
   4.6799999999999994E-002    -9.8926318750521602E-002
   4.7100000000000003E-002   -0.13099911064696013     
   4.7399999999999998E-002   -0.16301092500797143     
   4.7700000000000006E-002   -0.19265451363133579     
   4.8000000000000001E-002   -0.21766883926257918     
   4.8300000000000010E-002   -0.23599276856651574     
   4.8600000000000004E-002   -0.24583594336400694     
   4.8899999999999999E-002   -0.24579699785916898     
   4.9200000000000008E-002   -0.23500054374816592     
   4.9500000000000002E-002   -0.21317020399018194     
   4.9800000000000011E-002   -0.18062233285678975     
   5.0100000000000006E-002   -0.13822575142964588     
   5.0400000000000000E-002    -8.7379908344321411E-002
   5.0700000000000009E-002    -2.9986751252297106E-002
   5.1000000000000004E-002     3.1739810779532196E-002
   5.1299999999999998E-002     9.5434254618041781E-002
   5.1600000000000007E-002    0.15866083843335321     
   5.1900000000000002E-002    0.21904473441777572     
   5.2200000000000010E-002    0.27446591417987420     
   5.2500000000000005E-002    0.32317749539365259     
   5.2800000000000000E-002    0.36382824478914344     
   5.3099999999999994E-002    0.39550321600757776     
   5.3400000000000003E-002    0.41776547373957662     
   5.3699999999999998E-002    0.43062698801044519     
   5.4000000000000006E-002    0.43446395171501528     
   5.4300000000000001E-002    0.42996549605107148     
   5.4599999999999996E-002    0.41801153442388106     
   5.4900000000000004E-002    0.39958864610842149     
   5.5199999999999999E-002    0.37573462799231194     
   5.5499999999999994E-002    0.34744056986838956     
   5.5800000000000002E-002    0.31559717271974819     
   5.6099999999999997E-002    0.28092886647363180     
   5.6400000000000006E-002    0.24400694447912308     
   5.6700000000000000E-002    0.20532701131422737     
   5.6999999999999995E-002    0.16528417784390292     
   5.7300000000000004E-002    0.12417719619297740     
   5.7599999999999998E-002     8.2325783915531137E-002
   5.7900000000000007E-002     4.0200415067226158E-002
   5.8200000000000002E-002    -1.5840717877375621E-003
   5.8499999999999996E-002    -4.2252632332355544E-002
   5.8800000000000005E-002    -8.0820937045900099E-002
   5.9100000000000000E-002   -0.11604646631209103     
   5.9400000000000008E-002   -0.14648354957788978     
   5.9700000000000003E-002   -0.17064952488996266     
   6.0000000000000012E-002   -0.18712712607455018     
   6.0300000000000006E-002   -0.19462822351889031     
   6.0600000000000001E-002   -0.19217889239583208     
   6.0900000000000010E-002   -0.17928478897507283     
   6.1200000000000004E-002   -0.15611971503329958     
   6.1500000000000013E-002   -0.12356639278126069     
   6.1800000000000008E-002    -8.3179845742801461E-002
   6.2100000000000002E-002    -3.7216068843991534E-002
   6.2399999999999997E-002     1.1417686103905367E-002
   6.2700000000000006E-002     5.9353239958803927E-002
   6.3000000000000000E-002    0.10306732484353187     
   6.3300000000000009E-002    0.13912411544327785     
   6.3600000000000004E-002    0.16435789562449266     
   6.3899999999999998E-002    0.17614074570899962     
   6.4199999999999993E-002    0.17266597704690589     
   6.4500000000000002E-002    0.15312910464751983     
   6.4800000000000010E-002    0.11777771543336479     
   6.5100000000000005E-002     6.7940503749132075E-002
   6.5400000000000000E-002     6.0118144057902528E-003
   6.5700000000000008E-002    -6.4724551449468648E-002
   6.5999999999999989E-002   -0.14023730803704648     
   6.6299999999999998E-002   -0.21595933610873441     
   6.6600000000000006E-002   -0.28710547993161306     
   6.6900000000000001E-002   -0.34898564908057850     
   6.7199999999999996E-002   -0.39718707960875044     
   6.7500000000000004E-002   -0.42790405308262613     
   6.7800000000000013E-002   -0.43822575024908339     
   6.8099999999999994E-002   -0.42636151857811733     
   6.8400000000000002E-002   -0.39170980035743952     
   6.8700000000000011E-002   -0.33495580465117314     
   6.8999999999999992E-002   -0.25819601904931488     
   6.9300000000000000E-002   -0.16484583853615309     
   6.9600000000000009E-002    -5.9352546889100299E-002
   6.9900000000000004E-002     5.2934438410308093E-002
   7.0199999999999999E-002    0.16609651588099439     
   7.0500000000000007E-002    0.27404057811857996     
   7.0800000000000016E-002    0.37084755119321855     
   7.1099999999999997E-002    0.45120311121658396     
   7.1400000000000005E-002    0.51072176141451386     
   7.1700000000000000E-002    0.54625321804678961     
   7.1999999999999995E-002    0.55601679303519447     
   7.2300000000000003E-002    0.53965209443271789     
   7.2600000000000012E-002    0.49819575651607373     
   7.2900000000000006E-002    0.43386107845010713     
   7.3200000000000001E-002    0.34977413236424759     
   7.3499999999999996E-002    0.24976254195657077     
   7.3800000000000004E-002    0.13793532749284720     
   7.4099999999999999E-002     1.8370134815450856E-002
   7.4400000000000008E-002   -0.10515265505941662     
   7.4700000000000003E-002   -0.22924330153624517     
   7.5000000000000011E-002   -0.35097009534269397     
   7.5299999999999992E-002   -0.46790324295470143     
   7.5600000000000001E-002   -0.57800293777165557     
   7.5900000000000009E-002   -0.67943752600151441     
   7.6200000000000004E-002   -0.77046964226246573     
   7.6499999999999999E-002   -0.84927678805744478     
   7.6800000000000007E-002   -0.91394020516384344     
   7.7099999999999988E-002   -0.96241715414721796     
   7.7399999999999997E-002   -0.99260541017741843     
   7.7700000000000005E-002    -1.0025443544879344     
   7.8000000000000014E-002   -0.99054014885433617     
   7.8299999999999995E-002   -0.95544633242490562     
   7.8600000000000003E-002   -0.89688639463333786     
   7.8900000000000012E-002   -0.81540373154933476     
   7.9199999999999993E-002   -0.71246860168415793     
   7.9500000000000001E-002   -0.59048488074092731     
   7.9800000000000010E-002   -0.45273037800636828     
   8.0100000000000018E-002   -0.30315780060587016     
   8.0399999999999999E-002   -0.14610166778213562     
   8.0700000000000008E-002     1.3955270572902245E-002
   8.1000000000000003E-002    0.17268176328617574     
   8.1299999999999997E-002    0.32595994000357198     
   8.1600000000000006E-002    0.47009579546932478     
   8.1900000000000014E-002    0.60190398262274591     
   8.2199999999999995E-002    0.71868335386988136     
   8.2500000000000004E-002    0.81817793495546809     
   8.2799999999999999E-002    0.89838261854914592     
   8.3100000000000007E-002    0.95767065480962899     
   8.3400000000000002E-002    0.99478206355438559     
   8.3700000000000011E-002     1.0087479065515623     
   8.4000000000000005E-002    0.99908271059702969     
   8.4300000000000000E-002    0.96596849146082775     
   8.4599999999999995E-002    0.91036579142319951     
   8.4900000000000003E-002    0.83421370473540435     
   8.5199999999999998E-002    0.74046606213416055     
   8.5500000000000007E-002    0.63313976066432431     
   8.5800000000000001E-002    0.51716841224357246     
   8.6100000000000010E-002    0.39808835993651570     
   8.6399999999999991E-002    0.28173001386689123     
   8.6699999999999999E-002    0.17368699467475146     
   8.7000000000000008E-002     7.8899710669263490E-002
   8.7300000000000003E-002     1.2453992331128427E-003
   8.7599999999999997E-002    -5.7016910012755773E-002
   8.7900000000000006E-002    -9.5399079747770510E-002
   8.8200000000000014E-002   -0.11517442265500577     
   8.8499999999999995E-002   -0.11929133020493721     
   8.8800000000000004E-002   -0.11206526661958049     
   8.9100000000000013E-002    -9.8758998904985518E-002
   8.9399999999999993E-002    -8.4930001910620057E-002
   8.9700000000000002E-002    -7.5725565501644887E-002
   9.0000000000000011E-002    -7.5397166961232553E-002
   9.0299999999999991E-002    -8.6812280748974846E-002
   9.0600000000000000E-002   -0.11098986260899846     
   9.0900000000000009E-002   -0.14693774895153577     
   9.1200000000000017E-002   -0.19174646590217392     
   9.1499999999999998E-002   -0.24081401842993699     
   9.1800000000000007E-002   -0.28838682808838634     
   9.2100000000000001E-002   -0.32803416362810900     
   9.2399999999999996E-002   -0.35319622746465740     
   9.2700000000000005E-002   -0.35805109958978321     
   9.3000000000000013E-002   -0.33814892084971504     
   9.3300000000000008E-002   -0.29080545927620172     
   9.3600000000000003E-002   -0.21546550564340805     
   9.3899999999999997E-002   -0.11398045811991908     
   9.4200000000000006E-002     9.3812206715846447E-003
   9.4500000000000001E-002    0.14824267046018602     
   9.4800000000000009E-002    0.29454056774539117     
   9.5100000000000004E-002    0.43880711965383856     
   9.5399999999999999E-002    0.57094660906292916     
   9.5699999999999993E-002    0.68091309354801410     
   9.6000000000000002E-002    0.75928275022099001     
   9.6300000000000011E-002    0.79804097401503427     
   9.6600000000000005E-002    0.79112655744655669     
   9.6900000000000000E-002    0.73475124876494036     
   9.7200000000000009E-002    0.62791834277582481     
   9.7499999999999989E-002    0.47268351605274894     
   9.7799999999999998E-002    0.27406555019981482     
   9.8100000000000007E-002     3.9878094320363433E-002
   9.8400000000000015E-002   -0.21965511631934165     
   9.8699999999999996E-002   -0.49214713799689225     
   9.9000000000000005E-002   -0.76381385786906186     
   9.9300000000000013E-002    -1.0205048845334268     
   9.9599999999999994E-002    -1.2482109971095916     
   9.9900000000000003E-002    -1.4339806481885304     
  0.10020000000000001         -1.5667833681852272     
  0.10049999999999999         -1.6381834758272547     
  0.10080000000000000         -1.6428888754274880     
  0.10110000000000001         -1.5789394354830577     
  0.10140000000000000         -1.4478824719257375     
  0.10170000000000000         -1.2546770715245543     
  0.10200000000000001         -1.0072304197322417     
  0.10230000000000002        -0.71599519256863076     
  0.10260000000000000        -0.39315349599374194     
  0.10290000000000001         -5.1747317035752083E-002
  0.10320000000000000         0.29480160420634594     
  0.10350000000000001         0.63341798501487379     
  0.10380000000000000         0.95210292901757754     
  0.10410000000000001          1.2404368766777765     
  0.10440000000000001          1.4898409671935653     
  0.10470000000000000          1.6936421910795900     
  0.10500000000000000          1.8470563784533667     
  0.10530000000000000          1.9472996155649938     
  0.10560000000000000          1.9932394972549190     
  0.10590000000000001          1.9851357291991434     
  0.10620000000000000          1.9244369852804866     
  0.10650000000000001          1.8134611754847612     
  0.10679999999999999          1.6552831154725993     
  0.10710000000000000          1.4535934384447984     
  0.10740000000000001          1.2124261332584823     
  0.10770000000000000         0.93637637730691026     
  0.10800000000000000         0.63053493213879008     
  0.10830000000000001         0.30046921701244678     
  0.10859999999999999         -4.7497493187790063E-002
  0.10890000000000000        -0.40644594105637788     
  0.10920000000000001        -0.76870839727738627     
  0.10950000000000001         -1.1257528946882474     
  0.10979999999999999         -1.4685163661401859     
  0.11009999999999999         -1.7873709534032969     
  0.11040000000000001         -2.0723635172588359     
  0.11070000000000001         -2.3136500543820304     
  0.11100000000000000         -2.5014916514976164     
  0.11130000000000000         -2.6268924815964994     
  0.11160000000000002         -2.6820797162666850     
  0.11190000000000001         -2.6607779703540047     
  0.11220000000000001         -2.5585430612421902     
  0.11250000000000000         -2.3732897887891227     
  0.11280000000000000         -2.1056349592991950     
  0.11309999999999999         -1.7593353247575365     
  0.11340000000000001         -1.3412824177402456     
  0.11369999999999998        -0.86153540466309408     
  0.11400000000000000        -0.33368349340064007     
  0.11430000000000000         0.22559603978759313     
  0.11460000000000002         0.79696765374951140     
  0.11489999999999999          1.3590650604847703     
  0.11520000000000001          1.8893603821777702     
  0.11550000000000001          2.3647354868574908     
  0.11580000000000000          2.7632150281702650     
  0.11609999999999999          3.0651668079429299     
  0.11640000000000002          3.2539656026233246     
  0.11670000000000001          3.3176400106456754     
  0.11700000000000001          3.2496708468584075     
  0.11730000000000000          3.0496103620777575     
  0.11760000000000000          2.7232779886322618     
  0.11789999999999999          2.2826181790173621     
  0.11820000000000001          1.7455468091656883     
  0.11850000000000001          1.1347708561155372     
  0.11880000000000000         0.47657884827607333     
  0.11910000000000000        -0.20020292649633120     
  0.11940000000000002        -0.86584234296714335     
  0.11970000000000001         -1.4913266065692650     
  0.12000000000000001         -2.0496287655441563     
  0.12030000000000000         -2.5169362563974147     
  0.12060000000000000         -2.8738358708340002     
  0.12089999999999999         -3.1060231191160881     
  0.12119999999999999         -3.2046197359806996     
  0.12150000000000001         -3.1666310746589801     
  0.12180000000000001         -2.9947862468827964     
  0.12210000000000000         -2.6973608925203649     
  0.12239999999999999         -2.2877089197707789     
  0.12270000000000002         -1.7835521194635575     
  0.12300000000000001         -1.2063255384327078     
  0.12330000000000001        -0.58025529632806538     
  0.12360000000000000          6.8491627563503243E-002
  0.12390000000000000         0.71285844690765465     
  0.12419999999999999          1.3261923471580310     
  0.12450000000000001          1.8831139459115960     
  0.12480000000000001          2.3606327654491324     
  0.12509999999999999          2.7391228045234044     
  0.12540000000000001          3.0032887886307122     
  0.12570000000000003          3.1430987975573146     
  0.12600000000000000          3.1538198909344146     
  0.12630000000000002          3.0364672945379709     
  0.12659999999999999          2.7979714261232829     
  0.12690000000000001          2.4504014285254385     
  0.12719999999999998          2.0103658277701513     
  0.12750000000000000          1.4982863993345887     
  0.12780000000000002         0.93742990822436312     
  0.12809999999999999         0.35244530298305143     
  0.12840000000000001        -0.23216691874602802     
  0.12869999999999998        -0.79255584653320987     
  0.12900000000000000         -1.3064947155672542     
  0.12930000000000003         -1.7548782703183541     
  0.12959999999999999         -2.1222227722776807     
  0.12990000000000002         -2.3967461959365792     
  0.13019999999999998         -2.5708137311199408     
  0.13050000000000000         -2.6413729854371155     
  0.13080000000000003         -2.6097736988694038     
  0.13109999999999999         -2.4814930704149845     
  0.13140000000000002         -2.2659104499926457     
  0.13169999999999998         -1.9761447912725458     
  0.13200000000000001         -1.6285842714968979     
  0.13229999999999997         -1.2416616036512806     
  0.13260000000000000        -0.83517317169710381     
  0.13290000000000002        -0.42937237361735114     
  0.13319999999999999         -4.3770979007340838E-002
  0.13350000000000001         0.30418532245788832     
  0.13380000000000003         0.60072729144466397     
  0.13410000000000000         0.83638159214773644     
  0.13440000000000002          1.0063887877403097     
  0.13469999999999999          1.1114276079571610     
  0.13500000000000001          1.1573298480484198     
  0.13529999999999998          1.1543183371203156     
  0.13560000000000000          1.1157524808258543     
  0.13590000000000002          1.0564319784106431     
  0.13619999999999999         0.99120915784858710     
  0.13650000000000001         0.93310038941247342     
  0.13680000000000003         0.89147020925181053     
  0.13710000000000000         0.87113127964246573     
  0.13740000000000002         0.87188960257060089     
  0.13769999999999999         0.88825313233016345     
  0.13800000000000001         0.91016621368419948     
  0.13829999999999998         0.92430106199151396     
  0.13860000000000000         0.91560326136389136     
  0.13890000000000002         0.86917674998044703     
  0.13919999999999999         0.77213018177365100     
  0.13950000000000001         0.61555374944904884     
  0.13979999999999998         0.39577135275813369     
  0.14010000000000000         0.11498264759644083     
  0.14040000000000002        -0.21798125988310879     
  0.14069999999999999        -0.58831786630731608     
  0.14100000000000001        -0.97629939349082839     
  0.14130000000000004         -1.3581809851246796     
  0.14160000000000000         -1.7083639185768327     
  0.14189999999999997         -2.0015065868965110     
  0.14219999999999999         -2.2143772562289143     
  0.14250000000000002         -2.3280220214256246     
  0.14279999999999998         -2.3290732124171853     
  0.14310000000000000         -2.2112328766148295     
  0.14339999999999997         -1.9761537118892676     
  0.14369999999999999         -1.6332379665769992     
  0.14400000000000002         -1.1991333013996126     
  0.14429999999999998        -0.69683638553066629     
  0.14460000000000001        -0.15408007563064285     
  0.14490000000000003         0.39874863395306193     
  0.14520000000000000         0.93095600442805448     
  0.14550000000000002          1.4133129775819793     
  0.14579999999999999          1.8198951963188996     
  0.14610000000000001          2.1305654657389752     
  0.14640000000000003          2.3319115915446247     
  0.14670000000000000          2.4171133758593726     
  0.14699999999999996          2.3866900427675404     
  0.14729999999999999          2.2481679579867091     
  0.14760000000000001          2.0145331302558347     
  0.14789999999999998          1.7032029414163077     
  0.14820000000000000          1.3343592826971502     