  -1.4999999999999999E-002     0.0000000000000000     
  -1.4700000000000000E-002     0.0000000000000000     
  -1.4400000000000000E-002     0.0000000000000000     
  -1.4100000000000000E-002     0.0000000000000000     
  -1.3800000000000000E-002     0.0000000000000000     
  -1.3500000000000000E-002     0.0000000000000000     
  -1.3200000000000000E-002     0.0000000000000000     
  -1.2899999999999998E-002     0.0000000000000000     
  -1.2600000000000000E-002     0.0000000000000000     
  -1.2299999999999998E-002     0.0000000000000000     
  -1.2000000000000000E-002     0.0000000000000000     
  -1.1699999999999999E-002     0.0000000000000000     
  -1.1399999999999999E-002     0.0000000000000000     
  -1.1099999999999999E-002     0.0000000000000000     
  -1.0799999999999999E-002     0.0000000000000000     
  -1.0499999999999999E-002     0.0000000000000000     
  -1.0199999999999999E-002     0.0000000000000000     
  -9.8999999999999991E-003     0.0000000000000000     
  -9.5999999999999992E-003     0.0000000000000000     
  -9.2999999999999992E-003     6.4685478541544313E-039
  -8.9999999999999993E-003    -1.9034756292716587E-037
  -8.6999999999999994E-003    -3.9484100391869273E-037
  -8.3999999999999995E-003     2.0202183032482921E-035
  -8.0999999999999996E-003    -1.6951349700609691E-034
  -7.7999999999999988E-003     3.6868018536191530E-034
  -7.4999999999999997E-003     1.2259614820507285E-034
  -7.1999999999999998E-003    -3.7373298443093804E-033
  -6.8999999999999981E-003     1.1342644636919022E-032
  -6.5999999999999982E-003    -1.3419642576289253E-032
  -6.3000000000000000E-003    -6.3385991543934501E-032
  -6.0000000000000001E-003     9.0011829131147658E-031
  -5.6999999999999985E-003    -8.8359849486329897E-030
  -5.3999999999999986E-003     7.2827584790640771E-029
  -5.1000000000000004E-003    -4.8846123021112916E-028
  -4.7999999999999987E-003     2.6163560957399682E-027
  -4.5000000000000005E-003    -1.1108459538909248E-026
  -4.1999999999999989E-003     3.7226429023198270E-026
  -3.8999999999999990E-003    -9.8171967547349439E-026
  -3.5999999999999990E-003     2.0477825571588487E-025
  -3.2999999999999991E-003    -3.5509385982875735E-025
  -2.9999999999999992E-003     6.2726356164356875E-025
  -2.6999999999999993E-003    -1.5442046181831343E-024
  -2.3999999999999994E-003     4.8276050281239694E-024
  -2.0999999999999977E-003    -1.4372861611094613E-023
  -1.7999999999999995E-003     3.7071343039509741E-023
  -1.4999999999999979E-003    -8.4316120625509444E-023
  -1.1999999999999997E-003     1.7955111229068154E-022
  -8.9999999999999976E-004    -3.8358924385482884E-022
  -5.9999999999999810E-004     8.4712172004704785E-022
  -2.9999999999999992E-004    -1.8683410153446366E-021
   0.0000000000000000          3.8481362210882572E-021
   3.0000000000000165E-004    -6.8838485229977285E-021
   5.9999999999999984E-004     9.5750107937296927E-021
   9.0000000000000149E-004    -6.6157853985565968E-021
   1.2000000000000031E-003    -1.4764921841751630E-020
   1.5000000000000013E-003     7.8194729348893296E-020
   1.8000000000000030E-003    -2.1788820244833435E-019
   2.1000000000000012E-003     4.6781696082371771E-019
   2.3999999999999994E-003    -8.2722702488722615E-019
   2.7000000000000010E-003     1.1759909723824823E-018
   2.9999999999999992E-003    -1.0803397048054614E-018
   3.3000000000000008E-003    -6.7928263549516738E-019
   3.6000000000000025E-003     7.5292361974428182E-018
   3.9000000000000007E-003    -3.0541745245658958E-017
   4.2000000000000023E-003     1.1069089695593966E-016
   4.5000000000000005E-003    -4.0216292354317712E-016
   4.7999999999999987E-003     1.4362987542567979E-015
   5.1000000000000004E-003    -4.7849132110684806E-015
   5.4000000000000020E-003     1.4186572973029306E-014
   5.7000000000000037E-003    -3.5788293259640746E-014
   5.9999999999999984E-003     7.2187905719575805E-014
   6.3000000000000000E-003    -1.0620033995177816E-013
   6.6000000000000017E-003     1.4264968345513509E-013
   6.9000000000000034E-003    -7.8887750909554184E-013
   7.2000000000000015E-003     6.1736370881024277E-012
   7.5000000000000032E-003    -3.2591949382514211E-011
   7.8000000000000014E-003     1.1810897886663075E-010
   8.0999999999999996E-003    -2.7625874871788913E-010
   8.4000000000000012E-003     2.2214469307251092E-010
   8.7000000000000029E-003     1.1701126022770324E-009
   9.0000000000000011E-003    -5.2409838525680610E-009
   9.2999999999999992E-003     7.7351269677060155E-009
   9.6000000000000009E-003     9.9038568409728642E-009
   9.8999999999999991E-003    -5.6402441775029392E-008
   1.0200000000000001E-002     3.8609130080802622E-008
   1.0500000000000002E-002     1.9324800818272850E-007
   1.0800000000000004E-002    -2.9839651445497722E-007
   1.1099999999999999E-002    -6.4010758172421348E-007
   1.1400000000000000E-002     9.8607106450752333E-007
   1.1700000000000002E-002     2.1379226453989891E-006
   1.2000000000000004E-002    -2.0663973964189371E-006
   1.2300000000000002E-002    -6.6062151056604269E-006
   1.2600000000000000E-002     3.0871832800988676E-006
   1.2900000000000002E-002     2.8763737090241282E-005
   1.3200000000000000E-002     5.1030478450422379E-005
   1.3500000000000002E-002     5.9578624555953414E-005
   1.3800000000000003E-002     7.8825576153242118E-005
   1.4100000000000001E-002     1.4118995211086054E-004
   1.4400000000000000E-002     2.4612606836619914E-004
   1.4700000000000001E-002     3.7568927825072304E-004
   1.4999999999999999E-002     5.4773279952344267E-004
   1.5300000000000001E-002     8.2263765602233127E-004
   1.5600000000000003E-002     1.2530899305384716E-003
   1.5899999999999997E-002     1.8626523164941705E-003
   1.6199999999999999E-002     2.6961252214133397E-003
   1.6500000000000001E-002     3.8605041294857423E-003
   1.6800000000000002E-002     5.4866330448712086E-003
   1.7100000000000004E-002     7.6821367915076433E-003
   1.7400000000000006E-002     1.0562066529901937E-002
   1.7700000000000000E-002     1.4300869174573572E-002
   1.8000000000000002E-002     1.9103222893396943E-002
   1.8300000000000004E-002     2.5129258603506344E-002
   1.8600000000000005E-002     3.2488551142369815E-002
   1.8900000000000000E-002     4.1284738744043592E-002
   1.9200000000000002E-002     5.1585490810123868E-002
   1.9500000000000003E-002     6.3314862302338737E-002
   1.9799999999999998E-002     7.6194899097289603E-002
   2.0100000000000000E-002     8.9776446528457399E-002
   2.0400000000000001E-002    0.10344155001544042     
   2.0700000000000003E-002    0.11631537691900018     
   2.0999999999999998E-002    0.12719654490416232     
   2.1299999999999999E-002    0.13462566108257601     
   2.1600000000000001E-002    0.13699180937448574     
   2.1900000000000003E-002    0.13257802691534781     
   2.2200000000000004E-002    0.11961204532824166     
   2.2500000000000006E-002     9.6429110757620506E-002
   2.2800000000000001E-002     6.1710620297897201E-002
   2.3100000000000002E-002     1.4680409761952840E-002
   2.3400000000000004E-002    -4.4766390017406898E-002
   2.3699999999999999E-002   -0.11592105299653799     
   2.4000000000000000E-002   -0.19707846008060947     
   2.4300000000000002E-002   -0.28543796688573053     
   2.4599999999999997E-002   -0.37719303469345355     
   2.4900000000000005E-002   -0.46773630813710909     
   2.5200000000000000E-002   -0.55184913051868634     
   2.5499999999999995E-002   -0.62394657812871657     
   2.5800000000000003E-002   -0.67853354824901757     
   2.6099999999999998E-002   -0.71073383842422544     
   2.6400000000000007E-002   -0.71671225664667304     
   2.6700000000000002E-002   -0.69399265537943577     
   2.6999999999999996E-002   -0.64183076412951579     
   2.7300000000000005E-002   -0.56143136708297803     
   2.7600000000000000E-002   -0.45592545661081552     
   2.7900000000000008E-002   -0.33021492071757841     
   2.8200000000000003E-002   -0.19068303878723336     
   2.8499999999999998E-002    -4.4803284197568960E-002
   2.8800000000000006E-002     9.9407910840629388E-002
   2.9100000000000001E-002    0.23413171464027904     
   2.9400000000000003E-002    0.35228477319476426     
   2.9700000000000004E-002    0.44798055763758882     
   3.0000000000000006E-002    0.51699996225642053     
   3.0300000000000001E-002    0.55711117415330236     
   3.0600000000000002E-002    0.56829666971016479     
   3.0900000000000004E-002    0.55262473797647615     
   3.1199999999999999E-002    0.51404864476025836     
   3.1500000000000007E-002    0.45820859945297698     
   3.1800000000000002E-002    0.39195576357839279     
   3.2099999999999997E-002    0.32285065958009262     
   3.2400000000000005E-002    0.25865521055964891     
   3.2700000000000000E-002    0.20679635004864494     
   3.3000000000000002E-002    0.17384719327154574     
   3.3300000000000003E-002    0.16500673248055175     
   3.3599999999999998E-002    0.18363936427465966     
   3.3900000000000000E-002    0.23106741451755219     
   3.4200000000000001E-002    0.30629125221702580     
   3.4500000000000003E-002    0.40574907925356918     
   3.4799999999999998E-002    0.52342867851190533     
   3.5099999999999999E-002    0.65125554256993468     
   3.5400000000000001E-002    0.77938962168017412     
   3.5699999999999996E-002    0.89656310213698731     
   3.6000000000000004E-002    0.99094318019491112     
   3.6299999999999999E-002     1.0512785503339792     
   3.6600000000000008E-002     1.0676768650516060     
   3.6900000000000002E-002     1.0322440267963238     
   3.7199999999999997E-002    0.94013343133416072     
   3.7500000000000006E-002    0.79056531223012350     
   3.7800000000000000E-002    0.58707689914117545     
   3.8100000000000009E-002    0.33749049950031296     
   3.8400000000000004E-002     5.3946194125488844E-002
   3.8699999999999998E-002   -0.24757018932982167     
   3.9000000000000007E-002   -0.54826953509593856     
   3.9300000000000002E-002   -0.82793253866080008     
   3.9600000000000003E-002    -1.0662051828117214     
   3.9900000000000005E-002    -1.2441563122611541     
   4.0200000000000000E-002    -1.3458663152891219     
   4.0500000000000001E-002    -1.3598845215111197     
   4.0800000000000003E-002    -1.2804246358672913     
   4.1100000000000005E-002    -1.1081035085590187     
   4.1399999999999999E-002   -0.85016589025861045     
   4.1700000000000008E-002   -0.52026191047885817     
   4.2000000000000003E-002   -0.13773486726949713     
   4.2299999999999997E-002    0.27341972543560455     
   4.2600000000000006E-002    0.68600269599672714     
   4.2900000000000001E-002     1.0715430743853247     
   4.3200000000000002E-002     1.4020854243681313     
   4.3500000000000004E-002     1.6519729599316122     
   4.3799999999999999E-002     1.7994202740658878     
   4.4100000000000000E-002     1.8280802082202499     
   4.4400000000000002E-002     1.7282700441625707     
   4.4700000000000004E-002     1.4974759814330056     
   4.4999999999999998E-002     1.1405552282977371     
   4.5300000000000000E-002    0.66971330792717865     
   4.5600000000000002E-002    0.10417566589360128     
   4.5899999999999996E-002   -0.53077690388862564     
   4.6200000000000005E-002    -1.2051499843125413     
   4.6500000000000000E-002    -1.8856856070545618     
   4.6799999999999994E-002    -2.5370974579595327     
   4.7100000000000003E-002    -3.1240629647176803     
   4.7399999999999998E-002    -3.6134054633696593     
   4.7700000000000006E-002    -3.9755119943472010     
   4.8000000000000001E-002    -4.1857247779485647     
   4.8300000000000010E-002    -4.2262601522405134     
   4.8600000000000004E-002    -4.0873860519126595     
   4.8899999999999999E-002    -3.7679798459051170     
   4.9200000000000008E-002    -3.2755494231702329     
   4.9500000000000002E-002    -2.6263455243399960     
   4.9800000000000011E-002    -1.8448172289382967     
   5.0100000000000006E-002   -0.96224633897047340     
   5.0400000000000000E-002    -1.5157341496287557E-002
   5.0700000000000009E-002    0.95625764979960337     
   5.1000000000000004E-002     1.9101089397004429     
   5.1299999999999998E-002     2.8046679216331967     
   5.1600000000000007E-002     3.6004569054153848     
   5.1900000000000002E-002     4.2620749220773178     
   5.2200000000000010E-002     4.7593350202935483     
   5.2500000000000005E-002     5.0685727381892605     
   5.2800000000000000E-002     5.1736402651573030     
   5.3099999999999994E-002     5.0668737102669752     
   5.3400000000000003E-002     4.7492107619513177     
   5.3699999999999998E-002     4.2300900285667211     
   5.4000000000000006E-002     3.5277330021930098     
   5.4300000000000001E-002     2.6689188380935072     
   5.4599999999999996E-002     1.6879416347374328     
   5.4900000000000004E-002    0.62546018145681614     
   5.5199999999999999E-002   -0.47268500321805185     
   5.5499999999999994E-002    -1.5572027600300444     
   5.5800000000000002E-002    -2.5779409470652297     
   5.6099999999999997E-002    -3.4865644340569020     
   5.6400000000000006E-002    -4.2392885749450500     
   5.6700000000000000E-002    -4.7993575693334947     
   5.6999999999999995E-002    -5.1399797543702164     
   5.7300000000000004E-002    -5.2464931768412555     
   5.7599999999999998E-002    -5.1176032453577989     
   5.7900000000000007E-002    -4.7660041625523348     
   5.8200000000000002E-002    -4.2177511632043263     
   5.8499999999999996E-002    -3.5108970451234711     
   5.8800000000000005E-002    -2.6929462474101626     
   5.9100000000000000E-002    -1.8173208234008129     
   5.9400000000000008E-002   -0.93979791032933413     
   5.9700000000000003E-002   -0.11431761625336634     
   6.0000000000000012E-002    0.61079496090054519     
   6.0300000000000006E-002     1.1960644439363008     
   6.0600000000000001E-002     1.6138139521891048     
   6.0900000000000010E-002     1.8497406480344694     
   6.1200000000000004E-002     1.9036162255248712     
   6.1500000000000013E-002     1.7884482939152306     
   6.1800000000000008E-002     1.5293361463233168     
   6.2100000000000002E-002     1.1619004602036718     
   6.2399999999999997E-002    0.72908824408127515     
   6.2700000000000006E-002    0.27802938461348492     
   6.3000000000000000E-002   -0.14256830809037768     
   6.3300000000000009E-002   -0.48561240682823037     
   6.3600000000000004E-002   -0.70830493576985099     
   6.3899999999999998E-002   -0.77454146005666402     
   6.4199999999999993E-002   -0.65687229191612673     
   6.4500000000000002E-002   -0.33799272306850625     
   6.4800000000000010E-002    0.18785348165644500     
   6.5100000000000005E-002    0.91425585285917066     
   6.5400000000000000E-002     1.8224439273632314     
   6.5700000000000008E-002     2.8811942055475583     
   6.5999999999999989E-002     4.0479244809646104     
   6.6299999999999998E-002     5.2703408210428222     
   6.6600000000000006E-002     6.4881794268520707     
   6.6900000000000001E-002     7.6357710405689261     
   6.7199999999999996E-002     8.6457842529630398     
   6.7500000000000004E-002     9.4525759218608414     
   6.7800000000000013E-002     9.9956780052705767     
   6.8099999999999994E-002     10.223962581319427     
   6.8400000000000002E-002     10.099080696985567     
   6.8700000000000011E-002     9.5985329181158079     
   6.8999999999999992E-002     8.7169390095863974     
   6.9300000000000000E-002     7.4666031233982437     
   6.9600000000000009E-002     5.8783263693802965     
   6.9900000000000004E-002     3.9995762220851674     
   7.0199999999999999E-002     1.8911629765532467     
   7.0500000000000007E-002   -0.37546367946052683     
   7.0800000000000016E-002    -2.7223787401219184     
   7.1099999999999997E-002    -5.0691998753420933     
   7.1400000000000005E-002    -7.3364769356641943     
   7.1700000000000000E-002    -9.4503352835251349     
   7.1999999999999995E-002    -11.345303034612698     
   7.2300000000000003E-002    -12.965039520860387     
   7.2600000000000012E-002    -14.264137603982476     
   7.2900000000000006E-002    -15.208712371495039     
   7.3200000000000001E-002    -15.776253687783708     
   7.3499999999999996E-002    -15.953884379970134     
   7.3800000000000004E-002    -15.736812781371043     
   7.4099999999999999E-002    -15.128716242732480     
   7.4400000000000008E-002    -14.140936314265019     
   7.4700000000000003E-002    -12.790713553482590     
   7.5000000000000011E-002    -11.102649719503432     
   7.5299999999999992E-002    -9.1100335602382891     
   7.5600000000000001E-002    -6.8545820060896574     
   7.5900000000000009E-002    -4.3875670320676932     
   7.6200000000000004E-002    -1.7707495531015809     
   7.6499999999999999E-002    0.92369520080618628     
   7.6800000000000007E-002     3.6138059161379061     
   7.7099999999999988E-002     6.2110169328027212     
   7.7399999999999997E-002     8.6226412403740369     
   7.7700000000000005E-002     10.755622754776766     
   7.8000000000000014E-002     12.522602430106588     
   7.8299999999999995E-002     13.846836284381766     
   7.8600000000000003E-002     14.667548926291943     
   7.8900000000000012E-002     14.944559683230636     
   7.9199999999999993E-002     14.661148190338423     
   7.9500000000000001E-002     13.828054702642476     
   7.9800000000000010E-002     12.483085039229266     
   8.0100000000000018E-002     10.688906543990438     
   8.0399999999999999E-002     8.5320871686960089     
   8.0700000000000008E-002     6.1177158034410155     
   8.1000000000000003E-002     3.5633900730560413     
   8.1299999999999997E-002    0.99282092623484175     
   8.1600000000000006E-002    -1.4710023382584509     
   8.1900000000000014E-002    -3.7119338479546826     
   8.2199999999999995E-002    -5.6280630637278932     
   8.2500000000000004E-002    -7.1383635601313529     
   8.2799999999999999E-002    -8.1848981246990888     
   8.3100000000000007E-002    -8.7361630424836392     
   8.3400000000000002E-002    -8.7903307872429650     
   8.3700000000000011E-002    -8.3734184005549679     
   8.4000000000000005E-002    -7.5367873059868558     
   8.4300000000000000E-002    -6.3546232619962773     
   8.4599999999999995E-002    -4.9179594035633158     
   8.4900000000000003E-002    -3.3292376880206547     
   8.5199999999999998E-002    -1.6953833640682205     
   8.5500000000000007E-002   -0.11980632180032558     
   8.5800000000000001E-002     1.3023867384789458     
   8.6100000000000010E-002     2.4914019934614018     
   8.6399999999999991E-002     3.3877276624722015     
   8.6699999999999999E-002     3.9546891588009032     
   8.7000000000000008E-002     4.1806391206629598     
   8.7300000000000003E-002     4.0775896702741292     
   8.7599999999999997E-002     3.6802360730842461     
   8.7900000000000006E-002     3.0435179573851130     
   8.8200000000000014E-002     2.2349439526844179     
   8.8499999999999995E-002     1.3306673943538030     
   8.8800000000000004E-002    0.41045348660251690     
   8.9100000000000013E-002   -0.45011919726362937     
   8.9399999999999993E-002    -1.1844451510102161     
   8.9700000000000002E-002    -1.7392771617337885     
   9.0000000000000011E-002    -2.0788817369466024     
   9.0299999999999991E-002    -2.1857951281875891     
   9.0600000000000000E-002    -2.0622118557077087     
   9.0900000000000009E-002    -1.7286315434131154     
   9.1200000000000017E-002    -1.2206971179989736     
   9.1499999999999998E-002   -0.58661056660047706     
   9.1800000000000007E-002    0.11813480502200946     
   9.2100000000000001E-002    0.83598762576651175     
   9.2399999999999996E-002     1.5111876222793867     
   9.2700000000000005E-002     2.0954033279886133     
   9.3000000000000013E-002     2.5508575169751708     
   9.3300000000000008E-002     2.8517945758787846     
   9.3600000000000003E-002     2.9877735710033306     
   9.3899999999999997E-002     2.9624153719901045     
   9.4200000000000006E-002     2.7918076069069429     
   9.4500000000000001E-002     2.5028772062020579     
   9.4800000000000009E-002     2.1291986010417610     
   9.5100000000000004E-002     1.7082178907235903     
   9.5399999999999999E-002     1.2777725705493141     
   9.5699999999999993E-002    0.87074386581354268     
   9.6000000000000002E-002    0.51423720454330590     
   9.6300000000000011E-002    0.22732212762700188     
   9.6600000000000005E-002     1.8893579424956286E-002
   9.6900000000000000E-002   -0.11119778840461070     
   9.7200000000000009E-002   -0.17181308770227854     
   9.7499999999999989E-002   -0.17871255800334929     
   9.7799999999999998E-002   -0.15182057103156366     
   9.8100000000000007E-002   -0.11369809501335038     
   9.8400000000000015E-002    -8.5997205045714509E-002
   9.8699999999999996E-002    -8.7505478068206077E-002
   9.9000000000000005E-002   -0.13345373998829713     
   9.9300000000000013E-002   -0.23230706421965586     
   9.9599999999999994E-002   -0.38655534378750467     
   9.9900000000000003E-002   -0.59385550374641483     
  0.10020000000000001        -0.84525213043666980     
  0.10049999999999999         -1.1282031123428347     
  0.10080000000000000         -1.4287451795160422     
  0.10110000000000001         -1.7314300903911715     
  0.10140000000000000         -2.0217832118848236     
  0.10170000000000000         -2.2874252252202041     
  0.10200000000000001         -2.5194711744675971     
  0.10230000000000002         -2.7125390913760867     
  0.10260000000000000         -2.8637101149887059     
  0.10290000000000001         -2.9740502519704961     
  0.10320000000000000         -3.0467173719782181     
  0.10350000000000001         -3.0847866210539934     
  0.10380000000000000         -3.0927559479827806     
  0.10410000000000001         -3.0747827829990513     
  0.10440000000000001         -3.0329027950311627     
  0.10470000000000000         -2.9683981009240057     
  0.10500000000000000         -2.8820731443582162     
  0.10530000000000000         -2.7740132708578358     
  0.10560000000000000         -2.6439978355757745     
  0.10590000000000001         -2.4921838719307488     
  0.10620000000000000         -2.3202546690822032     
  0.10650000000000001         -2.1312372873888989     
  0.10679999999999999         -1.9277315749551036     
  0.10710000000000000         -1.7126888481239106     
  0.10740000000000001         -1.4889738383226998     
  0.10770000000000000         -1.2576489833143860     
  0.10800000000000000         -1.0177015920748884     
  0.10830000000000001        -0.76571465822833318     
  0.10859999999999999        -0.49621981954920358     
  0.10890000000000000        -0.20341265691434529     
  0.10920000000000001         0.11858235730150390     
  0.10950000000000001         0.47392320202864369     
  0.10979999999999999         0.86317316915355136     
  0.11009999999999999          1.2831307710784827     
  0.11040000000000001          1.7253382302393803     
  0.11070000000000001          2.1777810060601865     
  0.11100000000000000          2.6267519169199431     
  0.11130000000000000          3.0576805950903037     
  0.11160000000000002          3.4584797709540709     
  0.11190000000000001          3.8221162898250043     
  0.11220000000000001          4.1485268539828724     
  0.11250000000000000          4.4450244183396705     
  0.11280000000000000          4.7247886280614466     
  0.11309999999999999          5.0058040529341952     
  0.11340000000000001          5.3073181530425870     
  0.11369999999999998          5.6444956171969523     
  0.11400000000000000          6.0250616170591229     
  0.11430000000000000          6.4458879961687217     
  0.11460000000000002          6.8900808065660897     
  0.11489999999999999          7.3273525507674435     
  0.11520000000000001          7.7167549372622943     
  0.11550000000000001          8.0103133543261720     
  0.11580000000000000          8.1589525419248616     
  0.11609999999999999          8.1195865095043587     
  0.11640000000000002          7.8625780429066197     
  0.11670000000000001          7.3761572062865071     
  0.11700000000000001          6.6682373584567358     
  0.11730000000000000          5.7681864684465580     
  0.11760000000000000          4.7227061146541658     
  0.11789999999999999          3.5883741295941869     
  0.11820000000000001          2.4233359556638092     
  0.11850000000000001          1.2772647843450216     
  0.11880000000000000         0.18134424522247272     
  0.11910000000000000        -0.85996672243835981     
  0.11940000000000002         -1.8726207394931507     
  0.11970000000000001         -2.9127949508799276     
  0.12000000000000001         -4.0629224793415517     
  0.12030000000000000         -5.4195591482648524     
  0.12060000000000000         -7.0790889577930045     
  0.12089999999999999         -9.1214573523311344     
  0.12119999999999999         -11.591818470303338     
  0.12150000000000001         -14.482563857209755     
  0.12180000000000001         -17.722411444587181     
  0.12210000000000000         -21.171680983543979     
  0.12239999999999999         -24.622196682666413     
  0.12270000000000002         -27.807481218546627     
  0.12300000000000001         -30.422068692011976     
  0.12330000000000001         -32.147916045921704     
  0.12360000000000000         -32.682890140483600     
  0.12390000000000000         -31.771642615960900     
  0.12419999999999999         -29.239268627188267     
  0.12450000000000001         -25.013951228601627     
  0.12480000000000001         -19.142500672498954     
  0.12509999999999999         -11.800867561246832     
  0.12540000000000001         -3.2883677529047759     
  0.12570000000000003          5.9909416877749067     
  0.12600000000000000          15.553944448082206     
  0.12630000000000002          24.869320988593927     
  0.12659999999999999          33.399872684143020     
  0.12690000000000001          40.645022041217089     
  0.12719999999999998          46.175294729448979     
  0.12750000000000000          49.664824966890592     
  0.12780000000000002          50.915548899495263     
  0.12809999999999999          49.870248495209808     
  0.12840000000000001          46.612686852527361     
  0.12869999999999998          41.357666310105913     
  0.12900000000000000          34.434694372289982     
  0.12930000000000003          26.258699636218921     
  0.12959999999999999          17.298124375965813     
  0.12990000000000002          8.0447736141369433     
  0.13019999999999998         -1.0206014002506265     
  0.13050000000000000         -9.4586960728725273     
  0.13080000000000003         -16.894370861020036     
  0.13109999999999999         -23.034799592054583     
  0.13140000000000002         -27.680487985087893     
  0.13169999999999998         -30.729264890748084     
  0.13200000000000001         -32.173706604168387     
  0.13229999999999997         -32.093054843946931     
  0.13260000000000000         -30.640779101458989     
  0.13290000000000002         -28.027646470937682     
  0.13319999999999999         -24.504829193062889     
  0.13350000000000001         -20.346711432372615     
  0.13380000000000003         -15.830075379406452     
  0.13410000000000000         -11.219373541223661     
  0.13440000000000002         -6.7546980645126951     
  0.13469999999999999         -2.6373000397523185     
  0.13500000000000001         0.97589988504655878     
  0.13529999999999998          3.9761417501703136     
  0.13560000000000000          6.3044646228495083     
  0.13590000000000002          7.9472783094438739     
  0.13619999999999999          8.9322034719682364     
  0.13650000000000001          9.3197405105476605     
  0.13680000000000003          9.1945363470470056     
  0.13710000000000000          8.6574261071676091     
  0.13740000000000002          7.8140560680589140     
  0.13769999999999999          6.7684886235705717     
  0.13800000000000001          5.6175918216597518     
  0.13829999999999998          4.4449139834699540     
  0.13860000000000000          3.3180251443561666     
  0.13890000000000002          2.2876135662616655     
  0.13919999999999999          1.3889859614708957     
  0.13950000000000001         0.64212249306924818     
  0.13979999999999998          5.4036825661069265E-002
  0.14010000000000000        -0.37869024585612010     
  0.14040000000000002        -0.66620866841926296     
  0.14069999999999999        -0.82434271150403937     
  0.14100000000000001        -0.87320567002832306     
  0.14130000000000004        -0.83340247167555148     
  0.14160000000000000        -0.72604835673114287     
  0.14189999999999997        -0.57337545148967095     
  0.14219999999999999        -0.39493444825508561     
  0.14250000000000002        -0.20825523724166572     
  0.14279999999999998         -2.9010780153249094E-002
  0.14310000000000000         0.13016452099207398     
  0.14339999999999997         0.25959065216896082     
  0.14369999999999999         0.35449581263742491     
  0.14400000000000002         0.41260649246174363     
  0.14429999999999998         0.43460198260039062     
  0.14460000000000001         0.42512030684098367     
  0.14490000000000003         0.38987917015461343     
  0.14520000000000000         0.33592632874431527     
  0.14550000000000002         0.27128072869375108     
  0.14579999999999999         0.20235790368035378     
  0.14610000000000001         0.13549787957195969     
  0.14640000000000003          7.5188261850551719E-002
  0.14670000000000000          2.2881819854169150E-002
  0.14699999999999996         -2.0663750416558435E-002
  0.14729999999999999         -5.6379374775771041E-002
  0.14760000000000001         -8.6216891597027168E-002
  0.14789999999999998        -0.11244734792556610     
  0.14820000000000000        -0.13683608038823536     