  -1.4999999999999999E-002     0.0000000000000000     
  -1.4700000000000000E-002     0.0000000000000000     
  -1.4400000000000000E-002     0.0000000000000000     
  -1.4100000000000000E-002     0.0000000000000000     
  -1.3800000000000000E-002     0.0000000000000000     
  -1.3500000000000000E-002     0.0000000000000000     
  -1.3200000000000000E-002     0.0000000000000000     
  -1.2899999999999998E-002     0.0000000000000000     
  -1.2600000000000000E-002     0.0000000000000000     
  -1.2299999999999998E-002     0.0000000000000000     
  -1.2000000000000000E-002     0.0000000000000000     
  -1.1699999999999999E-002     0.0000000000000000     
  -1.1399999999999999E-002     0.0000000000000000     
  -1.1099999999999999E-002     0.0000000000000000     
  -1.0799999999999999E-002     0.0000000000000000     
  -1.0499999999999999E-002     0.0000000000000000     
  -1.0199999999999999E-002     0.0000000000000000     
  -9.8999999999999991E-003     0.0000000000000000     
  -9.5999999999999992E-003     0.0000000000000000     
  -9.2999999999999992E-003     0.0000000000000000     
  -8.9999999999999993E-003     0.0000000000000000     
  -8.6999999999999994E-003     0.0000000000000000     
  -8.3999999999999995E-003     0.0000000000000000     
  -8.0999999999999996E-003     0.0000000000000000     
  -7.7999999999999988E-003     0.0000000000000000     
  -7.4999999999999997E-003     0.0000000000000000     
  -7.1999999999999998E-003     0.0000000000000000     
  -6.8999999999999981E-003     0.0000000000000000     
  -6.5999999999999982E-003     0.0000000000000000     
  -6.3000000000000000E-003     0.0000000000000000     
  -6.0000000000000001E-003     0.0000000000000000     
  -5.6999999999999985E-003     0.0000000000000000     
  -5.3999999999999986E-003     0.0000000000000000     
  -5.1000000000000004E-003     0.0000000000000000     
  -4.7999999999999987E-003     0.0000000000000000     
  -4.5000000000000005E-003     0.0000000000000000     
  -4.1999999999999989E-003     0.0000000000000000     
  -3.8999999999999990E-003     0.0000000000000000     
  -3.5999999999999990E-003     0.0000000000000000     
  -3.2999999999999991E-003     0.0000000000000000     
  -2.9999999999999992E-003     0.0000000000000000     
  -2.6999999999999993E-003     0.0000000000000000     
  -2.3999999999999994E-003     0.0000000000000000     
  -2.0999999999999977E-003     0.0000000000000000     
  -1.7999999999999995E-003     0.0000000000000000     
  -1.4999999999999979E-003     0.0000000000000000     
  -1.1999999999999997E-003     0.0000000000000000     
  -8.9999999999999976E-004     0.0000000000000000     
  -5.9999999999999810E-004     0.0000000000000000     
  -2.9999999999999992E-004     0.0000000000000000     
   0.0000000000000000          0.0000000000000000     
   3.0000000000000165E-004     0.0000000000000000     
   5.9999999999999984E-004     0.0000000000000000     
   9.0000000000000149E-004     0.0000000000000000     
   1.2000000000000031E-003     0.0000000000000000     
   1.5000000000000013E-003     0.0000000000000000     
   1.8000000000000030E-003     0.0000000000000000     
   2.1000000000000012E-003     0.0000000000000000     
   2.3999999999999994E-003     0.0000000000000000     
   2.7000000000000010E-003     0.0000000000000000     
   2.9999999999999992E-003     0.0000000000000000     
   3.3000000000000008E-003     0.0000000000000000     
   3.6000000000000025E-003     0.0000000000000000     
   3.9000000000000007E-003     0.0000000000000000     
   4.2000000000000023E-003     0.0000000000000000     
   4.5000000000000005E-003     0.0000000000000000     
   4.7999999999999987E-003     0.0000000000000000     
   5.1000000000000004E-003     0.0000000000000000     
   5.4000000000000020E-003     0.0000000000000000     
   5.7000000000000037E-003     0.0000000000000000     
   5.9999999999999984E-003     0.0000000000000000     
   6.3000000000000000E-003     0.0000000000000000     
   6.6000000000000017E-003     7.2056632444097803E-037
   6.9000000000000034E-003    -4.1208179897977147E-036
   7.2000000000000015E-003    -1.5538010345180357E-034
   7.5000000000000032E-003     2.2236257254429033E-033
   7.8000000000000014E-003    -5.2998525645585817E-033
   8.0999999999999996E-003    -9.8336767499253512E-032
   8.4000000000000012E-003     1.1010679730197484E-030
   8.7000000000000029E-003    -3.5694606305656944E-030
   9.0000000000000011E-003    -2.0585335312503890E-029
   9.2999999999999992E-003     2.5425633606252039E-028
   9.6000000000000009E-003    -8.8349214711395917E-028
   9.8999999999999991E-003    -1.6487281511896589E-027
   1.0200000000000001E-002     2.9040601511861455E-026
   1.0500000000000002E-002    -1.1997710319201340E-025
   1.0800000000000004E-002     1.0297774233017951E-025
   1.1099999999999999E-002     1.3608158270815490E-024
   1.1400000000000000E-002    -8.0503831246265066E-024
   1.1700000000000002E-002     2.1185034736831231E-023
   1.2000000000000004E-002    -8.1375735538978694E-024
   1.2300000000000002E-002    -1.6995722950883371E-022
   1.2600000000000000E-002     7.6562588447105351E-022
   1.2900000000000002E-002    -1.6388469438076761E-021
   1.3200000000000000E-002     6.6366946211245521E-022
   1.3500000000000002E-002     6.9158640388933642E-021
   1.3800000000000003E-002    -1.4363118919931024E-020
   1.4100000000000001E-002    -6.7984759624208657E-020
   1.4400000000000000E-002     6.1889193312001798E-019
   1.4700000000000001E-002    -2.6704682352049694E-018
   1.4999999999999999E-002     7.9454494594729927E-018
   1.5300000000000001E-002    -1.5960214999916704E-017
   1.5600000000000003E-002     8.5523361584715106E-018
   1.5899999999999997E-002     1.0700528179738664E-016
   1.6199999999999999E-002    -6.5796518785045106E-016
   1.6500000000000001E-002     2.4655602317685257E-015
   1.6800000000000002E-002    -6.1894145882211531E-015
   1.7100000000000004E-002     3.6347395023796601E-015
   1.7400000000000006E-002     7.1663540986838248E-014
   1.7700000000000000E-002    -5.3978788669764577E-013
   1.8000000000000002E-002     2.4980178515987550E-012
   1.8300000000000004E-002    -8.3567415140595180E-012
   1.8600000000000005E-002     1.8806759968792441E-011
   1.8900000000000000E-002    -1.4220437327683300E-011
   1.9200000000000002E-002    -8.9845131334698181E-011
   1.9500000000000003E-002     4.3340903088662230E-010
   1.9799999999999998E-002    -8.1343087821039717E-010
   2.0100000000000000E-002    -3.0711860832255411E-010
   2.0400000000000001E-002     5.2032147479508239E-009
   2.0700000000000003E-002    -8.8033003109444508E-009
   2.0999999999999998E-002    -9.8625356770298822E-009
   2.1299999999999999E-002     4.8546116460101985E-008
   2.1600000000000001E-002    -1.4258545455447802E-009
   2.1900000000000003E-002    -1.8271047963480669E-007
   2.2200000000000004E-002     4.1924117510916403E-009
   2.2500000000000006E-002     5.6291253258677898E-007
   2.2800000000000001E-002     1.8794659695231530E-007
   2.3100000000000002E-002    -1.4668628409708617E-006
   2.3400000000000004E-002    -1.1983921694991295E-006
   2.3699999999999999E-002     4.2351575757493265E-006
   2.4000000000000000E-002     1.2154990145063493E-005
   2.4300000000000002E-002     1.7181073417305015E-005
   2.4599999999999997E-002     2.1224714146228507E-005
   2.4900000000000005E-002     3.4112061257474124E-005
   2.5200000000000000E-002     6.1930441006552428E-005
   2.5499999999999995E-002     1.0139482037629932E-004
   2.5800000000000003E-002     1.5161812189035118E-004
   2.6099999999999998E-002     2.2597755014430732E-004
   2.6400000000000007E-002     3.4503181814216077E-004
   2.6700000000000002E-002     5.2315153880044818E-004
   2.6999999999999996E-002     7.7250343747437000E-004
   2.7300000000000005E-002     1.1199522996321321E-003
   2.7600000000000000E-002     1.6103688394650817E-003
   2.7900000000000008E-002     2.2918765898793936E-003
   2.8200000000000003E-002     3.2108745072036982E-003
   2.8499999999999998E-002     4.4268313795328140E-003
   2.8800000000000006E-002     6.0206870548427105E-003
   2.9100000000000001E-002     8.0802896991372108E-003
   2.9400000000000003E-002     1.0684592649340630E-002
   2.9700000000000004E-002     1.3908009976148605E-002
   3.0000000000000006E-002     1.7827259376645088E-002
   3.0300000000000001E-002     2.2503180429339409E-002
   3.0600000000000002E-002     2.7951180934906006E-002
   3.0900000000000004E-002     3.4131933003664017E-002
   3.1199999999999999E-002     4.0950261056423187E-002
   3.1500000000000007E-002     4.8241589218378067E-002
   3.1800000000000002E-002     5.5744785815477371E-002
   3.2099999999999997E-002     6.3087113201618195E-002
   3.2400000000000005E-002     6.9804750382900238E-002
   3.2700000000000000E-002     7.5350493192672729E-002
   3.3000000000000002E-002     7.9105526208877563E-002
   3.3300000000000003E-002     8.0402612686157227E-002
   3.3599999999999998E-002     7.8582346439361572E-002
   3.3900000000000000E-002     7.3057733476161957E-002
   3.4200000000000001E-002     6.3366360962390900E-002
   3.4500000000000003E-002     4.9222953617572784E-002
   3.4799999999999998E-002     3.0583629384636879E-002
   3.5099999999999999E-002     7.7184652909636497E-003
   3.5400000000000001E-002    -1.8766975030303001E-002
   3.5699999999999996E-002    -4.7941662371158600E-002
   3.6000000000000004E-002    -7.8584380447864532E-002
   3.6299999999999999E-002   -0.10921267420053482     
   3.6600000000000008E-002   -0.13814891874790192     
   3.6900000000000002E-002   -0.16370043158531189     
   3.7199999999999997E-002   -0.18426223099231720     
   3.7500000000000006E-002   -0.19843855500221252     
   3.7800000000000000E-002   -0.20520435273647308     
   3.8100000000000009E-002   -0.20398212969303131     
   3.8400000000000004E-002   -0.19477173686027527     
   3.8699999999999998E-002   -0.17815020680427551     
   3.9000000000000007E-002   -0.15527063608169556     
   3.9300000000000002E-002   -0.12780003249645233     
   3.9600000000000003E-002    -9.7791470587253571E-002
   3.9900000000000005E-002    -6.7599587142467499E-002
   4.0200000000000000E-002    -3.9625804871320724E-002
   4.0500000000000001E-002    -1.6148796305060387E-002
   4.0800000000000003E-002     7.8138703247532248E-004
   4.1100000000000005E-002     9.5851141959428787E-003
   4.1399999999999999E-002     9.2464527115225792E-003
   4.1700000000000008E-002    -6.0407142154872417E-004
   4.2000000000000003E-002    -1.9591286778450012E-002
   4.2299999999999997E-002    -4.6707887202501297E-002
   4.2600000000000006E-002    -8.0316238105297089E-002
   4.2900000000000001E-002   -0.11821381747722626     
   4.3200000000000002E-002   -0.15782485902309418     
   4.3500000000000004E-002   -0.19630041718482971     
   4.3799999999999999E-002   -0.23073384165763855     
   4.4100000000000000E-002   -0.25838091969490051     
   4.4400000000000002E-002   -0.27672484517097473     
   4.4700000000000004E-002   -0.28370553255081177     
   4.4999999999999998E-002   -0.27785390615463257     
   4.5300000000000000E-002   -0.25838297605514526     
   4.5600000000000002E-002   -0.22527106106281281     
   4.5899999999999996E-002   -0.17917929589748383     
   4.6200000000000005E-002   -0.12149450927972794     
   4.6500000000000000E-002    -5.4269760847091675E-002
   4.6799999999999994E-002     1.9963748753070831E-002
   4.7100000000000003E-002     9.8386481404304504E-002
   4.7399999999999998E-002    0.17801995575428009     
   4.7700000000000006E-002    0.25590437650680542     
   4.8000000000000001E-002    0.32933825254440308     
   4.8300000000000010E-002    0.39595729112625122     
   4.8600000000000004E-002    0.45395281910896301     
   4.8899999999999999E-002    0.50209021568298340     
   4.9200000000000008E-002    0.53960800170898438     
   4.9500000000000002E-002    0.56638425588607788     
   4.9800000000000011E-002    0.58278352022171021     
   5.0100000000000006E-002    0.58944857120513916     
   5.0400000000000000E-002    0.58736103773117065     
   5.0700000000000009E-002    0.57749533653259277     
   5.1000000000000004E-002    0.56079429388046265     
   5.1299999999999998E-002    0.53814351558685303     
   5.1600000000000007E-002    0.51014846563339233     
   5.1900000000000002E-002    0.47719728946685791     
   5.2200000000000010E-002    0.43943363428115845     
   5.2500000000000005E-002    0.39678722620010376     
   5.2800000000000000E-002    0.34917792677879333     
   5.3099999999999994E-002    0.29652073979377747     
   5.3400000000000003E-002    0.23880557715892792     
   5.3699999999999998E-002    0.17637212574481964     
   5.4000000000000006E-002    0.10994891077280045     
   5.4300000000000001E-002     4.0624879300594330E-002
   5.4599999999999996E-002    -3.0010223388671875E-002
   5.4900000000000004E-002    -9.9959231913089752E-002
   5.5199999999999999E-002   -0.16692404448986053     
   5.5499999999999994E-002   -0.22834952175617218     
   5.5800000000000002E-002   -0.28181427717208862     
   5.6099999999999997E-002   -0.32507622241973877     
   5.6400000000000006E-002   -0.35627359151840210     
   5.6700000000000000E-002   -0.37431344389915466     
   5.6999999999999995E-002   -0.37877243757247925     
   5.7300000000000004E-002   -0.37014377117156982     
   5.7599999999999998E-002   -0.34983703494071960     
   5.7900000000000007E-002   -0.31985071301460266     
   5.8200000000000002E-002   -0.28298693895339966     
   5.8499999999999996E-002   -0.24242593348026276     
   5.8800000000000005E-002   -0.20131535828113556     
   5.9100000000000000E-002   -0.16272330284118652     
   5.9400000000000008E-002   -0.12928268313407898     
   5.9700000000000003E-002   -0.10299346596002579     
   6.0000000000000012E-002    -8.5060581564903259E-002
   6.0300000000000006E-002    -7.5783841311931610E-002
   6.0600000000000001E-002    -7.4685543775558472E-002
   6.0900000000000010E-002    -8.0534636974334717E-002
   6.1200000000000004E-002    -9.1427683830261230E-002
   6.1500000000000013E-002   -0.10521848499774933     
   6.1800000000000008E-002   -0.11955165117979050     
   6.2100000000000002E-002   -0.13207773864269257     
   6.2399999999999997E-002   -0.14081977307796478     
   6.2700000000000006E-002   -0.14418569207191467     
   6.3000000000000000E-002   -0.14101567864418030     
   6.3300000000000009E-002   -0.13090637326240540     
   6.3600000000000004E-002   -0.11389076709747314     
   6.3899999999999998E-002    -9.0511530637741089E-002
   6.4199999999999993E-002    -6.1902090907096863E-002
   6.4500000000000002E-002    -2.9377423226833344E-002
   6.4800000000000010E-002     5.4541458375751972E-003
   6.5100000000000005E-002     4.0777415037155151E-002
   6.5400000000000000E-002     7.4757501482963562E-002
   6.5700000000000008E-002    0.10552836954593658     
   6.5999999999999989E-002    0.13141363859176636     
   6.6299999999999998E-002    0.15068796277046204     
   6.6600000000000006E-002    0.16159120202064514     
   6.6900000000000001E-002    0.16261468827724457     
   6.7199999999999996E-002    0.15227936208248138     
   6.7500000000000004E-002    0.12915775179862976     
   6.7800000000000013E-002     9.2093706130981445E-002
   6.8099999999999994E-002     4.0116466581821442E-002
   6.8400000000000002E-002    -2.7358759194612503E-002
   6.8700000000000011E-002   -0.11021097749471664     
   6.8999999999999992E-002   -0.20765018463134766     
   6.9300000000000000E-002   -0.31801658868789673     
   6.9600000000000009E-002   -0.43855315446853638     
   6.9900000000000004E-002   -0.56530338525772095     
   7.0199999999999999E-002   -0.69323509931564331     
   7.0500000000000007E-002   -0.81634628772735596     
   7.0800000000000016E-002   -0.92788964509963989     
   7.1099999999999997E-002    -1.0205026865005493     
   7.1400000000000005E-002    -1.0870101451873779     
   7.1700000000000000E-002    -1.1207536458969116     
   7.1999999999999995E-002    -1.1158318519592285     
   7.2300000000000003E-002    -1.0681300163269043     
   7.2600000000000012E-002   -0.97538077831268311     
   7.2900000000000006E-002   -0.83748114109039307     
   7.3200000000000001E-002   -0.65687775611877441     
   7.3499999999999996E-002   -0.43822920322418213     
   7.3800000000000004E-002   -0.18863908946514130     
   7.4099999999999999E-002     8.2735747098922729E-002
   7.4400000000000008E-002    0.36539697647094727     
   7.4700000000000003E-002    0.64763653278350830     
   7.5000000000000011E-002    0.91736280918121338     
   7.5299999999999992E-002     1.1625577211380005     
   7.5600000000000001E-002     1.3718438148498535     
   7.5900000000000009E-002     1.5353595018386841     
   7.6200000000000004E-002     1.6450034379959106     
   7.6499999999999999E-002     1.6948709487915039     
   7.6800000000000007E-002     1.6818864345550537     
   7.7099999999999988E-002     1.6058727502822876     
   7.7399999999999997E-002     1.4697587490081787     
   7.7700000000000005E-002     1.2794374227523804     
   7.8000000000000014E-002     1.0437209606170654     
   7.8299999999999995E-002    0.77405649423599243     
   7.8600000000000003E-002    0.48367178440093994     
   7.8900000000000012E-002    0.18700991570949554     
   7.9199999999999993E-002   -0.10109167546033859     
   7.9500000000000001E-002   -0.36645337939262390     
   7.9800000000000010E-002   -0.59639728069305420     
   8.0100000000000018E-002   -0.78059870004653931     
   8.0399999999999999E-002   -0.91188979148864746     
   8.0700000000000008E-002   -0.98681402206420898     
   8.1000000000000003E-002    -1.0053535699844360     
   8.1299999999999997E-002   -0.97101914882659912     
   8.1600000000000006E-002   -0.89076089859008789     
   8.1900000000000014E-002   -0.77368330955505371     
   8.2199999999999995E-002   -0.63029730319976807     
   8.2500000000000004E-002   -0.47163626551628113     
   8.2799999999999999E-002   -0.30824142694473267     
   8.3100000000000007E-002   -0.14918868243694305     
   8.3400000000000002E-002    -1.3558878563344479E-003
   8.3700000000000011E-002    0.13071507215499878     
   8.4000000000000005E-002    0.24519146978855133     
   8.4300000000000000E-002    0.34263581037521362     
   8.4599999999999995E-002    0.42529302835464478     
   8.4900000000000003E-002    0.49697998166084290     
   8.5199999999999998E-002    0.56197291612625122     
   8.5500000000000007E-002    0.62403023242950439     
   8.5800000000000001E-002    0.68593633174896240     
   8.6100000000000010E-002    0.74892365932464600     
   8.6399999999999991E-002    0.81230455636978149     
   8.6699999999999999E-002    0.87307322025299072     
   8.7000000000000008E-002    0.92626160383224487     
   8.7300000000000003E-002    0.96545231342315674     
   8.7599999999999997E-002    0.98278802633285522     
   8.7900000000000006E-002    0.97014701366424561     
   8.8200000000000014E-002    0.91982954740524292     
   8.8499999999999995E-002    0.82519996166229248     
   8.8800000000000004E-002    0.68171143531799316     
   8.9100000000000013E-002    0.48728671669960022     
   8.9399999999999993E-002    0.24305683374404907     
   8.9700000000000002E-002    -4.6432048082351685E-002
   9.0000000000000011E-002   -0.37308138608932495     
   9.0299999999999991E-002   -0.72539538145065308     
   9.0600000000000000E-002    -1.0891585350036621     
   9.0900000000000009E-002    -1.4478877782821655     
   9.1200000000000017E-002    -1.7835036516189575     
   9.1499999999999998E-002    -2.0774490833282471     
   9.1800000000000007E-002    -2.3119916915893555     
   9.2100000000000001E-002    -2.4711067676544189     
   9.2399999999999996E-002    -2.5410883426666260     
   9.2700000000000005E-002    -2.5121169090270996     
   9.3000000000000013E-002    -2.3787076473236084     
   9.3300000000000008E-002    -2.1400156021118164     
   9.3600000000000003E-002    -1.8002009391784668     
   9.3899999999999997E-002    -1.3684450387954712     
   9.4200000000000006E-002   -0.85880094766616821     
   9.4500000000000001E-002   -0.28935852646827698     
   9.4800000000000009E-002    0.31838890910148621     
   9.5100000000000004E-002    0.94004225730895996     
   9.5399999999999999E-002     1.5502374172210693     
   9.5699999999999993E-002     2.1231479644775391     
   9.6000000000000002E-002     2.6335115432739258     
   9.6300000000000011E-002     3.0587408542633057     
   9.6600000000000005E-002     3.3790595531463623     
   9.6900000000000000E-002     3.5787596702575684     
   9.7200000000000009E-002     3.6472079753875732     
   9.7499999999999989E-002     3.5792372226715088     
   9.7799999999999998E-002     3.3753652572631836     
   9.8100000000000007E-002     3.0414481163024902     
   9.8400000000000015E-002     2.5889549255371094     
   9.8699999999999996E-002     2.0343525409698486     
   9.9000000000000005E-002     1.3976938724517822     
   9.9300000000000013E-002    0.70231419801712036     
   9.9599999999999994E-002    -2.6129446923732758E-002
   9.9900000000000003E-002   -0.76104700565338135     
  0.10020000000000001         -1.4759711027145386     
  0.10049999999999999         -2.1453218460083008     
  0.10080000000000000         -2.7451846599578857     
  0.10110000000000001         -3.2542340755462646     
  0.10140000000000000         -3.6545159816741943     
  0.10170000000000000         -3.9319124221801758     
  0.10200000000000001         -4.0760898590087891     
  0.10230000000000002         -4.0811982154846191     
  0.10260000000000000         -3.9462170600891113     
  0.10290000000000001         -3.6747241020202637     
  0.10320000000000000         -3.2751390933990479     
  0.10350000000000001         -2.7602961063385010     
  0.10380000000000000         -2.1473979949951172     
  0.10410000000000001         -1.4580391645431519     
  0.10440000000000001        -0.71715700626373291     
  0.10470000000000000          4.7898203134536743E-002
  0.10500000000000000         0.80778819322586060     
  0.10530000000000000          1.5318896770477295     
  0.10560000000000000          2.1903316974639893     
  0.10590000000000001          2.7556068897247314     
  0.10620000000000000          3.2030410766601562     
  0.10650000000000001          3.5123128890991211     
  0.10679999999999999          3.6693651676177979     
  0.10710000000000000          3.6674115657806396     
  0.10740000000000001          3.5069677829742432     
  0.10770000000000000          3.1961925029754639     
  0.10800000000000000          2.7514562606811523     
  0.10830000000000001          2.1960709095001221     
  0.10859999999999999          1.5591844320297241     
  0.10890000000000000         0.87410295009613037     
  0.10920000000000001         0.17627963423728943     
  0.10950000000000001        -0.49825015664100647     
  0.10979999999999999         -1.1155081987380981     
  0.11009999999999999         -1.6456208229064941     
  0.11040000000000001         -2.0641546249389648     
  0.11070000000000001         -2.3542094230651855     
  0.11100000000000000         -2.5064351558685303     
  0.11130000000000000         -2.5196435451507568     
  0.11160000000000002         -2.4012134075164795     
  0.11190000000000001         -2.1654913425445557     
  0.11220000000000001         -1.8330056667327881     
  0.11250000000000000         -1.4288910627365112     
  0.11280000000000000        -0.98082917928695679     
  0.11309999999999999        -0.51752269268035889     
  0.11340000000000001         -6.6181428730487823E-002
  0.11369999999999998         0.34900724887847900     
  0.11400000000000000         0.70802068710327148     
  0.11430000000000000         0.99689328670501709     
  0.11460000000000002          1.2078856229782104     
  0.11489999999999999          1.3393266201019287     
  0.11520000000000001          1.3956304788589478     
  0.11550000000000001          1.3860694169998169     
  0.11580000000000000          1.3234115839004517     
  0.11609999999999999          1.2224700450897217     
  0.11640000000000002          1.0979714393615723     
  0.11670000000000001         0.96337121725082397     
  0.11700000000000001         0.82926183938980103     
  0.11730000000000000         0.70215123891830444     
  0.11760000000000000         0.58461397886276245     
  0.11789999999999999         0.47492951154708862     
  0.11820000000000001         0.36781731247901917     
  0.11850000000000001         0.25573700666427612     
  0.11880000000000000         0.12987050414085388     
  0.11910000000000000         -1.7524586990475655E-002
  0.11940000000000002        -0.19219174981117249     
  0.11970000000000001        -0.39704942703247070     
  0.12000000000000001        -0.63019496202468872     
  0.12030000000000000        -0.88509839773178101     
  0.12060000000000000         -1.1507372856140137     
  0.12089999999999999         -1.4120386838912964     
  0.12119999999999999         -1.6513309478759766     
  0.12150000000000001         -1.8490657806396484     
  0.12180000000000001         -1.9860018491744995     
  0.12210000000000000         -2.0450365543365479     
  0.12239999999999999         -2.0120570659637451     
  0.12270000000000002         -1.8782668113708496     
  0.12300000000000001         -1.6407750844955444     
  0.12330000000000001         -1.3030519485473633     
  0.12360000000000000        -0.87573707103729248     
  0.12390000000000000        -0.37594279646873474     
  0.12419999999999999         0.17378512024879456     
  0.12450000000000001         0.74622571468353271     
  0.12480000000000001          1.3108203411102295     
  0.12509999999999999          1.8361444473266602     
  0.12540000000000001          2.2917075157165527     
  0.12570000000000003          2.6496295928955078     
  0.12600000000000000          2.8866219520568848     
  0.12630000000000002          2.9858329296112061     
  0.12659999999999999          2.9380662441253662     
  0.12690000000000001          2.7422444820404053     
  0.12719999999999998          2.4059243202209473     
  0.12750000000000000          1.9453942775726318     
  0.12780000000000002          1.3840913772583008     
  0.12809999999999999         0.75135236978530884     
  0.12840000000000001          8.1391967833042145E-002
  0.12869999999999998        -0.58946090936660767     
  0.12900000000000000         -1.2252490520477295     
  0.12930000000000003         -1.7919626235961914     
  0.12959999999999999         -2.2594234943389893     
  0.12990000000000002         -2.6036338806152344     
  0.13019999999999998         -2.8080029487609863     
  0.13050000000000000         -2.8634805679321289     
  0.13080000000000003         -2.7690904140472412     
  0.13109999999999999         -2.5318787097930908     
  0.13140000000000002         -2.1660504341125488     
  0.13169999999999998         -1.6917996406555176     
  0.13200000000000001         -1.1340384483337402     
  0.13229999999999997        -0.52115255594253540     
  0.13260000000000000         0.11687868833541870     
  0.13290000000000002         0.74933320283889771     
  0.13319999999999999          1.3460180759429932     
  0.13350000000000001          1.8797827959060669     
  0.13380000000000003          2.3262898921966553     
  0.13410000000000000          2.6650278568267822     
  0.13440000000000002          2.8808629512786865     
  0.13469999999999999          2.9645056724548340     
  0.13500000000000001          2.9131221771240234     
  0.13529999999999998          2.7298567295074463     
  0.13560000000000000          2.4244031906127930     
  0.13590000000000002          2.0131664276123047     
  0.13619999999999999          1.5173293352127075     
  0.13650000000000001         0.96212369203567505     
  0.13680000000000003         0.37550824880599976     
  0.13710000000000000        -0.21353214979171753     
  0.13740000000000002        -0.77680349349975586     
  0.13769999999999999         -1.2892522811889648     
  0.13800000000000001         -1.7302815914154053     
  0.13829999999999998         -2.0843930244445801     
  0.13860000000000000         -2.3424968719482422     
  0.13890000000000002         -2.5030679702758789     
  0.13919999999999999         -2.5706107616424561     
  0.13950000000000001         -2.5548450946807861     
  0.13979999999999998         -2.4708745479583740     
  0.14010000000000000         -2.3370504379272461     
  0.14040000000000002         -2.1729943752288818     
  0.14069999999999999         -1.9983334541320801     
  0.14100000000000001         -1.8312420845031738     
  0.14130000000000004         -1.6871868371963501     
  0.14160000000000000         -1.5769392251968384     
  0.14189999999999997         -1.5059235095977783     
  0.14219999999999999         -1.4743611812591553     
  0.14250000000000002         -1.4758396148681641     
  0.14279999999999998         -1.4978694915771484     
  0.14310000000000000         -1.5225811004638672     
  0.14339999999999997         -1.5270566940307617     
  0.14369999999999999         -1.4852827787399292     
  0.14400000000000002         -1.3698914051055908     
  0.14429999999999998         -1.1540819406509399     
  0.14460000000000001        -0.81428295373916626     
  0.14490000000000003        -0.33275786042213440     
  0.14520000000000000         0.30002319812774658     
  0.14550000000000002          1.0832276344299316     
  0.14579999999999999          2.0046775341033936     
  0.14610000000000001          3.0396358966827393     
  0.14640000000000003          4.1508369445800781     
  0.14670000000000000          5.2904968261718750     
  0.14699999999999996          6.4027061462402344     
  0.14729999999999999          7.4252996444702148     
  0.14760000000000001          8.2946176528930664     
  0.14789999999999998          8.9500417709350586     
  0.14820000000000000          9.3374004364013672     