  -1.4999999999999999E-002     0.0000000000000000     
  -1.4700000000000000E-002    -3.7110477686593397E-009
  -1.4400000000000000E-002     6.8617808625032842E-009
  -1.4100000000000000E-002     1.2295774930426982E-007
  -1.3800000000000000E-002    -1.3489933577090077E-008
  -1.3500000000000000E-002    -4.4758532779288000E-008
  -1.3200000000000000E-002    -6.7807354305190086E-007
  -1.2899999999999998E-002    -9.4392162039155077E-007
  -1.2600000000000000E-002     1.3926769835680841E-006
  -1.2299999999999998E-002     3.0789110817204347E-006
  -1.2000000000000000E-002     2.6656784583724660E-006
  -1.1699999999999999E-002    -1.6248949453019851E-006
  -1.1399999999999999E-002    -6.5517802099235490E-006
  -1.1099999999999999E-002    -9.4490158542615178E-006
  -1.0799999999999999E-002    -2.6489324832962052E-006
  -1.0499999999999999E-002     1.4776820061195961E-005
  -1.0199999999999999E-002     1.9130996549606577E-005
  -9.8999999999999991E-003     1.2730636115982664E-005
  -9.5999999999999992E-003     6.8287334633151042E-006
  -9.2999999999999992E-003    -1.4577245608581751E-005
  -8.9999999999999993E-003    -3.5128637001518909E-005
  -8.6999999999999994E-003    -1.6224385678249766E-005
  -8.3999999999999995E-003     4.3467618626524135E-005
  -8.0999999999999996E-003     1.6298863086297338E-004
  -7.7999999999999988E-003     3.3314601816845750E-004
  -7.4999999999999997E-003     5.3725456717527986E-004
  -7.1999999999999998E-003     7.8537396058728920E-004
  -6.8999999999999981E-003     1.0974747202758539E-003
  -6.5999999999999982E-003     1.6171165648807898E-003
  -6.3000000000000000E-003     2.3887209427829043E-003
  -6.0000000000000001E-003     3.5129565710303595E-003
  -5.6999999999999985E-003     5.2727762503496090E-003
  -5.3999999999999986E-003     7.8588577132532589E-003
  -5.1000000000000004E-003     1.1564623511645000E-002
  -4.7999999999999987E-003     1.6743481083904665E-002
  -4.5000000000000005E-003     2.3856118894402978E-002
  -4.1999999999999989E-003     3.3332878032936830E-002
  -3.8999999999999990E-003     4.5706160342457336E-002
  -3.5999999999999990E-003     6.1785897096080955E-002
  -3.2999999999999991E-003     8.2016243609425832E-002
  -2.9999999999999992E-003    0.10681882078990235     
  -2.6999999999999993E-003    0.13650240677298253     
  -2.3999999999999994E-003    0.17107124573213461     
  -2.0999999999999977E-003    0.21004094103367787     
  -1.7999999999999995E-003    0.25188039872626433     
  -1.4999999999999979E-003    0.29457777765065174     
  -1.1999999999999997E-003    0.33471620921080714     
  -8.9999999999999976E-004    0.36730306454286588     
  -5.9999999999999810E-004    0.38619166727459264     
  -2.9999999999999992E-004    0.38341463186767211     
   0.0000000000000000         0.34998624550027380     
   3.0000000000000165E-004    0.27569513327681605     
   5.9999999999999984E-004    0.14997661556362107     
   9.0000000000000149E-004    -3.7036912984040438E-002
   1.2000000000000031E-003   -0.29464107061633182     
   1.5000000000000013E-003   -0.62959914354713398     
   1.8000000000000030E-003    -1.0459534870813343     
   2.1000000000000012E-003    -1.5436905477617344     
   2.3999999999999994E-003    -2.1175952895258376     
   2.7000000000000010E-003    -2.7582412211196043     
   2.9999999999999992E-003    -3.4505622433595278     
   3.3000000000000008E-003    -4.1752070739581342     
   3.6000000000000025E-003    -4.9088950557776343     
   3.9000000000000007E-003    -5.6249361906737079     
   4.2000000000000023E-003    -6.2950769523046688     
   4.5000000000000005E-003    -6.8879125298060160     
   4.7999999999999987E-003    -7.3709982903161517     
   5.1000000000000004E-003    -7.7096241112697896     
   5.4000000000000020E-003    -7.8645101021657240     
   5.7000000000000037E-003    -7.7929205419472307     
   5.9999999999999984E-003    -7.4438445356135503     
   6.3000000000000000E-003    -6.7601536754903861     
   6.6000000000000017E-003    -5.6775160286175890     
   6.9000000000000034E-003    -4.1266156943863166     
   7.2000000000000015E-003    -2.0423096134647949     
   7.5000000000000032E-003    0.63338195706060674     
   7.8000000000000014E-003     3.9357432995908397     
   8.0999999999999996E-003     7.8654756605407101     
   8.4000000000000012E-003     12.377352583313552     
   8.7000000000000029E-003     17.362780279788012     
   9.0000000000000011E-003     22.646359295435559     
   9.2999999999999992E-003     27.979022064376863     
   9.6000000000000009E-003     33.043002764830590     
   9.8999999999999991E-003     37.468659784948272     
   1.0200000000000001E-002     40.851226365738739     
   1.0500000000000002E-002     42.787311917344411     
   1.0800000000000004E-002     42.908808087249497     
   1.1099999999999999E-002     40.921029989263729     
   1.1400000000000000E-002     36.645437400513629     
   1.1700000000000002E-002     30.044004414434994     
   1.2000000000000004E-002     21.247721586916214     
   1.2300000000000002E-002     10.558495264174667     
   1.2600000000000000E-002    -1.5589389469297430     
   1.2900000000000002E-002    -14.495083248612872     
   1.3200000000000000E-002    -27.547933270045291     
   1.3500000000000002E-002    -39.960893296724407     
   1.3800000000000003E-002    -50.988335395061995     
   1.4100000000000001E-002    -59.956233504818101     
   1.4400000000000000E-002    -66.306149379370936     
   1.4700000000000001E-002    -69.653344552020826     
   1.4999999999999999E-002    -69.805313766844677     
   1.5300000000000001E-002    -66.779504741784478     
   1.5600000000000003E-002    -60.802931409950077     
   1.5899999999999997E-002    -52.277593655625310     
   1.6199999999999999E-002    -41.761202523132056     
   1.6500000000000001E-002    -29.906126782173715     
   1.6800000000000002E-002    -17.413812033007503     
   1.7100000000000004E-002    -4.9862264363209761     
   1.7400000000000006E-002     6.7348590293175903     
   1.7700000000000000E-002     17.195728431041232     
   1.8000000000000002E-002     25.971055384623014     
   1.8300000000000004E-002     32.777384042928475     
   1.8600000000000005E-002     37.476872573179662     
   1.8900000000000000E-002     40.079233772663542     
   1.9200000000000002E-002     40.712653486438171     
   1.9500000000000003E-002     39.610671994425616     
   1.9799999999999998E-002     37.078398848187618     
   2.0100000000000000E-002     33.458043199506761     
   2.0400000000000001E-002     29.109855588499371     
   2.0700000000000003E-002     24.371910770127172     
   2.0999999999999998E-002     19.550448901984183     
   2.1299999999999999E-002     14.899636589643027     
   2.1600000000000001E-002     10.610030320851813     
   2.1900000000000003E-002     6.8174835089471628     
   2.2200000000000004E-002     3.5919269705656092     
   2.2500000000000006E-002    0.95750840187602648     
   2.2800000000000001E-002    -1.1014066594665852     
   2.3100000000000002E-002    -2.6344137670344310     
   2.3400000000000004E-002    -3.7016031686721220     
   2.3699999999999999E-002    -4.3777937183771058     
   2.4000000000000000E-002    -4.7356187660162732     
   2.4300000000000002E-002    -4.8418866585758948     
   2.4599999999999997E-002    -4.7616288201448782     
   2.4900000000000005E-002    -4.5445615232439636     
   2.5200000000000000E-002    -4.2386548711153367     
   2.5499999999999995E-002    -3.8835629425261544     
   2.5800000000000003E-002    -3.5084900745137233     
   2.6099999999999998E-002    -3.1456894338416959     
   2.6400000000000007E-002    -2.8129882931013981     
   2.6700000000000002E-002    -2.5273209888544486     
   2.6999999999999996E-002    -2.2999108900830691     
   2.7300000000000005E-002    -2.1292922222434285     
   2.7600000000000000E-002    -2.0169317744325710     
   2.7900000000000008E-002    -1.9500022934870245     
   2.8200000000000003E-002    -1.9157727797847954     
   2.8499999999999998E-002    -1.9020648450458708     
   2.8800000000000006E-002    -1.8889937567433961     
   2.9100000000000001E-002    -1.8702067644738776     
   2.9400000000000003E-002    -1.8347485355207453     
   2.9700000000000004E-002    -1.7802265169983613     
   3.0000000000000006E-002    -1.7126441197986253     
   3.0300000000000001E-002    -1.6325465854757653     
   3.0600000000000002E-002    -1.5525413975544780     
   3.0900000000000004E-002    -1.4782562873071754     
   3.1199999999999999E-002    -1.4144281691391427     
   3.1500000000000007E-002    -1.3670631493910292     
   3.1800000000000002E-002    -1.3296616834941091     
   3.2099999999999997E-002    -1.3005475999030338     
   3.2400000000000005E-002    -1.2707495346945521     
   3.2700000000000000E-002    -1.2303394869267628     
   3.3000000000000002E-002    -1.1759071491656350     
   3.3300000000000003E-002    -1.0994082073585680     
   3.3599999999999998E-002    -1.0029290950632017     
   3.3900000000000000E-002   -0.89009373453434293     
   3.4200000000000001E-002   -0.76561243010112534     
   3.4500000000000003E-002   -0.64091318604609349     
   3.4799999999999998E-002   -0.52304125239693455     
   3.5099999999999999E-002   -0.41976313975540158     
   3.5400000000000001E-002   -0.33590802903874284     
   3.5699999999999996E-002   -0.27076969327813494     
   3.6000000000000004E-002   -0.22273147178813968     
   3.6299999999999999E-002   -0.18579628539998083     
   3.6600000000000008E-002   -0.15189244119613565     
   3.6900000000000002E-002   -0.11613924268321157     
   3.7199999999999997E-002    -7.2884283373809311E-002
   3.7500000000000006E-002    -2.0795078105613152E-002
   3.7800000000000000E-002     3.6804051912793234E-002
   3.8100000000000009E-002     9.6852722230358790E-002
   3.8400000000000004E-002    0.15137668823694472     
   3.8699999999999998E-002    0.19323834186906108     
   3.9000000000000007E-002    0.21793265949288187     
   3.9300000000000002E-002    0.22099808029050294     
   3.9600000000000003E-002    0.20477698633414398     
   3.9900000000000005E-002    0.17303992279322067     
   4.0200000000000000E-002    0.13257582782247579     
   4.0500000000000001E-002     9.5187592928470011E-002
   4.0800000000000003E-002     6.7964101228902951E-002
   4.1100000000000005E-002     5.9781616770374191E-002
   4.1399999999999999E-002     7.6253764885624742E-002
   4.1700000000000008E-002    0.11596723282607702     
   4.2000000000000003E-002    0.17818390103157178     
   4.2299999999999997E-002    0.25541939097354227     
   4.2600000000000006E-002    0.33874197678339257     
   4.2900000000000001E-002    0.42189826059105151     
   4.3200000000000002E-002    0.49416103618487561     
   4.3500000000000004E-002    0.55261282126602396     
   4.3799999999999999E-002    0.59494899113349931     
   4.4100000000000000E-002    0.61908910602917189     
   4.4400000000000002E-002    0.63288375682488507     
   4.4700000000000004E-002    0.63635246173043925     
   4.4999999999999998E-002    0.63517019715641609     
   4.5300000000000000E-002    0.63359915374148557     
   4.5600000000000002E-002    0.62758094346643567     
   4.5899999999999996E-002    0.62053288665192063     
   4.6200000000000005E-002    0.60449198102491764     
   4.6500000000000000E-002    0.57545283764724164     
   4.6799999999999994E-002    0.53200557329332709     
   4.7100000000000003E-002    0.46633937041467521     
   4.7399999999999998E-002    0.38471950060185700     
   4.7700000000000006E-002    0.28828414800393765     
   4.8000000000000001E-002    0.18386224920249150     
   4.8300000000000010E-002     8.6039510916352313E-002
   4.8600000000000004E-002     3.7837293233666802E-004
   4.8899999999999999E-002    -5.8252897901470702E-002
   4.9200000000000008E-002    -8.4065166643041866E-002
   4.9500000000000002E-002    -7.6632036077182164E-002
   4.9800000000000011E-002    -3.3946715031546670E-002
   5.0100000000000006E-002     3.1305554265393276E-002
   5.0400000000000000E-002    0.10917462222516061     
   5.0700000000000009E-002    0.18621504095372465     
   5.1000000000000004E-002    0.24407689282068368     
   5.1299999999999998E-002    0.27444582842686627     
   5.1600000000000007E-002    0.26706705150635290     
   5.1900000000000002E-002    0.21964983963822293     
   5.2200000000000010E-002    0.14097947613858697     
   5.2500000000000005E-002     3.7086979775074802E-002
   5.2800000000000000E-002    -7.4029246522728631E-002
   5.3099999999999994E-002   -0.17546625200449817     
   5.3400000000000003E-002   -0.25592176893894669     
   5.3699999999999998E-002   -0.29868995442476054     
   5.4000000000000006E-002   -0.30337768194038084     
   5.4300000000000001E-002   -0.27132816309566188     
   5.4599999999999996E-002   -0.20949641318475898     
   5.4900000000000004E-002   -0.13997445477547465     
   5.5199999999999999E-002    -7.5498856827172389E-002
   5.5499999999999994E-002    -3.8958501298311354E-002
   5.5800000000000002E-002    -4.8023474263374943E-002
   5.6099999999999997E-002   -0.10674582723340187     
   5.6400000000000006E-002   -0.22385292685065394     
   5.6700000000000000E-002   -0.38371734467037300     
   5.6999999999999995E-002   -0.56938070801897123     
   5.7300000000000004E-002   -0.75732337745748168     
   5.7599999999999998E-002   -0.90871125720066459     
   5.7900000000000007E-002   -0.99960880912270156     
   5.8200000000000002E-002   -0.99675512454774307     
   5.8499999999999996E-002   -0.87963466334510798     
   5.8800000000000005E-002   -0.64546400069754384     
   5.9100000000000000E-002   -0.29213945492199045     
   5.9400000000000008E-002    0.15303003748951483     
   5.9700000000000003E-002    0.65767774493606579     
   6.0000000000000012E-002     1.1794354027408858     
   6.0300000000000006E-002     1.6585242724921390     
   6.0600000000000001E-002     2.0487478084045883     
   6.0900000000000010E-002     2.2962037867132210     
   6.1200000000000004E-002     2.3600068322349443     
   6.1500000000000013E-002     2.2215391866847227     
   6.1800000000000008E-002     1.8659025922575978     
   6.2100000000000002E-002     1.3139422111838712     
   6.2399999999999997E-002    0.59843296565077964     
   6.2700000000000006E-002   -0.23259874022472715     
   6.3000000000000000E-002    -1.1050620069214325     
   6.3300000000000009E-002    -1.9546781645009617     
   6.3600000000000004E-002    -2.7027059403054352     
   6.3899999999999998E-002    -3.2810828519956345     
   6.4199999999999993E-002    -3.6431596685026939     
   6.4500000000000002E-002    -3.7448455940419763     
   6.4800000000000010E-002    -3.5819420718902180     
   6.5100000000000005E-002    -3.1632412879418155     
   6.5400000000000000E-002    -2.5200877398716841     
   6.5700000000000008E-002    -1.7133610041192640     
   6.5999999999999989E-002   -0.80034310621378069     
   6.6299999999999998E-002    0.13963044007100223     
   6.6600000000000006E-002     1.0358476037829725     
   6.6900000000000001E-002     1.8274932507035331     
   6.7199999999999996E-002     2.4555473229188891     
   6.7500000000000004E-002     2.8927116224467788     
   6.7800000000000013E-002     3.1186503783405257     
   6.8099999999999994E-002     3.1363331768197127     
   6.8400000000000002E-002     2.9678400196079160     
   6.8700000000000011E-002     2.6390362827735352     
   6.8999999999999992E-002     2.1936877952458005     
   6.9300000000000000E-002     1.6723147531859155     
   6.9600000000000009E-002     1.1165385439365849     
   6.9900000000000004E-002    0.56649121362836041     
   7.0199999999999999E-002     5.0983185991384516E-002
   7.0500000000000007E-002   -0.40420090012070742     
   7.0800000000000016E-002   -0.78334975967359455     
   7.1099999999999997E-002    -1.0776868572441742     
   7.1400000000000005E-002    -1.2830768630404563     
   7.1700000000000000E-002    -1.4013895363301181     
   7.1999999999999995E-002    -1.4381934378153174     
   7.2300000000000003E-002    -1.4011044101409316     
   7.2600000000000012E-002    -1.2999740268078592     
   7.2900000000000006E-002    -1.1478264132122913     
   7.3200000000000001E-002   -0.95631376371577836     
   7.3499999999999996E-002   -0.74093653458716702     
   7.3800000000000004E-002   -0.51603343799588508     
   7.4099999999999999E-002   -0.29467285872307514     
   7.4400000000000008E-002    -9.1719044690604434E-002
   7.4700000000000003E-002     8.4676306806033885E-002
   7.5000000000000011E-002    0.22560291895689843     
   7.5299999999999992E-002    0.32726192333744208     
   7.5600000000000001E-002    0.39184833040491895     
   7.5900000000000009E-002    0.42031535965355893     
   7.6200000000000004E-002    0.42083878891958104     
   7.6499999999999999E-002    0.40150519846385624     
   7.6800000000000007E-002    0.36848966770230529     
   7.7099999999999988E-002    0.33222372670248701     
   7.7399999999999997E-002    0.29605813818650217     
   7.7700000000000005E-002    0.26332638628148786     
   7.8000000000000014E-002    0.23733464633708978     
   7.8299999999999995E-002    0.21250198947631449     
   7.8600000000000003E-002    0.19051646562133229     
   7.8900000000000012E-002    0.16672701208189644     
   7.9199999999999993E-002    0.13747789614475026     
   7.9500000000000001E-002    0.10698105604289143     
   7.9800000000000010E-002     6.9586156360989193E-002
   8.0100000000000018E-002     3.2082520769074474E-002
   8.0399999999999999E-002    -2.7598616065089843E-003
   8.0700000000000008E-002    -3.5095189499948165E-002
   8.1000000000000003E-002    -5.4923717381771153E-002
   8.1299999999999997E-002    -6.7235328223947732E-002
   8.1600000000000006E-002    -6.7332312400843142E-002
   8.1900000000000014E-002    -5.6126395869942163E-002
   8.2199999999999995E-002    -4.1766233410057696E-002
   8.2500000000000004E-002    -2.0333319705260089E-002
   8.2799999999999999E-002    -2.9303348658502593E-003
   8.3100000000000007E-002     1.0570609535677566E-002
   8.3400000000000002E-002     1.9810211491848140E-002
   8.3700000000000011E-002     1.7997013676875007E-002
   8.4000000000000005E-002     1.3233295491048791E-002
   8.4300000000000000E-002     1.9572485940334561E-003
   8.4599999999999995E-002    -1.1507018637500865E-002
   8.4900000000000003E-002    -2.1487284404632434E-002
   8.5199999999999998E-002    -3.1408589230144335E-002
   8.5500000000000007E-002    -3.5004463173899714E-002
   8.5800000000000001E-002    -3.5525417529156389E-002
   8.6100000000000010E-002    -3.5321209857587466E-002
   8.6399999999999991E-002    -3.2462431307600070E-002
   8.6699999999999999E-002    -3.3578048111283287E-002
   8.7000000000000008E-002    -3.7909571318516910E-002
   8.7300000000000003E-002    -4.6025290907081184E-002
   8.7599999999999997E-002    -6.0517747654043608E-002
   8.7900000000000006E-002    -7.5800475295281444E-002
   8.8200000000000014E-002    -9.2136855535255968E-002
   8.8499999999999995E-002   -0.10652603905111113     
   8.8800000000000004E-002   -0.11334966534427393     
   8.9100000000000013E-002   -0.11504400416462177     
   8.9399999999999993E-002   -0.10717639962501174     
   8.9700000000000002E-002    -9.1267927735173338E-002
   9.0000000000000011E-002    -7.1470237934992298E-002
   9.0299999999999991E-002    -4.5881286191140180E-002
   9.0600000000000000E-002    -2.2506195711423538E-002
   9.0900000000000009E-002    -1.0939567382789936E-003
   9.1200000000000017E-002     1.6577371546618758E-002
   9.1499999999999998E-002     2.5789271715419892E-002
   9.1800000000000007E-002     3.1993158553999868E-002
   9.2100000000000001E-002     3.1394143642950789E-002
   9.2399999999999996E-002     2.7973414802168084E-002
   9.2700000000000005E-002     2.4428137580415316E-002
   9.3000000000000013E-002     1.9022393503859925E-002
   9.3300000000000008E-002     1.7045569351064827E-002
   9.3600000000000003E-002     1.5222106122525891E-002
   9.3899999999999997E-002     1.4182443913995230E-002
   9.4200000000000006E-002     1.3712735490253342E-002
   9.4500000000000001E-002     1.0561372055109874E-002
   9.4800000000000009E-002     6.0873958245051263E-003
   9.5100000000000004E-002    -1.4087267326104991E-003
   9.5399999999999999E-002    -1.1217538233750157E-002
   9.5699999999999993E-002    -2.1625157551969476E-002
   9.6000000000000002E-002    -3.1569244662197127E-002
   9.6300000000000011E-002    -3.8794453984225763E-002
   9.6600000000000005E-002    -4.1322290420778396E-002
   9.6900000000000000E-002    -3.8397010109560870E-002
   9.7200000000000009E-002    -2.9702775959773664E-002
   9.7499999999999989E-002    -1.5174496047029834E-002
   9.7799999999999998E-002     1.9791576263320509E-003
   9.8100000000000007E-002     2.1243837624736361E-002
   9.8400000000000015E-002     3.9722180646278415E-002
   9.8699999999999996E-002     5.4267981188015790E-002
   9.9000000000000005E-002     6.5393713801880526E-002
   9.9300000000000013E-002     7.0071629819702830E-002
   9.9599999999999994E-002     7.0146777165666196E-002
   9.9900000000000003E-002     6.5873698391973740E-002
  0.10020000000000001          5.7800939464357104E-002
  0.10049999999999999          4.9371677506665046E-002
  0.10080000000000000          4.0060572276324091E-002
  0.10110000000000001          3.1749747335884981E-002
  0.10140000000000000          2.5054011603599546E-002
  0.10170000000000000          1.8717954532031567E-002
  0.10200000000000001          1.2687883608991174E-002
  0.10230000000000002          6.7158113816525311E-003
  0.10260000000000000         -1.2038971500817341E-003
  0.10290000000000001         -9.6389732915443949E-003
  0.10320000000000000         -1.8850047057096253E-002
  0.10350000000000001         -2.8767180520882341E-002
  0.10380000000000000         -3.5549048080934287E-002
  0.10410000000000001         -4.0893779843658717E-002
  0.10440000000000001         -4.1127110379454962E-002
  0.10470000000000000         -3.5674043581928161E-002
  0.10500000000000000         -2.7219181343134891E-002
  0.10530000000000000         -1.1834658147564514E-002
  0.10560000000000000          4.1267734456782446E-003
  0.10590000000000001          2.0914575218047515E-002
  0.10620000000000000          3.7465603429458483E-002
  0.10650000000000001          4.7236811169910409E-002
  0.10679999999999999          5.5209661624192385E-002
  0.10710000000000000          5.5350403650391344E-002
  0.10740000000000001          5.0325909347267550E-002
  0.10770000000000000          4.3002706616974085E-002
  0.10800000000000000          2.9707614855278480E-002
  0.10830000000000001          1.8798476193645469E-002
  0.10859999999999999          6.8589796221879828E-003
  0.10890000000000000         -3.2731867444397156E-003
  0.10920000000000001         -9.3632018102972059E-003
  0.10950000000000001         -1.5966935239106639E-002
  0.10979999999999999         -1.9156795785061687E-002
  0.11009999999999999         -2.2770258413701283E-002
  0.11040000000000001         -2.7459980098702097E-002
  0.11070000000000001         -3.1668620517488533E-002
  0.11100000000000000         -3.8362587294173980E-002
  0.11130000000000000         -4.4491531944970519E-002
  0.11160000000000002         -4.8942185955898054E-002
  0.11190000000000001         -5.1860002278369288E-002
  0.11220000000000001         -4.9906508289956242E-002
  0.11250000000000000         -4.3362169620324242E-002
  0.11280000000000000         -3.2567721736290411E-002
  0.11309999999999999         -1.6054636457546019E-002
  0.11340000000000001          2.1068088415984176E-003
  0.11369999999999998          2.0921829956497051E-002
  0.11400000000000000          3.8555528427619556E-002
  0.11430000000000000          4.9674104683566478E-002
  0.11460000000000002          5.6726233030134798E-002
  0.11489999999999999          5.5939870935795666E-002
  0.11520000000000001          4.8041323562174942E-002
  0.11550000000000001          3.7134456294447005E-002
  0.11580000000000000          2.0417763828823987E-002
  0.11609999999999999          4.7014155280584169E-003
  0.11640000000000002         -1.0218545251329703E-002
  0.11670000000000001         -2.3000577712357195E-002
  0.11700000000000001         -2.9770553755970042E-002
  0.11730000000000000         -3.4789441308037405E-002
  0.11760000000000000         -3.5407733492095028E-002
  0.11789999999999999         -3.3925742225828337E-002
  0.11820000000000001         -3.3560048643631601E-002
  0.11850000000000001         -3.2212186356992689E-002
  0.11880000000000000         -3.2870032763407497E-002
  0.11910000000000000         -3.4570007745936771E-002
  0.11940000000000002         -3.4754523393257908E-002
  0.11970000000000001         -3.5161249063538680E-002
  0.12000000000000001         -3.1933585178567148E-002
  0.12030000000000000         -2.4279230144316433E-002
  0.12060000000000000         -1.4205447081257705E-002
  0.12089999999999999          2.1056561090038728E-003
  0.12119999999999999          1.9297368476950294E-002
  0.12150000000000001          3.6576627052625987E-002
  0.12180000000000001          5.3726328654995381E-002
  0.12210000000000000          6.2973749053129469E-002
  0.12239999999999999          6.8547593098249426E-002
  0.12270000000000002          6.5759273026073595E-002
  0.12300000000000001          5.4476233567786206E-002
  0.12330000000000001          4.0858566056517387E-002
  0.12360000000000000          1.9765991021728574E-002
  0.12390000000000000          4.7655029518856029E-004
  0.12419999999999999         -1.7468848158108674E-002
  0.12450000000000001         -3.3590590067909210E-002
  0.12480000000000001         -4.0605947226621808E-002
  0.12509999999999999         -4.5716923146094990E-002
  0.12540000000000001         -4.3590816019176692E-002
  0.12570000000000003         -3.7861192984321113E-002
  0.12600000000000000         -3.2657397219396089E-002
  0.12630000000000002         -2.4054194824697187E-002
  0.12659999999999999         -1.9363460581943270E-002
  0.12690000000000001         -1.5034279675787000E-002
  0.12719999999999998         -1.1332908931561962E-002
  0.12750000000000000         -1.0053971520858683E-002
  0.12780000000000002         -6.2501151840797520E-003
  0.12809999999999999         -1.5763208697160691E-003
  0.12840000000000001          5.7319300921195859E-003
  0.12869999999999998          1.7026119017424235E-002
  0.12900000000000000          2.9282948637404771E-002
  0.12930000000000003          4.2448746333237142E-002
  0.12959999999999999          5.4817776531524198E-002
  0.12990000000000002          6.2016175893556680E-002
  0.13019999999999998          6.4900996550013607E-002
  0.13050000000000000          6.0965284614005022E-002
  0.13080000000000003          4.8969428794783498E-002
  0.13109999999999999          3.3115918674339162E-002
  0.13140000000000002          1.1324117355517388E-002
  0.13169999999999998         -1.0907702898918514E-002
  0.13200000000000001         -3.0704426610592028E-002
  0.13229999999999997         -4.8563227549490495E-002
  0.13260000000000000         -5.7772299775670666E-002
  0.13290000000000002         -6.1860678071154140E-002
  0.13319999999999999         -5.9019912313184930E-002
  0.13350000000000001         -4.9012234428413182E-002
  0.13380000000000003         -3.7775676533879893E-002
  0.13410000000000000         -2.2704879841439429E-002
  0.13440000000000002         -9.4521211740223876E-003
  0.13469999999999999          9.6347002581276264E-004
  0.13500000000000001          1.0176523124533876E-002
  0.13529999999999998          1.4342558368129366E-002
  0.13560000000000000          1.7304158198189645E-002
  0.13590000000000002          1.9417459009142157E-002
  0.13619999999999999          2.0117994824853547E-002
  0.13650000000000001          2.3450951804325326E-002
  0.13680000000000003          2.7281632668003875E-002
  0.13710000000000000          3.1453170841952316E-002
  0.13740000000000002          3.7534367718657882E-002
  0.13769999999999999          3.9972448759613977E-002
  0.13800000000000001          4.0764616358351435E-002
  0.13829999999999998          3.7573058260673475E-002
  0.13860000000000000          2.7263120502222682E-002
  0.13890000000000002          1.5420666746687406E-002
  0.13919999999999999         -2.6026272381073356E-003
  0.13950000000000001         -2.1221068509396979E-002
  0.13979999999999998         -3.7608441598711018E-002
  0.14010000000000000         -5.4156404435274030E-002
  0.14040000000000002         -6.1674961138519446E-002
  0.14069999999999999         -6.5247672586007388E-002
  0.14100000000000001         -6.1569522828505918E-002
  0.14130000000000004         -4.9546996218209932E-002
  0.14160000000000000         -3.6832309674123209E-002
  0.14189999999999997         -1.8309203648765454E-002
  0.14219999999999999         -2.2848963539088829E-003
  0.14250000000000002          1.1516685960488715E-002
  0.14279999999999998          2.3914795486079887E-002
  0.14310000000000000          2.8525406520264918E-002
  0.14339999999999997          3.2295716095015026E-002
  0.14369999999999999          3.1404294233705388E-002
  0.14400000000000002          2.8379029455458227E-002
  0.14429999999999998          2.6969320330077040E-002
  0.14460000000000001          2.3981917780384471E-002
  0.14490000000000003          2.4062863434297699E-002
  0.14520000000000000          2.4564843450327223E-002
  0.14550000000000002          2.4603664670892644E-002
  0.14579999999999999          2.4733581038140773E-002
  0.14610000000000001          2.1424035631460947E-002
  0.14640000000000003          1.5068643519880631E-002
  0.14670000000000000          5.4635493172743889E-003
  0.14699999999999996         -8.2091939145721438E-003
  0.14729999999999999         -2.3098515815267229E-002
  0.14760000000000001         -3.7680028896871942E-002
  0.14789999999999998         -5.0982260440967098E-002
  0.14820000000000000         -5.8761675410916814E-002