  -1.4999999999999999E-002     0.0000000000000000     
  -1.4700000000000000E-002     0.0000000000000000     
  -1.4400000000000000E-002     0.0000000000000000     
  -1.4100000000000000E-002     0.0000000000000000     
  -1.3800000000000000E-002     0.0000000000000000     
  -1.3500000000000000E-002     0.0000000000000000     
  -1.3200000000000000E-002     0.0000000000000000     
  -1.2899999999999998E-002     0.0000000000000000     
  -1.2600000000000000E-002     0.0000000000000000     
  -1.2299999999999998E-002     0.0000000000000000     
  -1.2000000000000000E-002     0.0000000000000000     
  -1.1699999999999999E-002     0.0000000000000000     
  -1.1399999999999999E-002     0.0000000000000000     
  -1.1099999999999999E-002     0.0000000000000000     
  -1.0799999999999999E-002     0.0000000000000000     
  -1.0499999999999999E-002     3.8625906548484129E-038
  -1.0199999999999999E-002    -9.0253916722595307E-036
  -9.8999999999999991E-003     4.1353955546775385E-034
  -9.5999999999999992E-003    -9.4590024723433385E-033
  -9.2999999999999992E-003     1.0069670171290785E-031
  -8.9999999999999993E-003    -7.2483633586957703E-031
  -8.6999999999999994E-003     3.4158722313991195E-030
  -8.3999999999999995E-003    -8.6807327535908203E-030
  -8.0999999999999996E-003    -4.6397593336560589E-030
  -7.7999999999999988E-003     1.4060204614456621E-028
  -7.4999999999999997E-003    -6.5605898368477327E-028
  -7.1999999999999998E-003     1.9784288687412875E-027
  -6.8999999999999981E-003    -5.2803167359226403E-027
  -6.5999999999999982E-003     1.7758453053090496E-026
  -6.3000000000000000E-003    -8.0560127318690032E-026
  -6.0000000000000001E-003     3.8281728609810135E-025
  -5.6999999999999985E-003    -1.6458164809959277E-024
  -5.3999999999999986E-003     6.2177050194911255E-024
  -5.1000000000000004E-003    -2.0735757940924329E-023
  -4.7999999999999987E-003     6.1317451343458170E-023
  -4.5000000000000005E-003    -1.5885801968124650E-022
  -4.1999999999999989E-003     3.4399530590013538E-022
  -3.8999999999999990E-003    -5.3627198525966616E-022
  -3.5999999999999990E-003     1.5193274232294331E-022
  -3.2999999999999991E-003     2.8872474728770256E-021
  -2.9999999999999992E-003    -1.4065750720892478E-020
  -2.6999999999999993E-003     4.4935252301970633E-020
  -2.3999999999999994E-003    -1.1452111370582944E-019
  -2.0999999999999977E-003     2.4281026096669189E-019
  -1.7999999999999995E-003    -4.2183807246549179E-019
  -1.4999999999999979E-003     5.4722655581207220E-019
  -1.1999999999999997E-003    -3.2425686807231823E-019
  -8.9999999999999976E-004    -7.2774264617861399E-019
  -5.9999999999999810E-004     2.8627323065225073E-018
  -2.9999999999999992E-004    -4.8986574725385547E-018
   0.0000000000000000          2.3140230811612221E-018
   3.0000000000000165E-004     1.3710080247341781E-017
   5.9999999999999984E-004    -5.2484934121289727E-017
   9.0000000000000149E-004     1.1093253020499650E-016
   1.2000000000000031E-003    -1.5218827575264206E-016
   1.5000000000000013E-003     8.7824703780290737E-017
   1.8000000000000030E-003     2.1217889455100525E-016
   2.1000000000000012E-003    -8.5861765805521979E-016
   2.3999999999999994E-003     1.8251243378219432E-015
   2.7000000000000010E-003    -2.7550216712731845E-015
   2.9999999999999992E-003     2.5597890472605408E-015
   3.3000000000000008E-003     1.2322254151829297E-015
   3.6000000000000025E-003    -1.0757863919347646E-014
   3.9000000000000007E-003     8.0548919991667647E-015
   4.2000000000000023E-003     1.3564555023919816E-013
   4.5000000000000005E-003    -9.3411378892377384E-013
   4.7999999999999987E-003     3.8440362004621420E-012
   5.1000000000000004E-003    -1.1765912896755104E-011
   5.4000000000000020E-003     2.7269330890589139E-011
   5.7000000000000037E-003    -4.0314619698111898E-011
   5.9999999999999984E-003    -1.7357254522565313E-011
   6.3000000000000000E-003     3.8325731477328873E-010
   6.6000000000000017E-003    -1.5445141832159948E-009
   6.9000000000000034E-003     3.5386913399548803E-009
   7.2000000000000015E-003    -2.6496111971141545E-009
   7.5000000000000032E-003    -1.3468798520932523E-008
   7.8000000000000014E-003     5.4092847534548127E-008
   8.0999999999999996E-003    -6.2722122606828634E-008
   8.4000000000000012E-003    -1.2987766240257770E-007
   8.7000000000000029E-003     4.9512919986227644E-007
   9.0000000000000011E-003    -1.4123088476480916E-007
   9.2999999999999992E-003    -1.6913694480535924E-006
   9.6000000000000009E-003     1.3925167650086223E-006
   9.8999999999999991E-003     4.8918841457634699E-006
   1.0200000000000001E-002    -3.4340789625275647E-006
   1.0500000000000002E-002    -1.5658211850677617E-005
   1.0800000000000004E-002     6.4445600855833618E-007
   1.1099999999999999E-002     6.8125751568004489E-005
   1.1400000000000000E-002     1.7199457215610892E-004
   1.1700000000000002E-002     2.8489169199019670E-004
   1.2000000000000004E-002     4.0942779742181301E-004
   1.2300000000000002E-002     5.8312149485573173E-004
   1.2600000000000000E-002     8.7160302791744471E-004
   1.2900000000000002E-002     1.3536278856918216E-003
   1.3200000000000000E-002     2.1013279911130667E-003
   1.3500000000000002E-002     3.2028288114815950E-003
   1.3800000000000003E-002     4.7896881587803364E-003
   1.4100000000000001E-002     7.0455442182719707E-003
   1.4400000000000000E-002     1.0222732089459896E-002
   1.4700000000000001E-002     1.4643591828644276E-002
   1.4999999999999999E-002     2.0688256248831749E-002
   1.5300000000000001E-002     2.8780436143279076E-002
   1.5600000000000003E-002     3.9391249418258667E-002
   1.5899999999999997E-002     5.3047761321067810E-002
   1.6199999999999999E-002     7.0261962711811066E-002
   1.6500000000000001E-002     9.1440528631210327E-002
   1.6800000000000002E-002    0.11683005839586258     
   1.7100000000000004E-002    0.14641559123992920     
   1.7400000000000006E-002    0.17977689206600189     
   1.7700000000000000E-002    0.21591097116470337     
   1.8000000000000002E-002    0.25305765867233276     
   1.8300000000000004E-002    0.28860038518905640     
   1.8600000000000005E-002    0.31891411542892456     
   1.8900000000000000E-002    0.33932837843894958     
   1.9200000000000002E-002    0.34418815374374390     
   1.9500000000000003E-002    0.32703414559364319     
   1.9799999999999998E-002    0.28091982007026672     
   2.0100000000000000E-002    0.19890536367893219     
   2.0400000000000001E-002     7.4672691524028778E-002
   2.0700000000000003E-002    -9.6559621393680573E-002
   2.0999999999999998E-002   -0.31717133522033691     
   2.1299999999999999E-002   -0.58619403839111328     
   2.1600000000000001E-002   -0.89849632978439331     
   2.1900000000000003E-002    -1.2441817522048950     
   2.2200000000000004E-002    -1.6081526279449463     
   2.2500000000000006E-002    -1.9703158140182495     
   2.2800000000000001E-002    -2.3062059879302979     
   2.3100000000000002E-002    -2.5881631374359131     
   2.3400000000000004E-002    -2.7870976924896240     
   2.3699999999999999E-002    -2.8747165203094482     
   2.4000000000000000E-002    -2.8260438442230225     
   2.4300000000000002E-002    -2.6219973564147949     
   2.4599999999999997E-002    -2.2517490386962891     
   2.4900000000000005E-002    -1.7147185802459717     
   2.5200000000000000E-002    -1.0219209194183350     
   2.5499999999999995E-002   -0.19633384048938751     
   2.5800000000000003E-002    0.72786629199981689     
   2.6099999999999998E-002     1.7068717479705811     
   2.6400000000000007E-002     2.6902644634246826     
   2.6700000000000002E-002     3.6240139007568359     
   2.6999999999999996E-002     4.4548478126525879     
   2.7300000000000005E-002     5.1340856552124023     
   2.7600000000000000E-002     5.6211180686950684     
   2.7900000000000008E-002     5.8871169090270996     
   2.8200000000000003E-002     5.9164652824401855     
   2.8499999999999998E-002     5.7084832191467285     
   2.8800000000000006E-002     5.2767095565795898     
   2.9100000000000001E-002     4.6477274894714355     
   2.9400000000000003E-002     3.8589046001434326     
   2.9700000000000004E-002     2.9548177719116211     
   3.0000000000000006E-002     1.9841750860214233     
   3.0300000000000001E-002    0.99557036161422729     
   3.0600000000000002E-002     3.4179352223873138E-002
   3.0900000000000004E-002   -0.86077469587326050     
   3.1199999999999999E-002    -1.6592707633972168     
   3.1500000000000007E-002    -2.3405265808105469     
   3.1800000000000002E-002    -2.8946213722229004     
   3.2099999999999997E-002    -3.3210725784301758     
   3.2400000000000005E-002    -3.6281609535217285     
   3.2700000000000000E-002    -3.8306965827941895     
   3.3000000000000002E-002    -3.9474503993988037     
   3.3300000000000003E-002    -3.9991972446441650     
   3.3599999999999998E-002    -4.0052213668823242     
   3.3900000000000000E-002    -3.9820258617401123     
   3.4200000000000001E-002    -3.9404790401458740     
   3.4500000000000003E-002    -3.8847723007202148     
   3.4799999999999998E-002    -3.8123540878295898     
   3.5099999999999999E-002    -3.7131116390228271     
   3.5400000000000001E-002    -3.5716588497161865     
   3.5699999999999996E-002    -3.3679165840148926     
   3.6000000000000004E-002    -3.0803868770599365     
   3.6299999999999999E-002    -2.6888639926910400     
   3.6600000000000008E-002    -2.1769123077392578     
   3.6900000000000002E-002    -1.5361026525497437     
   3.7199999999999997E-002   -0.76703071594238281     
   3.7500000000000006E-002    0.11743099242448807     
   3.7800000000000000E-002     1.0923923254013062     
   3.8100000000000009E-002     2.1207149028778076     
   3.8400000000000004E-002     3.1543192863464355     
   3.8699999999999998E-002     4.1382651329040527     
   3.9000000000000007E-002     5.0126681327819824     
   3.9300000000000002E-002     5.7186899185180664     
   3.9600000000000003E-002     6.2023539543151855     
   3.9900000000000005E-002     6.4197854995727539     
   4.0200000000000000E-002     6.3413033485412598     
   4.0500000000000001E-002     5.9542155265808105     
   4.0800000000000003E-002     5.2652120590209961     
   4.1100000000000005E-002     4.3000283241271973     
   4.1399999999999999E-002     3.1033370494842529     
   4.1700000000000008E-002     1.7352120876312256     
   4.2000000000000003E-002    0.26801475882530212     
   4.2299999999999997E-002    -1.2189766168594360     
   4.2600000000000006E-002    -2.6448729038238525     
   4.2900000000000001E-002    -3.9314579963684082     
   4.3200000000000002E-002    -5.0104632377624512     
   4.3500000000000004E-002    -5.8255543708801270     
   4.3799999999999999E-002    -6.3380479812622070     
   4.4100000000000000E-002    -6.5281758308410645     
   4.4400000000000002E-002    -6.3953490257263184     
   4.4700000000000004E-002    -5.9601287841796875     
   4.4999999999999998E-002    -5.2590737342834473     
   4.5300000000000000E-002    -4.3453979492187500     
   4.5600000000000002E-002    -3.2830715179443359     
   4.5899999999999996E-002    -2.1420910358428955     
   4.6200000000000005E-002   -0.99609327316284180     
   4.6500000000000000E-002     8.6169593036174774E-002
   4.6799999999999994E-002     1.0421921014785767     
   4.7100000000000003E-002     1.8220181465148926     
   4.7399999999999998E-002     2.3911249637603760     
   4.7700000000000006E-002     2.7305009365081787     
   4.8000000000000001E-002     2.8415267467498779     
   4.8300000000000010E-002     2.7408955097198486     
   4.8600000000000004E-002     2.4622406959533691     
   4.8899999999999999E-002     2.0512883663177490     
   4.9200000000000008E-002     1.5612803697586060     
   4.9500000000000002E-002     1.0501430034637451     
   4.9800000000000011E-002    0.57212406396865845     
   5.0100000000000006E-002    0.17588466405868530     
   5.0400000000000000E-002   -0.10180860012769699     
   5.0700000000000009E-002   -0.23895286023616791     
   5.1000000000000004E-002   -0.22974927723407745     
   5.1299999999999998E-002    -8.5345737636089325E-002
   5.1600000000000007E-002    0.16899880766868591     
   5.1900000000000002E-002    0.49571591615676880     
   5.2200000000000010E-002    0.85143846273422241     
   5.2500000000000005E-002     1.1902869939804077     
   5.2800000000000000E-002     1.4717880487442017     
   5.3099999999999994E-002     1.6650084257125854     
   5.3400000000000003E-002     1.7524583339691162     
   5.3699999999999998E-002     1.7342852354049683     
   5.4000000000000006E-002     1.6257721185684204     
   5.4300000000000001E-002     1.4598720073699951     
   5.4599999999999996E-002     1.2798398733139038     
   5.4900000000000004E-002     1.1355971097946167     
   5.5199999999999999E-002     1.0779296159744263     
   5.5499999999999994E-002     1.1493290662765503     
   5.5800000000000002E-002     1.3818680047988892     
   5.6099999999999997E-002     1.7877222299575806     
   5.6400000000000006E-002     2.3591928482055664     
   5.6700000000000000E-002     3.0668785572052002     
   5.6999999999999995E-002     3.8603458404541016     
   5.7300000000000004E-002     4.6746406555175781     
   5.7599999999999998E-002     5.4323043823242188     
   5.7900000000000007E-002     6.0535812377929688     
   5.8200000000000002E-002     6.4619970321655273     
   5.8499999999999996E-002     6.5910344123840332     
   5.8800000000000005E-002     6.3915066719055176     
   5.9100000000000000E-002     5.8341298103332520     
   5.9400000000000008E-002     4.9135079383850098     
   5.9700000000000003E-002     3.6464362144470215     
   6.0000000000000012E-002     2.0719563961029053     
   6.0300000000000006E-002    0.24680191278457642     
   6.0600000000000001E-002    -1.7583669424057007     
   6.0900000000000010E-002    -3.8642745018005371     
   6.1200000000000004E-002    -5.9882721900939941     
   6.1500000000000013E-002    -8.0476608276367188     
   6.1800000000000008E-002    -9.9664983749389648     
   6.2100000000000002E-002    -11.674008369445801     
   6.2399999999999997E-002    -13.111096382141113     
   6.2700000000000006E-002    -14.228916168212891     
   6.3000000000000000E-002    -14.987960815429688     
   6.3300000000000009E-002    -15.361677169799805     
   6.3600000000000004E-002    -15.331071853637695     
   6.3899999999999998E-002    -14.889649391174316     
   6.4199999999999993E-002    -14.039192199707031     
   6.4500000000000002E-002    -12.789837837219238     
   6.4800000000000010E-002    -11.164630889892578     
   6.5100000000000005E-002    -9.1940612792968750     
   6.5400000000000000E-002    -6.9229145050048828     
   6.5700000000000008E-002    -4.4049739837646484     
   6.5999999999999989E-002    -1.7069512605667114     
   6.6299999999999998E-002     1.0922663211822510     
   6.6600000000000006E-002     3.9069929122924805     
   6.6900000000000001E-002     6.6405687332153320     
   6.7199999999999996E-002     9.1955394744873047     
   6.7500000000000004E-002     11.473360061645508     
   6.7800000000000013E-002     13.379922866821289     
   6.8099999999999994E-002     14.834265708923340     
   6.8400000000000002E-002     15.768157005310059     
   6.8700000000000011E-002     16.137878417968750     
   6.8999999999999992E-002     15.922723770141602     
   6.9300000000000000E-002     15.130269050598145     
   6.9600000000000009E-002     13.798954963684082     
   6.9900000000000004E-002     11.993792533874512     
   7.0199999999999999E-002     9.8074111938476562     
   7.0500000000000007E-002     7.3535871505737305     
   7.0800000000000016E-002     4.7615985870361328     
   7.1099999999999997E-002     2.1690478324890137     
   7.1400000000000005E-002   -0.28628456592559814     
   7.1700000000000000E-002    -2.4755618572235107     
   7.1999999999999995E-002    -4.2865996360778809     
   7.2300000000000003E-002    -5.6312961578369141     
   7.2600000000000012E-002    -6.4523105621337891     
   7.2900000000000006E-002    -6.7249684333801270     
   7.3200000000000001E-002    -6.4627628326416016     
   7.3499999999999996E-002    -5.7121334075927734     
   7.3800000000000004E-002    -4.5525441169738770     
   7.4099999999999999E-002    -3.0919821262359619     
   7.4400000000000008E-002    -1.4543697834014893     
   7.4700000000000003E-002    0.22412315011024475     
   7.5000000000000011E-002     1.8077973127365112     
   7.5299999999999992E-002     3.1710879802703857     
   7.5600000000000001E-002     4.2056941986083984     
   7.5900000000000009E-002     4.8344039916992188     
   7.6200000000000004E-002     5.0115475654602051     
   7.6499999999999999E-002     4.7280158996582031     
   7.6800000000000007E-002     4.0130209922790527     
   7.7099999999999988E-002     2.9283690452575684     
   7.7399999999999997E-002     1.5671285390853882     
   7.7700000000000005E-002     4.0879055857658386E-002
   7.8000000000000014E-002    -1.5282852649688721     
   7.8299999999999995E-002    -3.0161831378936768     
   7.8600000000000003E-002    -4.3128314018249512     
   7.8900000000000012E-002    -5.3269491195678711     
   7.9199999999999993E-002    -5.9956154823303223     
   7.9500000000000001E-002    -6.2901725769042969     
   7.9800000000000010E-002    -6.2155504226684570     
   8.0100000000000018E-002    -5.8098015785217285     
   8.0399999999999999E-002    -5.1395521163940430     
   8.0700000000000008E-002    -4.2909021377563477     
   8.1000000000000003E-002    -3.3615407943725586     
   8.1299999999999997E-002    -2.4485590457916260     
   8.1600000000000006E-002    -1.6397330760955811     
   8.1900000000000014E-002    -1.0061994791030884     
   8.2199999999999995E-002   -0.59213912487030029     
   8.2500000000000004E-002   -0.41591802239418030     
   8.2799999999999999E-002   -0.46836709976196289     
   8.3100000000000007E-002   -0.71337020397186279     
   8.3400000000000002E-002    -1.0980156660079956     
   8.3700000000000011E-002    -1.5551674365997314     
   8.4000000000000005E-002    -2.0158648490905762     
   8.4300000000000000E-002    -2.4158492088317871     
   8.4599999999999995E-002    -2.7006387710571289     
   8.4900000000000003E-002    -2.8349521160125732     
   8.5199999999999998E-002    -2.7998187541961670     
   8.5500000000000007E-002    -2.5974950790405273     
   8.5800000000000001E-002    -2.2478487491607666     
   8.6100000000000010E-002    -1.7814382314682007     
   8.6399999999999991E-002    -1.2398403882980347     
   8.6699999999999999E-002   -0.66570931673049927     
   8.7000000000000008E-002    -9.9054701626300812E-002
   8.7300000000000003E-002    0.42618119716644287     
   8.7599999999999997E-002    0.88684326410293579     
   8.7900000000000006E-002     1.2687683105468750     
   8.8200000000000014E-002     1.5697585344314575     
   8.8499999999999995E-002     1.7971321344375610     
   8.8800000000000004E-002     1.9640656709671021     
   8.9100000000000013E-002     2.0905804634094238     
   8.9399999999999993E-002     2.1969377994537354     
   8.9700000000000002E-002     2.3022356033325195     
   9.0000000000000011E-002     2.4251859188079834     
   9.0299999999999991E-002     2.5777704715728760     
   9.0600000000000000E-002     2.7676420211791992     
   9.0900000000000009E-002     2.9966838359832764     
   9.1200000000000017E-002     3.2597594261169434     
   9.1499999999999998E-002     3.5478539466857910     
   9.1800000000000007E-002     3.8464062213897705     
   9.2100000000000001E-002     4.1383237838745117     
   9.2399999999999996E-002     4.4060611724853516     
   9.2700000000000005E-002     4.6326870918273926     
   9.3000000000000013E-002     4.8059716224670410     
   9.3300000000000008E-002     4.9184393882751465     
   9.3600000000000003E-002     4.9689040184020996     
   9.3899999999999997E-002     4.9642696380615234     
   9.4200000000000006E-002     4.9169163703918457     
   9.4500000000000001E-002     4.8422470092773438     
   9.4800000000000009E-002     4.7570905685424805     
   9.5100000000000004E-002     4.6737146377563477     
   9.5399999999999999E-002     4.5976762771606445     
   9.5699999999999993E-002     4.5235023498535156     
   9.6000000000000002E-002     4.4330606460571289     
   9.6300000000000011E-002     4.2967185974121094     
   9.6600000000000005E-002     4.0749659538269043     
   9.6900000000000000E-002     3.7247855663299561     
   9.7200000000000009E-002     3.2058095932006836     
   9.7499999999999989E-002     2.4851696491241455     
   9.7799999999999998E-002     1.5475124120712280     
   9.8100000000000007E-002    0.39824634790420532     
   9.8400000000000015E-002   -0.93532675504684448     
   9.8699999999999996E-002    -2.4036948680877686     
   9.9000000000000005E-002    -3.9428625106811523     
   9.9300000000000013E-002    -5.4824924468994141     
   9.9599999999999994E-002    -6.9542717933654785     
   9.9900000000000003E-002    -8.3075399398803711     
  0.10020000000000001         -9.5143013000488281     
  0.10049999999999999         -10.578244209289551     
  0.10080000000000000         -11.536247253417969     
  0.10110000000000001         -12.451369285583496     
  0.10140000000000000         -13.405382156372070     
  0.10170000000000000         -14.479120254516602     
  0.10200000000000001         -15.737087249755859     
  0.10230000000000002         -17.207633972167969     
  0.10260000000000000         -18.862203598022461     
  0.10290000000000001         -20.607704162597656     
  0.10320000000000000         -22.277935028076172     
  0.10350000000000001         -23.639169692993164     
  0.10380000000000000         -24.408021926879883     
  0.10410000000000001         -24.272836685180664     
  0.10440000000000001         -22.929895401000977     
  0.10470000000000000         -20.117317199707031     
  0.10500000000000000         -15.653402328491211     
  0.10530000000000000         -9.4751367568969727     
  0.10560000000000000         -1.6564198732376099     
  0.10590000000000001          7.5703883171081543     
  0.10620000000000000          17.819162368774414     
  0.10650000000000001          28.565397262573242     
  0.10679999999999999          39.178230285644531     
  0.10710000000000000          48.964355468750000     
  0.10740000000000001          57.223709106445312     
  0.10770000000000000          63.307712554931641     
  0.10800000000000000          66.675010681152344     
  0.10830000000000001          66.942146301269531     
  0.10859999999999999          63.923061370849609     
  0.10890000000000000          57.648654937744141     
  0.10920000000000001          48.374023437500000     
  0.10950000000000001          36.559524536132812     
  0.10979999999999999          22.839633941650391     
  0.11009999999999999          7.9773359298706055     
  0.11040000000000001         -7.1970968246459961     
  0.11070000000000001         -21.840345382690430     
  0.11100000000000000         -35.161243438720703     
  0.11130000000000000         -46.473983764648438     
  0.11160000000000002         -55.238574981689453     
  0.11190000000000001         -61.096984863281250     
  0.11220000000000001         -63.878211975097656     
  0.11250000000000000         -63.607570648193359     
  0.11280000000000000         -60.485282897949219     
  0.11309999999999999         -54.862312316894531     
  0.11340000000000001         -47.208358764648438     
  0.11369999999999998         -38.067253112792969     
  0.11400000000000000         -28.023466110229492     
  0.11430000000000000         -17.655675888061523     
  0.11460000000000002         -7.5078425407409668     
  0.11489999999999999          1.9424824714660645     
  0.11520000000000001          10.302780151367188     
  0.11550000000000001          17.281612396240234     
  0.11580000000000000          22.691848754882812     
  0.11609999999999999          26.453096389770508     
  0.11640000000000002          28.580553054809570     
  0.11670000000000001          29.174982070922852     
  0.11700000000000001          28.408617019653320     
  0.11730000000000000          26.504760742187500     
  0.11760000000000000          23.720174789428711     
  0.11789999999999999          20.325260162353516     
  0.11820000000000001          16.586023330688477     
  0.11850000000000001          12.749672889709473     
  0.11880000000000000          9.0311279296875000     
  0.11910000000000000          5.6028027534484863     
  0.11940000000000002          2.5935192108154297     
  0.11970000000000001          8.2861289381980896E-002
  0.12000000000000001         -1.8951410055160522     
  0.12030000000000000         -3.3431696891784668     
  0.12060000000000000         -4.2983636856079102     
  0.12089999999999999         -4.8184833526611328     
  0.12119999999999999         -4.9765295982360840     
  0.12150000000000001         -4.8513312339782715     
  0.12180000000000001         -4.5183806419372559     
  0.12210000000000000         -4.0493302345275879     
  0.12239999999999999         -3.5027265548706055     
  0.12270000000000002         -2.9272680282592773     
  0.12300000000000001         -2.3619225025177002     
  0.12330000000000001         -1.8325107097625732     
  0.12360000000000000         -1.3580925464630127     
  0.12390000000000000        -0.94961082935333252     
  0.12419999999999999        -0.61370187997817993     
  0.12450000000000001        -0.35429683327674866     
  0.12480000000000001        -0.16978107392787933     
  0.12509999999999999         -5.6190941482782364E-002
  0.12540000000000001         -6.5462840721011162E-003
  0.12570000000000003         -1.1389991268515587E-002
  0.12600000000000000         -6.0293145477771759E-002
  0.12630000000000002        -0.13989447057247162     
  0.12659999999999999        -0.23621973395347595     
  0.12690000000000001        -0.33649709820747375     
  0.12719999999999998        -0.42803293466567993     
  0.12750000000000000        -0.50228077173233032     
  0.12780000000000002        -0.55442303419113159     
  0.12809999999999999        -0.58174687623977661     
  0.12840000000000001        -0.58567029237747192     
  0.12869999999999998        -0.56900763511657715     
  0.12900000000000000        -0.53778082132339478     
  0.12930000000000003        -0.49944013357162476     
  0.12959999999999999        -0.45818606019020081     
  0.12990000000000002        -0.41842186450958252     
  0.13019999999999998        -0.38279366493225098     
  0.13050000000000000        -0.35055324435234070     
  0.13080000000000003        -0.32161393761634827     
  0.13109999999999999        -0.29261055588722229     
  0.13140000000000002        -0.25998646020889282     
  0.13169999999999998        -0.22279097139835358     
  0.13200000000000001        -0.17814634740352631     
  0.13229999999999997        -0.12748578190803528     
  0.13260000000000000         -7.2683773934841156E-002
  0.13290000000000002         -1.5767823904752731E-002
  0.13319999999999999          3.6807443946599960E-002
  0.13350000000000001          8.2778498530387878E-002
  0.13380000000000003         0.11763330549001694     
  0.13410000000000000         0.13877113163471222     
  0.13440000000000002         0.14785964787006378     
  0.13469999999999999         0.14360684156417847     
  0.13500000000000001         0.13128800690174103     
  0.13529999999999998         0.11501517891883850     
  0.13560000000000000          9.8880536854267120E-002
  0.13590000000000002          8.8849611580371857E-002
  0.13619999999999999          8.5982456803321838E-002
  0.13650000000000001          9.2566587030887604E-002
  0.13680000000000003         0.10707829147577286     
  0.13710000000000000         0.12507468461990356     
  0.13740000000000002         0.14352236688137054     
  0.13769999999999999         0.15663394331932068     
  0.13800000000000001         0.15884019434452057     
  0.13829999999999998         0.14805865287780762     
  0.13860000000000000         0.12207160145044327     
  0.13890000000000002          8.3752453327178955E-002
  0.13919999999999999          3.9065744727849960E-002
  0.13950000000000001         -6.7405477166175842E-003
  0.13979999999999998         -4.3099522590637207E-002
  0.14010000000000000         -6.4142063260078430E-002
  0.14040000000000002         -6.3566230237483978E-002
  0.14069999999999999         -3.6644153296947479E-002
  0.14100000000000001          1.2993598356842995E-002
  0.14130000000000004          8.2646846771240234E-002
  0.14160000000000000         0.16164422035217285     
  0.14189999999999997         0.23827640712261200     
  0.14219999999999999         0.30137005448341370     
  0.14250000000000002         0.33687689900398254     
  0.14279999999999998         0.33967012166976929     
  0.14310000000000000         0.30407762527465820     
  0.14339999999999997         0.23150072991847992     
  0.14369999999999999         0.13127993047237396     
  0.14400000000000002          1.3762101531028748E-002
  0.14429999999999998        -0.10253967344760895     
  0.14460000000000001        -0.20250838994979858     
  0.14490000000000003        -0.27011850476264954     
  0.14520000000000000        -0.29313158988952637     
  0.14550000000000002        -0.26811325550079346     
  0.14579999999999999        -0.19425787031650543     
  0.14610000000000001         -8.2505434751510620E-002
  0.14640000000000003          5.2509061992168427E-002
  0.14670000000000000         0.19021065533161163     
  0.14699999999999996         0.30814015865325928     
  0.14729999999999999         0.38765031099319458     
  0.14760000000000001         0.41239613294601440     
  0.14789999999999998         0.37598392367362976     
  0.14820000000000000         0.27862825989723206     