  -1.4999999999999999E-002     0.0000000000000000     
  -1.4700000000000000E-002     0.0000000000000000     
  -1.4400000000000000E-002     0.0000000000000000     
  -1.4100000000000000E-002     0.0000000000000000     
  -1.3800000000000000E-002     0.0000000000000000     
  -1.3500000000000000E-002     0.0000000000000000     
  -1.3200000000000000E-002     0.0000000000000000     
  -1.2899999999999998E-002     0.0000000000000000     
  -1.2600000000000000E-002     0.0000000000000000     
  -1.2299999999999998E-002     0.0000000000000000     
  -1.2000000000000000E-002     0.0000000000000000     
  -1.1699999999999999E-002     0.0000000000000000     
  -1.1399999999999999E-002     0.0000000000000000     
  -1.1099999999999999E-002     0.0000000000000000     
  -1.0799999999999999E-002     0.0000000000000000     
  -1.0499999999999999E-002     0.0000000000000000     
  -1.0199999999999999E-002     0.0000000000000000     
  -9.8999999999999991E-003     0.0000000000000000     
  -9.5999999999999992E-003     0.0000000000000000     
  -9.2999999999999992E-003     0.0000000000000000     
  -8.9999999999999993E-003     0.0000000000000000     
  -8.6999999999999994E-003     0.0000000000000000     
  -8.3999999999999995E-003     0.0000000000000000     
  -8.0999999999999996E-003     0.0000000000000000     
  -7.7999999999999988E-003     0.0000000000000000     
  -7.4999999999999997E-003     0.0000000000000000     
  -7.1999999999999998E-003     0.0000000000000000     
  -6.8999999999999981E-003     0.0000000000000000     
  -6.5999999999999982E-003     0.0000000000000000     
  -6.3000000000000000E-003     0.0000000000000000     
  -6.0000000000000001E-003     0.0000000000000000     
  -5.6999999999999985E-003     0.0000000000000000     
  -5.3999999999999986E-003     0.0000000000000000     
  -5.1000000000000004E-003     0.0000000000000000     
  -4.7999999999999987E-003     0.0000000000000000     
  -4.5000000000000005E-003     0.0000000000000000     
  -4.1999999999999989E-003     0.0000000000000000     
  -3.8999999999999990E-003     0.0000000000000000     
  -3.5999999999999990E-003     0.0000000000000000     
  -3.2999999999999991E-003     0.0000000000000000     
  -2.9999999999999992E-003     0.0000000000000000     
  -2.6999999999999993E-003     0.0000000000000000     
  -2.3999999999999994E-003     0.0000000000000000     
  -2.0999999999999977E-003     0.0000000000000000     
  -1.7999999999999995E-003     0.0000000000000000     
  -1.4999999999999979E-003     0.0000000000000000     
  -1.1999999999999997E-003     0.0000000000000000     
  -8.9999999999999976E-004     0.0000000000000000     
  -5.9999999999999810E-004     0.0000000000000000     
  -2.9999999999999992E-004     0.0000000000000000     
   0.0000000000000000          0.0000000000000000     
   3.0000000000000165E-004     0.0000000000000000     
   5.9999999999999984E-004     0.0000000000000000     
   9.0000000000000149E-004     0.0000000000000000     
   1.2000000000000031E-003     0.0000000000000000     
   1.5000000000000013E-003     0.0000000000000000     
   1.8000000000000030E-003     0.0000000000000000     
   2.1000000000000012E-003     0.0000000000000000     
   2.3999999999999994E-003     0.0000000000000000     
   2.7000000000000010E-003     0.0000000000000000     
   2.9999999999999992E-003     0.0000000000000000     
   3.3000000000000008E-003     0.0000000000000000     
   3.6000000000000025E-003     0.0000000000000000     
   3.9000000000000007E-003     0.0000000000000000     
   4.2000000000000023E-003     0.0000000000000000     
   4.5000000000000005E-003     0.0000000000000000     
   4.7999999999999987E-003     0.0000000000000000     
   5.1000000000000004E-003     0.0000000000000000     
   5.4000000000000020E-003     0.0000000000000000     
   5.7000000000000037E-003     0.0000000000000000     
   5.9999999999999984E-003     0.0000000000000000     
   6.3000000000000000E-003     0.0000000000000000     
   6.6000000000000017E-003     0.0000000000000000     
   6.9000000000000034E-003     0.0000000000000000     
   7.2000000000000015E-003     0.0000000000000000     
   7.5000000000000032E-003     0.0000000000000000     
   7.8000000000000014E-003     0.0000000000000000     
   8.0999999999999996E-003     0.0000000000000000     
   8.4000000000000012E-003     3.8745779924965564E-038
   8.7000000000000029E-003    -5.8171223907403215E-036
   9.0000000000000011E-003     2.4613099619582707E-036
   9.2999999999999992E-003     5.5560983788440401E-034
   9.6000000000000009E-003    -3.8710006579888371E-033
   9.8999999999999991E-003    -9.6577588071774123E-033
   1.0200000000000001E-002     2.8948426193402226E-031
   1.0500000000000002E-002    -1.4962598855994875E-030
   1.0800000000000004E-002    -2.9417392040410167E-030
   1.1099999999999999E-002     7.0341128170023378E-029
   1.1400000000000000E-002    -2.8456276109279155E-028
   1.1700000000000002E-002    -4.2882186409514266E-028
   1.2000000000000004E-002     8.6624917601381773E-027
   1.2300000000000002E-002    -3.1924766677926627E-026
   1.2600000000000000E-002    -7.8972238529035113E-027
   1.2900000000000002E-002     5.1957663316364267E-025
   1.3200000000000000E-002    -2.0230984406744216E-024
   1.3500000000000002E-002     1.8540818428994223E-024
   1.3800000000000003E-002     1.3258986198402845E-023
   1.4100000000000001E-002    -5.6624067389200128E-023
   1.4400000000000000E-002     3.9225390076527743E-023
   1.4700000000000001E-002     4.5168125266411216E-022
   1.4999999999999999E-002    -1.9421269216543711E-021
   1.5300000000000001E-002     2.1853886921553061E-021
   1.5600000000000003E-002     1.4486938047227448E-020
   1.5899999999999997E-002    -1.0564980042465555E-019
   1.6199999999999999E-002     4.5187284349145931E-019
   1.6500000000000001E-002    -1.6666698317985938E-018
   1.6800000000000002E-002     6.1534666878745298E-018
   1.7100000000000004E-002    -2.3865651227443583E-017
   1.7400000000000006E-002     9.5625234108699598E-017
   1.7700000000000000E-002    -3.8667396320145562E-016
   1.8000000000000002E-002     1.5695053864099735E-015
   1.8300000000000004E-002    -6.4115895162416227E-015
   1.8600000000000005E-002     2.6198489687066627E-014
   1.8900000000000000E-002    -1.0469014038517065E-013
   1.9200000000000002E-002     3.9428430570868347E-013
   1.9500000000000003E-002    -1.3310899084190468E-012
   1.9799999999999998E-002     3.7265519226318550E-012
   2.0100000000000000E-002    -7.1500671068019054E-012
   2.0400000000000001E-002     3.4729423976378639E-013
   2.0700000000000003E-002     6.7536294506488841E-011
   2.0999999999999998E-002    -3.1652046833024400E-010
   2.1299999999999999E-002     7.8280635840342274E-010
   2.1600000000000001E-002    -6.3098859804569696E-010
   2.1900000000000003E-002    -3.0002803000656273E-009
   2.2200000000000004E-002     1.2110050749945485E-008
   2.2500000000000006E-002    -1.3143605296784593E-008
   2.2800000000000001E-002    -3.1672150260948016E-008
   2.3100000000000002E-002     1.0770600032499577E-007
   2.3400000000000004E-002    -8.0115779955925008E-009
   2.3699999999999999E-002    -3.8532995539482817E-007
   2.4000000000000000E-002     1.9893857988357330E-007
   2.4300000000000002E-002     1.1482048411098538E-006
   2.4599999999999997E-002    -3.5834845527165166E-007
   2.4900000000000005E-002    -3.5373743434756751E-006
   2.5200000000000000E-002    -1.3960213731980433E-006
   2.5499999999999995E-002     1.2931184595770387E-005
   2.5800000000000003E-002     3.8589571421463863E-005
   2.6099999999999998E-002     7.0108667205863191E-005
   2.6400000000000007E-002     1.0778627202682632E-004
   2.6700000000000002E-002     1.6137807229278222E-004
   2.6999999999999996E-002     2.4787126523461572E-004
   2.7300000000000005E-002     3.8858635169418572E-004
   2.7600000000000000E-002     6.0700530717115730E-004
   2.7900000000000008E-002     9.3330656096658401E-004
   2.8200000000000003E-002     1.4115649963543364E-003
   2.8499999999999998E-002     2.1038019906950839E-003
   2.8800000000000006E-002     3.0946320496883922E-003
   2.9100000000000001E-002     4.4949648826817512E-003
   2.9400000000000003E-002     6.4435480994244065E-003
   2.9700000000000004E-002     9.1082631166599370E-003
   3.0000000000000006E-002     1.2688456914265733E-002
   3.0300000000000001E-002     1.7417168057027643E-002
   3.0600000000000002E-002     2.3553819261556530E-002
   3.0900000000000004E-002     3.1365461592147037E-002
   3.1199999999999999E-002     4.1108604138928362E-002
   3.1500000000000007E-002     5.3005204599726241E-002
   3.1800000000000002E-002     6.7201970592293936E-002
   3.2099999999999997E-002     8.3715243746658619E-002
   3.2400000000000005E-002    0.10237188686376220     
   3.2700000000000000E-002    0.12274920833513514     
   3.3000000000000002E-002    0.14411678789214033     
   3.3300000000000003E-002    0.16537289093219165     
   3.3599999999999998E-002    0.18500696001511763     
   3.3900000000000000E-002    0.20109727134503430     
   3.4200000000000001E-002    0.21133080628141698     
   3.4500000000000003E-002    0.21307753204436697     
   3.4799999999999998E-002    0.20352347607202947     
   3.5099999999999999E-002    0.17985334638607942     
   3.5400000000000001E-002    0.13951516582863732     
   3.5699999999999996E-002     8.0491995909568459E-002
   3.6000000000000004E-002     1.6321579777455741E-003
   3.6299999999999999E-002    -9.7065552373222785E-002
   3.6600000000000008E-002   -0.21415849214897076     
   3.6900000000000002E-002   -0.34658392178434738     
   3.7199999999999997E-002   -0.48954482769206109     
   3.7500000000000006E-002   -0.63657850340493027     
   3.7800000000000000E-002   -0.77978838385854843     
   3.8100000000000009E-002   -0.91018741813302029     
   3.8400000000000004E-002    -1.0182808246187705     
   3.8699999999999998E-002    -1.0947189247003379     
   3.9000000000000007E-002    -1.1310224712976336     
   3.9300000000000002E-002    -1.1203675861781619     
   3.9600000000000003E-002    -1.0582300089484775     
   3.9900000000000005E-002   -0.94297651896084389     
   4.0200000000000000E-002   -0.77624068309946992     
   4.0500000000000001E-002   -0.56294595415825555     
   4.0800000000000003E-002   -0.31124811645782380     
   4.1100000000000005E-002    -3.2068475856959877E-002
   4.1399999999999999E-002    0.26166484369215115     
   4.1700000000000008E-002    0.55574090070230220     
   4.2000000000000003E-002    0.83574802492519140     
   4.2299999999999997E-002     1.0880328593390551     
   4.2600000000000006E-002     1.3006062996722747     
   4.2900000000000001E-002     1.4640080468046222     
   4.3200000000000002E-002     1.5717469106066702     
   4.3500000000000004E-002     1.6206965695851991     
   4.3799999999999999E-002     1.6111769345795892     
   4.4100000000000000E-002     1.5465959388288155     
   4.4400000000000002E-002     1.4331406532739379     
   4.4700000000000004E-002     1.2790682669365125     
   4.4999999999999998E-002     1.0940167559693421     
   4.5300000000000000E-002    0.88833333787966140     
   4.5600000000000002E-002    0.67221629777158043     
   4.5899999999999996E-002    0.45528025255003968     
   4.6200000000000005E-002    0.24589183883577981     
   4.6500000000000000E-002     5.0887103157955860E-002
   4.6799999999999994E-002   -0.12453355902859486     
   4.7100000000000003E-002   -0.27701066661608831     
   4.7399999999999998E-002   -0.40467190390436691     
   4.7700000000000006E-002   -0.50711863076308106     
   4.8000000000000001E-002   -0.58518666832548405     
   4.8300000000000010E-002   -0.64038225419208672     
   4.8600000000000004E-002   -0.67499661746161976     
   4.8899999999999999E-002   -0.69143552620239035     
   4.9200000000000008E-002   -0.69217595800317255     
   4.9500000000000002E-002   -0.67972237187094464     
   4.9800000000000011E-002   -0.65606978830265916     
   5.0100000000000006E-002   -0.62315523104721038     
   5.0400000000000000E-002   -0.58247747047408183     
   5.0700000000000009E-002   -0.53515016685759420     
   5.1000000000000004E-002   -0.48237493539054910     
   5.1299999999999998E-002   -0.42488610454717168     
   5.1600000000000007E-002   -0.36371294659258879     
   5.1900000000000002E-002   -0.29999301934341638     
   5.2200000000000010E-002   -0.23495003403748438     
   5.2500000000000005E-002   -0.17059705739022757     
   5.2800000000000000E-002   -0.10903862422960842     
   5.3099999999999994E-002    -5.3150014878593499E-002
   5.3400000000000003E-002    -6.3497782509502609E-003
   5.3699999999999998E-002     2.7795687829325205E-002
   5.4000000000000006E-002     4.5122777216566989E-002
   5.4300000000000001E-002     4.1931526662471130E-002
   5.4599999999999996E-002     1.4867607772967861E-002
   5.4900000000000004E-002    -3.8614733828538361E-002
   5.5199999999999999E-002   -0.11932144804106959     
   5.5499999999999994E-002   -0.22654413714437638     
   5.5800000000000002E-002   -0.35705722981468302     
   5.6099999999999997E-002   -0.50513686040043204     
   5.6400000000000006E-002   -0.66267320335704483     
   5.6700000000000000E-002   -0.81885574797186678     
   5.6999999999999995E-002   -0.96128921956854541     
   5.7300000000000004E-002    -1.0763224689297317     
   5.7599999999999998E-002    -1.1500725202111894     
   5.7900000000000007E-002    -1.1698798321220991     
   5.8200000000000002E-002    -1.1250716470156945     
   5.8499999999999996E-002    -1.0085345163966686     
   5.8800000000000005E-002   -0.81751480033856083     
   5.9100000000000000E-002   -0.55420400107414380     
   5.9400000000000008E-002   -0.22636230067670127     
   5.9700000000000003E-002    0.15321617534722520     
   6.0000000000000012E-002    0.56714173766000187     
   6.0300000000000006E-002    0.99442508712438382     
   6.0600000000000001E-002     1.4122498036015969     
   6.0900000000000010E-002     1.7972205893605562     
   6.1200000000000004E-002     2.1273213964487425     
   6.1500000000000013E-002     2.3835661743244145     
   6.1800000000000008E-002     2.5511448533782897     
   6.2100000000000002E-002     2.6208530680090973     
   6.2399999999999997E-002     2.5892714240861352     
   6.2700000000000006E-002     2.4589889239916971     
   6.3000000000000000E-002     2.2383067777665957     
   6.3300000000000009E-002     1.9399885216424977     
   6.3600000000000004E-002     1.5806680418399850     
   6.3899999999999998E-002     1.1790117170163441     
   6.4199999999999993E-002    0.75452494367502254     
   6.4500000000000002E-002    0.32641629445705078     
   6.4800000000000010E-002    -8.8109965272295199E-002
   6.5100000000000005E-002   -0.47411915945389449     
   6.5400000000000000E-002   -0.81983909706355362     
   6.5700000000000008E-002    -1.1170489160863504     
   6.5999999999999989E-002    -1.3605124349634607     
   6.6299999999999998E-002    -1.5483039215667773     
   6.6600000000000006E-002    -1.6808141946440998     
   6.6900000000000001E-002    -1.7605440036310398     
   6.7199999999999996E-002    -1.7914748418604276     
   6.7500000000000004E-002    -1.7783352965749302     
   6.7800000000000013E-002    -1.7265165777916067     
   6.8099999999999994E-002    -1.6414896077239334     
   6.8400000000000002E-002    -1.5287904228801210     
   6.8700000000000011E-002    -1.3939088921523322     
   6.8999999999999992E-002    -1.2424513773084769     
   6.9300000000000000E-002    -1.0800031446671028     
   6.9600000000000009E-002   -0.91250835774392414     
   6.9900000000000004E-002   -0.74600791663889510     
   7.0199999999999999E-002   -0.58666326296396676     
   7.0500000000000007E-002   -0.44076830081408325     
   7.0800000000000016E-002   -0.31397134423784756     
   7.1099999999999997E-002   -0.21150754228213220     
   7.1400000000000005E-002   -0.13706379706511118     
   7.1700000000000000E-002    -9.2538159929573371E-002
   7.1999999999999995E-002    -7.7739469767875935E-002
   7.2300000000000003E-002    -8.9399992284077356E-002
   7.2600000000000012E-002   -0.12172569464759375     
   7.2900000000000006E-002   -0.16581622995016509     
   7.3200000000000001E-002   -0.21039137675660324     
   7.3499999999999996E-002   -0.24252354533310605     
   7.3800000000000004E-002   -0.24824661209853005     
   7.4099999999999999E-002   -0.21434556152660900     
   7.4400000000000008E-002   -0.12929144670204629     
   7.4700000000000003E-002     1.4997954890124232E-002
   7.5000000000000011E-002    0.22207853752328588     
   7.5299999999999992E-002    0.48993968889964901     
   7.5600000000000001E-002    0.81033351149948629     
   7.5900000000000009E-002     1.1690518928856299     
   7.6200000000000004E-002     1.5460165944191999     
   7.6499999999999999E-002     1.9170979479363837     
   7.6800000000000007E-002     2.2552091950028839     
   7.7099999999999988E-002     2.5328638862693253     
   7.7399999999999997E-002     2.7244481553835698     
   7.7700000000000005E-002     2.8081515931850163     
   7.8000000000000014E-002     2.7688205488805124     
   7.8299999999999995E-002     2.5985217648191963     
   7.8600000000000003E-002     2.2983578687603341     
   7.8900000000000012E-002     1.8784469275242870     
   7.9199999999999993E-002     1.3570680490043614     
   7.9500000000000001E-002    0.76010531367137091     
   7.9800000000000010E-002    0.11832542550037606     
   8.0100000000000018E-002   -0.53432960823908360     
   8.0399999999999999E-002    -1.1634929654467978     
   8.0700000000000008E-002    -1.7369591742650456     
   8.1000000000000003E-002    -2.2265473041904542     
   8.1299999999999997E-002    -2.6105177893181803     
   8.1600000000000006E-002    -2.8743333451267432     
   8.1900000000000014E-002    -3.0114593639542875     
   8.2199999999999995E-002    -3.0233568457772861     
   8.2500000000000004E-002    -2.9185358894933415     
   8.2799999999999999E-002    -2.7116613387310480     
   8.3100000000000007E-002    -2.4219001903544353     
   8.3400000000000002E-002    -2.0712276053022407     
   8.3700000000000011E-002    -1.6826924479886713     
   8.4000000000000005E-002    -1.2785878978948375     
   8.4300000000000000E-002   -0.87916052205027384     
   8.4599999999999995E-002   -0.50144375271833042     
   8.4900000000000003E-002   -0.15841957207732715     
   8.5199999999999998E-002    0.14150386571652884     
   8.5500000000000007E-002    0.39428375267467963     
   8.5800000000000001E-002    0.60062853284837026     
   8.6100000000000010E-002    0.76496949567055239     
   8.6399999999999991E-002    0.89506932243878268     
   8.6699999999999999E-002     1.0012221281489566     
   8.7000000000000008E-002     1.0948052988260919     
   8.7300000000000003E-002     1.1876303763506542     
   8.7599999999999997E-002     1.2901511359329021     
   8.7900000000000006E-002     1.4106770320258164     
   8.8200000000000014E-002     1.5541118047278673     
   8.8499999999999995E-002     1.7208351895059337     
   8.8800000000000004E-002     1.9065262648605454     
   8.9100000000000013E-002     2.1014388963826676     
   8.9399999999999993E-002     2.2910029759068067     
   8.9700000000000002E-002     2.4565257325812695     
   9.0000000000000011E-002     2.5766257753373054     
   9.0299999999999991E-002     2.6290187985044753     
   9.0600000000000000E-002     2.5926164898576332     
   9.0900000000000009E-002     2.4499530672837437     
   9.1200000000000017E-002     2.1890169801223607     
   9.1499999999999998E-002     1.8054742598693068     
   9.1800000000000007E-002     1.3037639660363212     
   9.2100000000000001E-002    0.69748990621529927     
   9.2399999999999996E-002     9.5918945403541400E-003
   9.2700000000000005E-002   -0.72944779759080891     
   9.3000000000000013E-002    -1.4832329016253691     
   9.3300000000000008E-002    -2.2120973639750403     
   9.3600000000000003E-002    -2.8765902736372766     
   9.3899999999999997E-002    -3.4397942560090087     
   9.4200000000000006E-002    -3.8708985060992234     
   9.4500000000000001E-002    -4.1474167089360208     
   9.4800000000000009E-002    -4.2566258267389685     
   9.5100000000000004E-002    -4.1969134623413993     
   9.5399999999999999E-002    -3.9768405684169466     
   9.5699999999999993E-002    -3.6146062910609658     
   9.6000000000000002E-002    -3.1360009925551537     
   9.6300000000000011E-002    -2.5716082428326104     
   9.6600000000000005E-002    -1.9546220856271930     
   9.6900000000000000E-002    -1.3175820387351322     
   9.7200000000000009E-002   -0.69004782478733162     
   9.7499999999999989E-002    -9.6743783847370035E-002
   9.7799999999999998E-002    0.44411070888688009     
   9.8100000000000007E-002    0.92085326567235803     
   9.8400000000000015E-002     1.3283097218316087     
   9.8699999999999996E-002     1.6669225917290973     
   9.9000000000000005E-002     1.9410888874542636     
   9.9300000000000013E-002     2.1574476044929085     
   9.9599999999999994E-002     2.3231283093746669     
   9.9900000000000003E-002     2.4436207747460799     
  0.10020000000000001          2.5221632004233214     
  0.10049999999999999          2.5583410249806775     
  0.10080000000000000          2.5483656943102773     
  0.10110000000000001          2.4858391873358272     
  0.10140000000000000          2.3624725782404710     
  0.10170000000000000          2.1703448266298722     
  0.10200000000000001          1.9031394668498223     
  0.10230000000000002          1.5582126886218290     
  0.10260000000000000          1.1384420228099188     
  0.10290000000000001         0.65258237098765903     
  0.10320000000000000         0.11643877475310427     
  0.10350000000000001        -0.44794499684614131     
  0.10380000000000000         -1.0136026241809701     
  0.10410000000000001         -1.5500774170167517     
  0.10440000000000001         -2.0262783418375889     
  0.10470000000000000         -2.4128567012417221     
  0.10500000000000000         -2.6847715031665587     
  0.10530000000000000         -2.8238495539485484     
  0.10560000000000000         -2.8201405683998075     
  0.10590000000000001         -2.6732621100571663     
  0.10620000000000000         -2.3924376761851391     
  0.10650000000000001         -1.9953243567352388     
  0.10679999999999999         -1.5070181694808653     
  0.10710000000000000        -0.95757534526562438     
  0.10740000000000001        -0.37957829350890471     
  0.10770000000000000         0.19401280984531688     
  0.10800000000000000         0.73283668368351940     
  0.10830000000000001          1.2104378705153209     
  0.10859999999999999          1.6059297434597006     
  0.10890000000000000          1.9048529212677749     
  0.10920000000000001          2.0988354782389891     
  0.10950000000000001          2.1858349731718363     
  0.10979999999999999          2.1688108498301375     
  0.11009999999999999          2.0550460789090153     
  0.11040000000000001          1.8554095044443741     
  0.11070000000000001          1.5829898592697518     
  0.11100000000000000          1.2530044814271193     
  0.11130000000000000         0.88193403023768369     
  0.11160000000000002         0.48743775864368999     
  0.11190000000000001          8.8196521915740123E-002
  0.11220000000000001        -0.29652148565838310     
  0.11250000000000000        -0.64679395433913633     
  0.11280000000000000        -0.94296941555902869     
  0.11309999999999999         -1.1664573087323333     
  0.11340000000000001         -1.3007535647425925     
  0.11369999999999998         -1.3329982707242607     
  0.11400000000000000         -1.2552279706231175     
  0.11430000000000000         -1.0657013314014918     
  0.11460000000000002        -0.76985790761751360     
  0.11489999999999999        -0.38102892246276987     
  0.11520000000000001          7.9844363737925583E-002
  0.11550000000000001         0.58488998059663189     
  0.11580000000000000          1.1008284608473675     
  0.11609999999999999          1.5910526518006769     
  0.11640000000000002          2.0179666323077470     
  0.11670000000000001          2.3460697681826446     
  0.11700000000000001          2.5445181015628222     
  0.11730000000000000          2.5898840942333408     
  0.11760000000000000          2.4681010699125778     
  0.11789999999999999          2.1757272010214876     
  0.11820000000000001          1.7210280573468637     
  0.11850000000000001          1.1234278591508584     
  0.11880000000000000         0.41272101266678085     
  0.11910000000000000        -0.37233788810759449     
  0.11940000000000002         -1.1867373237206404     
  0.11970000000000001         -1.9815190261714122     
  0.12000000000000001         -2.7070118419941593     
  0.12030000000000000         -3.3159117765367156     
  0.12060000000000000         -3.7659145384153589     
  0.12089999999999999         -4.0229514481120958     
  0.12119999999999999         -4.0635387925758835     
  0.12150000000000001         -3.8765444428875924     
  0.12180000000000001         -3.4646079864201624     
  0.12210000000000000         -2.8444853846819740     
  0.12239999999999999         -2.0465396331953727     
  0.12270000000000002         -1.1138738903438039     
  0.12300000000000001         -9.9725187264988691E-002
  0.12330000000000001         0.93541558377179967     
  0.12360000000000000          1.9272116251177778     
  0.12390000000000000          2.8121820556319648     
  0.12419999999999999          3.5314118585123921     
  0.12450000000000001          4.0352086588209772     
  0.12480000000000001          4.2869807644249107     
  0.12509999999999999          4.2656563325569721     
  0.12540000000000001          3.9683854312045241     
  0.12570000000000003          3.4106395328103787     
  0.12600000000000000          2.6257115357110479     
  0.12630000000000002          1.6630355064636575     
  0.12659999999999999         0.58425578302350267     
  0.12690000000000001        -0.54037278853297721     
  0.12719999999999998         -1.6375095123819250     
  0.12750000000000000         -2.6362831323775424     
  0.12780000000000002         -3.4725898363688827     
  0.12809999999999999         -4.0947045761451051     
  0.12840000000000001         -4.4663644737330230     
  0.12869999999999998         -4.5693649298719095     
  0.12900000000000000         -4.4051896154183794     
  0.12930000000000003         -3.9934886216029355     
  0.12959999999999999         -3.3710241314866209     
  0.12990000000000002         -2.5880392863573576     
  0.13019999999999998         -1.7036947178278936     
  0.13050000000000000        -0.78209901903510470     
  0.13080000000000003         0.11391372422263046     
  0.13109999999999999         0.92693628635892367     
  0.13140000000000002          1.6092932515814131     
  0.13169999999999998          2.1270513748052871     
  0.13200000000000001          2.4608260389750782     
  0.13229999999999997          2.6076673936907326     
  0.13260000000000000          2.5797335762049016     
  0.13290000000000002          2.4016198451518136     
  0.13319999999999999          2.1085793120630854     
  0.13350000000000001          1.7412952828903059     
  0.13380000000000003          1.3424193061336425     
  0.13410000000000000         0.95218657419317410     
  0.13440000000000002         0.60397689534337928     
  0.13469999999999999         0.32264826350776055     
  0.13500000000000001         0.12137355268829708     
  0.13529999999999998          2.0372669714846525E-003
  0.13560000000000000         -4.4117206482575277E-002
  0.13590000000000002         -3.5280039604318220E-002
  0.13619999999999999          4.9709535526381021E-003
  0.13650000000000001          5.0234107035920683E-002
  0.13680000000000003          7.5566716829764236E-002
  0.13710000000000000          6.1093173406518542E-002
  0.13740000000000002         -5.6715592512330826E-003
  0.13769999999999999        -0.12737232425827227     
  0.13800000000000001        -0.29648332506496167     
  0.13829999999999998        -0.49593880353783071     
  0.13860000000000000        -0.70086958676014977     
  0.13890000000000002        -0.88183442524529099     
  0.13919999999999999         -1.0084543563415380     
  0.13950000000000001         -1.0529455038007924     
  0.13979999999999998        -0.99463166732031993     
  0.14010000000000000        -0.82250906256033574     
  0.14040000000000002        -0.53729252498916580     
  0.14069999999999999        -0.15274289932761431     
  0.14100000000000001         0.30608706216674797     
  0.14130000000000004         0.80375968684404242     
  0.14160000000000000          1.2984195457666905     
  0.14189999999999997          1.7463235040765461     
  0.14219999999999999          2.1052272693198475     
  0.14250000000000002          2.3402003806418818     
  0.14279999999999998          2.4260966043093930     
  0.14310000000000000          2.3508727884633061     
  0.14339999999999997          2.1172642222126967     
  0.14369999999999999          1.7413541604590961     
  0.14400000000000002          1.2523465282640913     
  0.14429999999999998         0.68868498798599731     
  0.14460000000000001          9.4259444088139244E-002
  0.14490000000000003        -0.48529392119089110     
  0.14520000000000000         -1.0078174098509791     
  0.14550000000000002         -1.4374296362570167     
  0.14579999999999999         -1.7481015636449477     
  0.14610000000000001         -1.9255033893016886     
  0.14640000000000003         -1.9666720572451197     
  0.14670000000000000         -1.8800773249467895     
  0.14699999999999996         -1.6833764408094822     
  0.14729999999999999         -1.4006643283541891     
  0.14760000000000001         -1.0602666080279413     
  0.14789999999999998        -0.69075794848328442     
  0.14820000000000000        -0.31897938088998323     