  -1.4999999999999999E-002     0.0000000000000000     
  -1.4700000000000000E-002     0.0000000000000000     
  -1.4400000000000000E-002     0.0000000000000000     
  -1.4100000000000000E-002     0.0000000000000000     
  -1.3800000000000000E-002     0.0000000000000000     
  -1.3500000000000000E-002     0.0000000000000000     
  -1.3200000000000000E-002     0.0000000000000000     
  -1.2899999999999998E-002     0.0000000000000000     
  -1.2600000000000000E-002     0.0000000000000000     
  -1.2299999999999998E-002     0.0000000000000000     
  -1.2000000000000000E-002     0.0000000000000000     
  -1.1699999999999999E-002     0.0000000000000000     
  -1.1399999999999999E-002     0.0000000000000000     
  -1.1099999999999999E-002     0.0000000000000000     
  -1.0799999999999999E-002     0.0000000000000000     
  -1.0499999999999999E-002     0.0000000000000000     
  -1.0199999999999999E-002     0.0000000000000000     
  -9.8999999999999991E-003     0.0000000000000000     
  -9.5999999999999992E-003     9.2267211692126562E-038
  -9.2999999999999992E-003     3.3262723401710064E-036
  -8.9999999999999993E-003    -6.9347504955208392E-035
  -8.6999999999999994E-003     5.0712393609094232E-034
  -8.3999999999999995E-003     2.9209668793047021E-034
  -8.0999999999999996E-003    -1.4163659167445618E-032
  -7.7999999999999988E-003     7.8493778433468762E-032
  -7.4999999999999997E-003    -2.2556432805438131E-031
  -7.1999999999999998E-003     3.6305802017918632E-031
  -6.8999999999999981E-003    -1.7289575216772712E-031
  -6.5999999999999982E-003    -1.3335697273870002E-030
  -6.3000000000000000E-003     1.0155187355040833E-029
  -6.0000000000000001E-003    -5.3397834017283402E-029
  -5.6999999999999985E-003     1.4053892802122185E-028
  -5.3999999999999986E-003     6.7581313792113459E-028
  -5.1000000000000004E-003    -1.1058708288080278E-026
  -4.7999999999999987E-003     7.7345657404115702E-026
  -4.5000000000000005E-003    -3.7090180575630243E-025
  -4.1999999999999989E-003     1.3390721238457769E-024
  -3.8999999999999990E-003    -3.7552268064337991E-024
  -3.5999999999999990E-003     8.2361426115130617E-024
  -3.2999999999999991E-003    -1.3954564122602489E-023
  -2.9999999999999992E-003     1.7663884953568875E-023
  -2.6999999999999993E-003    -1.6825793539967756E-023
  -2.3999999999999994E-003     2.3572470517326558E-023
  -2.0999999999999977E-003    -9.9228380593825117E-023
  -1.7999999999999995E-003     4.2597205146060122E-022
  -1.4999999999999979E-003    -1.4518794238768683E-021
  -1.1999999999999997E-003     4.1756231279438672E-021
  -8.9999999999999976E-004    -1.0603874211239461E-020
  -5.9999999999999810E-004     2.4101670593881327E-020
  -2.9999999999999992E-004    -4.8478259832897826E-020
   0.0000000000000000          8.3259583601828699E-020
   3.0000000000000165E-004    -1.1178049796401774E-019
   5.9999999999999984E-004     8.1062191442727734E-020
   9.0000000000000149E-004     1.1886711202214944E-019
   1.2000000000000031E-003    -6.5265709907228978E-019
   1.5000000000000013E-003     1.6729269110739231E-018
   1.8000000000000030E-003    -3.1409175449954997E-018
   2.1000000000000012E-003     4.5200966370414192E-018
   2.3999999999999994E-003    -4.5238735821555593E-018
   2.7000000000000010E-003     1.9494108990463043E-018
   2.9999999999999992E-003    -1.5695513625358653E-018
   3.3000000000000008E-003     3.6429775829468135E-017
   3.6000000000000025E-003    -2.2763921295992014E-016
   3.9000000000000007E-003     8.8477219199313910E-016
   4.2000000000000023E-003    -2.4889664892528688E-015
   4.5000000000000005E-003     4.8486029663672232E-015
   4.7999999999999987E-003    -3.6395627651725679E-015
   5.1000000000000004E-003    -1.7925821891850995E-014
   5.4000000000000020E-003     1.0093984280689160E-013
   5.7000000000000037E-003    -3.2482849848740158E-013
   5.9999999999999984E-003     9.4002711172833695E-013
   6.3000000000000000E-003    -3.5262333963054915E-012
   6.6000000000000017E-003     1.6998585174835218E-011
   6.9000000000000034E-003    -7.7374730502146806E-011
   7.2000000000000015E-003     2.7884513687997418E-010
   7.5000000000000032E-003    -7.0288596052769370E-010
   7.8000000000000014E-003     8.0638198345570954E-010
   8.0999999999999996E-003     2.2063016641171022E-009
   8.4000000000000012E-003    -1.3466181179054091E-008
   8.7000000000000029E-003     2.7794259113724235E-008
   9.0000000000000011E-003     2.0229224793499996E-009
   9.2999999999999992E-003    -1.4430485161382779E-007
   9.6000000000000009E-003     2.5178713263882566E-007
   9.8999999999999991E-003     2.3403167224579955E-007
   1.0200000000000001E-002    -1.1965721546088775E-006
   1.0500000000000002E-002    -5.4132287169147351E-008
   1.0800000000000004E-002     3.7535151326646667E-006
   1.1099999999999999E-002     3.8463091656191277E-007
   1.1400000000000000E-002    -1.0779142766326050E-005
   1.1700000000000002E-002    -7.7002912907728584E-006
   1.2000000000000004E-002     3.4708860434205514E-005
   1.2300000000000002E-002     1.1526794619495101E-004
   1.2600000000000000E-002     2.1132009772506250E-004
   1.2900000000000002E-002     3.1560697780218076E-004
   1.3200000000000000E-002     4.5196491676314891E-004
   1.3500000000000002E-002     6.6817897142380789E-004
   1.3800000000000003E-002     1.0295536564395025E-003
   1.4100000000000001E-002     1.6024480419113973E-003
   1.4400000000000000E-002     2.4580122244091257E-003
   1.4700000000000001E-002     3.7002794561996066E-003
   1.4999999999999999E-002     5.4784528941691502E-003
   1.5300000000000001E-002     7.9972228486891728E-003
   1.5600000000000003E-002     1.1523030374124443E-002
   1.5899999999999997E-002     1.6379211419581929E-002
   1.6199999999999999E-002     2.2942521683180228E-002
   1.6500000000000001E-002     3.1635215969007868E-002
   1.6800000000000002E-002     4.2926435637250071E-002
   1.7100000000000004E-002     5.7308682074008521E-002
   1.7400000000000006E-002     7.5221511034983424E-002
   1.7700000000000000E-002     9.6989544899891644E-002
   1.8000000000000002E-002    0.12275959403425496     
   1.8300000000000004E-002    0.15237280826721511     
   1.8600000000000005E-002    0.18521901481216929     
   1.8900000000000000E-002    0.22007482394658950     
   1.9200000000000002E-002    0.25498873117339826     
   1.9500000000000003E-002    0.28717388292341539     
   1.9799999999999998E-002    0.31288954347826170     
   2.0100000000000000E-002    0.32744832051778516     
   2.0400000000000001E-002    0.32532895826733288     
   2.0700000000000003E-002    0.30038742288302700     
   2.0999999999999998E-002    0.24620866855692913     
   2.1299999999999999E-002    0.15663058560567578     
   2.1600000000000001E-002     2.6405386971232792E-002
   2.1900000000000003E-002   -0.14797612443808406     
   2.2200000000000004E-002   -0.36751073578494431     
   2.2500000000000006E-002   -0.62984465553407887     
   2.2800000000000001E-002   -0.92862750180256270     
   2.3100000000000002E-002    -1.2530182600885418     
   2.3400000000000004E-002    -1.5875555320203532     
   2.3699999999999999E-002    -1.9124886880380956     
   2.4000000000000000E-002    -2.2045579556394088     
   2.4300000000000002E-002    -2.4383004703617956     
   2.4599999999999997E-002    -2.5877349136198262     
   2.4900000000000005E-002    -2.6285005453147789     
   2.5200000000000000E-002    -2.5400578102119340     
   2.5499999999999995E-002    -2.3080579998713091     
   2.5800000000000003E-002    -1.9262944550455217     
   2.6099999999999998E-002    -1.3981581463453239     
   2.6400000000000007E-002   -0.73743412414974330     
   2.6700000000000002E-002     3.1723401277488072E-002
   2.6999999999999996E-002    0.87585357888239512     
   2.7300000000000005E-002     1.7539776423547728     
   2.7600000000000000E-002     2.6201509783399288     
   2.7900000000000008E-002     3.4268009690214001     
   2.8200000000000003E-002     4.1281988280321258     
   2.8499999999999998E-002     4.6838591885335461     
   2.8800000000000006E-002     5.0616125266847973     
   2.9100000000000001E-002     5.2399845254238357     
   2.9400000000000003E-002     5.2096834554460258     
   2.9700000000000004E-002     4.9740307983468313     
   3.0000000000000006E-002     4.5485926542608581     
   3.0300000000000001E-002     3.9595987051157664     
   3.0600000000000002E-002     3.2416722190183549     
   3.0900000000000004E-002     2.4349575129674008     
   3.1199999999999999E-002     1.5820171440357100     
   3.1500000000000007E-002    0.72500305185567626     
   3.1800000000000002E-002    -9.7723612528517023E-002
   3.2099999999999997E-002   -0.85324296973556812     
   3.2400000000000005E-002    -1.5161747130502441     
   3.2700000000000000E-002    -2.0698232243181636     
   3.3000000000000002E-002    -2.5058037450416464     
   3.3300000000000003E-002    -2.8245772705191712     
   3.3599999999999998E-002    -3.0337514913999968     
   3.3900000000000000E-002    -3.1469266032795105     
   3.4200000000000001E-002    -3.1824727342400507     
   3.4500000000000003E-002    -3.1605858015797708     
   3.4799999999999998E-002    -3.1024286768264489     
   3.5099999999999999E-002    -3.0276215237654469     
   3.5400000000000001E-002    -2.9523539432897650     
   3.5699999999999996E-002    -2.8887276280325835     
   3.6000000000000004E-002    -2.8426324837855645     
   3.6299999999999999E-002    -2.8138057822287124     
   3.6600000000000008E-002    -2.7953764282804627     
   3.6900000000000002E-002    -2.7737330491937655     
   3.7199999999999997E-002    -2.7305038367417751     
   3.7500000000000006E-002    -2.6431188795106948     
   3.7800000000000000E-002    -2.4873470247897274     
   3.8100000000000009E-002    -2.2400677626877723     
   3.8400000000000004E-002    -1.8812028776767704     
   3.8699999999999998E-002    -1.3974920114950109     
   3.9000000000000007E-002   -0.78419369483601642     
   3.9300000000000002E-002    -4.7137852354177667E-002
   3.9600000000000003E-002    0.79535148848804660     
   3.9900000000000005E-002     1.7138704458953509     
   4.0200000000000000E-002     2.6671256546931019     
   4.0500000000000001E-002     3.6053038473853007     
   4.0800000000000003E-002     4.4734517058873706     
   4.1100000000000005E-002     5.2139439057904582     
   4.1399999999999999E-002     5.7728716021479443     
   4.1700000000000008E-002     6.1029521972699285     
   4.2000000000000003E-002     6.1685016567563480     
   4.2299999999999997E-002     5.9487571426023180     
   4.2600000000000006E-002     5.4393277998237579     
   4.2900000000000001E-002     4.6544972193860588     
   4.3200000000000002E-002     3.6254952561891969     
   4.3500000000000004E-002     2.3992642552666581     
   4.3799999999999999E-002     1.0356018649600109     
   4.4100000000000000E-002   -0.39720277103964818     
   4.4400000000000002E-002    -1.8262356849349217     
   4.4700000000000004E-002    -3.1790205713075395     
   4.4999999999999998E-002    -4.3876760101816217     
   4.5300000000000000E-002    -5.3928505682812613     
   4.5600000000000002E-002    -6.1471250622112166     
   4.5899999999999996E-002    -6.6168609739631563     
   4.6200000000000005E-002    -6.7840841487236503     
   4.6500000000000000E-002    -6.6466774123051664     
   4.6799999999999994E-002    -6.2179451775326129     
   4.7100000000000003E-002    -5.5257588337526613     
   4.7399999999999998E-002    -4.6108066965656178     
   4.7700000000000006E-002    -3.5240393203093134     
   4.8000000000000001E-002    -2.3242901749915887     
   4.8300000000000010E-002    -1.0749197773359640     
   4.8600000000000004E-002    0.15908549325038202     
   4.8899999999999999E-002     1.3145549428051702     
   4.9200000000000008E-002     2.3338548774835992     
   4.9500000000000002E-002     3.1679826944258735     
   4.9800000000000011E-002     3.7794799565957362     
   5.0100000000000006E-002     4.1451277821990260     
   5.0400000000000000E-002     4.2573098349564020     
   5.0700000000000009E-002     4.1249510756337884     
   5.1000000000000004E-002     3.7732197528471261     
   5.1299999999999998E-002     3.2415189149597410     
   5.1600000000000007E-002     2.5811334709756437     
   5.1900000000000002E-002     1.8511383118979907     
   5.2200000000000010E-002     1.1135857891537206     
   5.2500000000000005E-002    0.42888086695503347     
   5.2800000000000000E-002   -0.15010602452570687     
   5.3099999999999994E-002   -0.58204226732834563     
   5.3400000000000003E-002   -0.84086953506058748     
   5.3699999999999998E-002   -0.91840899398204101     
   5.4000000000000006E-002   -0.82436975457987671     
   5.4300000000000001E-002   -0.58571022526166949     
   5.4599999999999996E-002   -0.24356724494227944     
   5.4900000000000004E-002    0.15158215341735826     
   5.5199999999999999E-002    0.54493726329164005     
   5.5499999999999994E-002    0.88373162798155835     
   5.5800000000000002E-002     1.1232400997389451     
   5.6099999999999997E-002     1.2314482300591223     
   5.6400000000000006E-002     1.1935252904235476     
   5.6700000000000000E-002     1.0133399592119545     
   5.6999999999999995E-002    0.71339351982346244     
   5.7300000000000004E-002    0.33354417906541833     
   5.7599999999999998E-002    -7.4686640358316403E-002
   5.7900000000000007E-002   -0.45225975126994200     
   5.8200000000000002E-002   -0.73949895551696554     
   5.8499999999999996E-002   -0.88378325126181778     
   5.8800000000000005E-002   -0.84399735205198212     
   5.9100000000000000E-002   -0.59738116215966564     
   5.9400000000000008E-002   -0.14151933943877681     
   5.9700000000000003E-002    0.50491721923774335     
   6.0000000000000012E-002     1.3016891643625996     
   6.0300000000000006E-002     2.1926021394506154     
   6.0600000000000001E-002     3.1089407774334070     
   6.0900000000000010E-002     3.9764169239839475     
   6.1200000000000004E-002     4.7229259809210760     
   6.1500000000000013E-002     5.2829537089950804     
   6.1800000000000008E-002     5.6052771196695517     
   6.2100000000000002E-002     5.6557247596354898     
   6.2399999999999997E-002     5.4192149534609086     
   6.2700000000000006E-002     4.9012428081239534     
   6.3000000000000000E-002     4.1240205655400359     
   6.3300000000000009E-002     3.1246313679694993     
   6.3600000000000004E-002     1.9500275288152338     
   6.3899999999999998E-002    0.65182309123785132     
   6.4199999999999993E-002   -0.71705247369677494     
   6.4500000000000002E-002    -2.1077635319268495     
   6.4800000000000010E-002    -3.4777403468579902     
   6.5100000000000005E-002    -4.7917584593382578     
   6.5400000000000000E-002    -6.0238499218285710     
   6.5700000000000008E-002    -7.1544496084224392     
   6.5999999999999989E-002    -8.1702612120774916     
   6.6299999999999998E-002    -9.0616823472429076     
   6.6600000000000006E-002    -9.8198870194758854     
   6.6900000000000001E-002    -10.436261655765691     
   6.7199999999999996E-002    -10.899355972453264     
   6.7500000000000004E-002    -11.195200088014360     
   6.7800000000000013E-002    -11.307270458446169     
   6.8099999999999994E-002    -11.216000788314318     
   6.8400000000000002E-002    -10.901786036338706     
   6.8700000000000011E-002    -10.344818797243136     
   6.8999999999999992E-002    -9.5284166020413181     
   6.9300000000000000E-002    -8.4416716071771418     
   6.9600000000000009E-002    -7.0798810307954909     
   6.9900000000000004E-002    -5.4487712570647773     
   7.0199999999999999E-002    -3.5650968894580188     
   7.0500000000000007E-002    -1.4580879899063905     
   7.0800000000000016E-002    0.82868991081052457     
   7.1099999999999997E-002     3.2390160995059887     
   7.1400000000000005E-002     5.7026067889675289     
   7.1700000000000000E-002     8.1385596699976972     
   7.1999999999999995E-002     10.457770837395579     
   7.2300000000000003E-002     12.565700887181762     
   7.2600000000000012E-002     14.369178563166741     
   7.2900000000000006E-002     15.779580635722880     
   7.3200000000000001E-002     16.720086047001075     
   7.3499999999999996E-002     17.131327656432290     
   7.3800000000000004E-002     16.974695348865112     
   7.4099999999999999E-002     16.238825026568918     
   7.4400000000000008E-002     14.940667491483168     
   7.4700000000000003E-002     13.126116104521486     
   7.5000000000000011E-002     10.869797843656727     
   7.5299999999999992E-002     8.2708484626532766     
   7.5600000000000001E-002     5.4490536969870220     
   7.5900000000000009E-002     2.5379117439864949     
   7.6200000000000004E-002   -0.32402728409590509     
   7.6499999999999999E-002    -2.9998529177313458     
   7.6800000000000007E-002    -5.3629896246415569     
   7.7099999999999988E-002    -7.3055747152488237     
   7.7399999999999997E-002    -8.7431966357458322     
   7.7700000000000005E-002    -9.6215186032706725     
   7.8000000000000014E-002    -9.9192366028780157     
   7.8299999999999995E-002    -9.6480279600470453     
   7.8600000000000003E-002    -8.8538058891597871     
   7.8900000000000012E-002    -7.6116983985387776     
   7.9199999999999993E-002    -6.0226816272691792     
   7.9500000000000001E-002    -4.2070713828670137     
   7.9800000000000010E-002    -2.2954110627816036     
   8.0100000000000018E-002   -0.42282668800418577     
   8.0399999999999999E-002     1.2824302841056578     
   8.0700000000000008E-002     2.7059481426972951     
   8.1000000000000003E-002     3.7542155450290835     
   8.1299999999999997E-002     4.3629337544998634     
   8.1600000000000006E-002     4.4989847574190502     
   8.1900000000000014E-002     4.1640770697455167     
   8.2199999999999995E-002     3.3939781704404197     
   8.2500000000000004E-002     2.2554921302490172     
   8.2799999999999999E-002    0.84223915182842468     
   8.3100000000000007E-002   -0.73373631317743104     
   8.3400000000000002E-002    -2.3496846950853296     
   8.3700000000000011E-002    -3.8819042526811387     
   8.4000000000000005E-002    -5.2162206208142052     
   8.4300000000000000E-002    -6.2558820025263291     
   8.4599999999999995E-002    -6.9295299865966129     
   8.4900000000000003E-002    -7.1972885195287262     
   8.5199999999999998E-002    -7.0526929303753718     
   8.5500000000000007E-002    -6.5232725959819220     
   8.5800000000000001E-002    -5.6675703884541520     
   8.6100000000000010E-002    -4.5683196994227586     
   8.6399999999999991E-002    -3.3265244394002593     
   8.6699999999999999E-002    -2.0502336660285536     
   8.7000000000000008E-002   -0.84478950256926577     
   8.7300000000000003E-002    0.19582002813619681     
   8.7599999999999997E-002    0.99925719498940424     
   8.7900000000000006E-002     1.5187733045708498     
   8.8200000000000014E-002     1.7389916621816539     
   8.8499999999999995E-002     1.6754093645710950     
   8.8800000000000004E-002     1.3698198933497956     
   8.9100000000000013E-002    0.88803669902746485     
   8.9399999999999993E-002    0.30894473691630342     
   8.9700000000000002E-002   -0.28302286628009199     
   9.0000000000000011E-002   -0.80664021426668597     
   9.0299999999999991E-002    -1.1943829360793075     
   9.0600000000000000E-002    -1.3970789689065057     
   9.0900000000000009E-002    -1.3898477785069296     
   9.1200000000000017E-002    -1.1720607966939753     
   9.1499999999999998E-002   -0.76606772781321908     
   9.1800000000000007E-002   -0.21427513172625723     
   9.2100000000000001E-002    0.42874300620818673     
   9.2399999999999996E-002     1.1025094048662964     
   9.2700000000000005E-002     1.7477862598545784     
   9.3000000000000013E-002     2.3138770749741173     
   9.3300000000000008E-002     2.7637726312916668     
   9.3600000000000003E-002     3.0759964374488291     
   9.3899999999999997E-002     3.2467425558221663     
   9.4200000000000006E-002     3.2880674288433198     
   9.4500000000000001E-002     3.2243121782280610     
   9.4800000000000009E-002     3.0887431604540438     
   9.5100000000000004E-002     2.9169327969572976     
   9.5399999999999999E-002     2.7435936784846575     
   9.5699999999999993E-002     2.5974651228511902     
   9.6000000000000002E-002     2.4981362292997318     
   9.6300000000000011E-002     2.4561404892511547     
   9.6600000000000005E-002     2.4704790509711501     
   9.6900000000000000E-002     2.5317170173430981     
   9.7200000000000009E-002     2.6236329955336259     
   9.7499999999999989E-002     2.7254225057403971     
   9.7799999999999998E-002     2.8164758314494946     
   9.8100000000000007E-002     2.8776430050733950     
   9.8400000000000015E-002     2.8945379797848716     
   9.8699999999999996E-002     2.8589854658852119     
   9.9000000000000005E-002     2.7683047555425304     
   9.9300000000000013E-002     2.6264094733003560     
   9.9599999999999994E-002     2.4417555285642720     
   9.9900000000000003E-002     2.2247030526331031     
  0.10020000000000001          1.9870406647870098     
  0.10049999999999999          1.7373908615162605     
  0.10080000000000000          1.4810208422750577     
  0.10110000000000001          1.2197851504052082     
  0.10140000000000000         0.94960602958258633     
  0.10170000000000000         0.66452139218611705     
  0.10200000000000001         0.35590037409081443     
  0.10230000000000002          1.5438287038745280E-002
  0.10260000000000000        -0.36071703633168362     
  0.10290000000000001        -0.77423780754351323     
  0.10320000000000000         -1.2196713830659505     
  0.10350000000000001         -1.6871222174327549     
  0.10380000000000000         -2.1647147406988765     
  0.10410000000000001         -2.6371512776016459     
  0.10440000000000001         -3.0939047059605755     
  0.10470000000000000         -3.5284034477758368     
  0.10500000000000000         -3.9412325626726812     
  0.10530000000000000         -4.3423892159899395     
  0.10560000000000000         -4.7468914033263587     
  0.10590000000000001         -5.1756502132553521     
  0.10620000000000000         -5.6482314834048850     
  0.10650000000000001         -6.1780099788070686     
  0.10679999999999999         -6.7689085299082308     
  0.10710000000000000         -7.4080964459543850     
  0.10740000000000001         -8.0667556707527126     
  0.10770000000000000         -8.6998798382526559     
  0.10800000000000000         -9.2499233062070232     
  0.10830000000000001         -9.6543352021232920     
  0.10859999999999999         -9.8528909763030583     
  0.10890000000000000         -9.7973659148790375     
  0.10920000000000001         -9.4593472324614538     
  0.10950000000000001         -8.8357337168566232     
  0.10979999999999999         -7.9508970278519371     
  0.11009999999999999         -6.8541707422241700     
  0.11040000000000001         -5.6127500780472417     
  0.11070000000000001         -4.3013150877817452     
  0.11100000000000000         -2.9892694772401853     
  0.11130000000000000         -1.7265557283764821     
  0.11160000000000002        -0.53202891095847726     
  0.11190000000000001         0.61442553542614320     
  0.11220000000000001          1.7751046467204930     
  0.11250000000000000          3.0497015052973353     
  0.11280000000000000          4.5644408132781109     
  0.11309999999999999          6.4559454613764267     
  0.11340000000000001          8.8478588306296331     
  0.11369999999999998          11.826368893329587     
  0.11400000000000000          15.419544093409343     
  0.11430000000000000          19.573348815731208     
  0.11460000000000002          24.142076196048322     
  0.11489999999999999          28.884766948318088     
  0.11520000000000001          33.470608475617666     
  0.11550000000000001          37.501837028534567     
  0.11580000000000000          40.539766975801172     
  0.11609999999999999          42.145129508079208     
  0.11640000000000002          41.921812461724244     
  0.11670000000000001          39.557463090549959     
  0.11700000000000001          34.867619094629163     
  0.11730000000000000          27.826427033172081     
  0.11760000000000000          18.581922779798049     
  0.11789999999999999          7.4686839991468759     
  0.11820000000000001         -5.0144905952388399     
  0.11850000000000001         -18.225752474863270     
  0.11880000000000000         -31.424969332251294     
  0.11910000000000000         -43.831892474012875     
  0.11940000000000002         -54.677240504392103     
  0.11970000000000001         -63.270957281636925     
  0.12000000000000001         -69.050001150688956     
  0.12030000000000000         -71.626835669396598     
  0.12060000000000000         -70.818223550007133     
  0.12089999999999999         -66.655356642626884     
  0.12119999999999999         -59.385792471924788     
  0.12150000000000001         -49.444629705366197     
  0.12180000000000001         -37.424601199040012     
  0.12210000000000000         -24.026890445285289     
  0.12239999999999999         -10.010406151893363     
  0.12270000000000002          3.8625494286440585     
  0.12300000000000001          16.876527781757886     
  0.12330000000000001          28.406922865891147     
  0.12360000000000000          37.952539359730508     
  0.12390000000000000          45.161235872406451     
  0.12419999999999999          49.836205344290192     
  0.12450000000000001          51.938413975555420     
  0.12480000000000001          51.574444101798861     
  0.12509999999999999          48.975412008706257     
  0.12540000000000001          44.474974703281987     
  0.12570000000000003          38.476314127824253     
  0.12600000000000000          31.425230011716508     
  0.12630000000000002          23.778534504447862     
  0.12659999999999999          15.975676004988657     
  0.12690000000000001          8.4189729068897492     
  0.12719999999999998          1.4496878020619874     
  0.12750000000000000         -4.6610584139642697     
  0.12780000000000002         -9.7211190286660667     
  0.12809999999999999         -13.622166194490489     
  0.12840000000000001         -16.330636865286692     
  0.12869999999999998         -17.885950925265490     
  0.12900000000000000         -18.385792309084707     
  0.12930000000000003         -17.970700876463859     
  0.12959999999999999         -16.814351814447150     
  0.12990000000000002         -15.100809261247377     
  0.13019999999999998         -13.017560126102808     
  0.13050000000000000         -10.741222640329738     
  0.13080000000000003         -8.4242525451618064     
  0.13109999999999999         -6.1975784417882380     
  0.13140000000000002         -4.1581356539189045     
  0.13169999999999998         -2.3752989853852284     
  0.13200000000000001        -0.89088045140251637     
  0.13229999999999997         0.28153197490506443     
  0.13260000000000000          1.1442836763490476     
  0.13290000000000002          1.7202129437237659     
  0.13319999999999999          2.0407646763014000     
  0.13350000000000001          2.1444428267648448     
  0.13380000000000003          2.0764650976566372     
  0.13410000000000000          1.8797059766941460     
  0.13440000000000002          1.5976592911657548     
  0.13469999999999999          1.2694218073773982     
  0.13500000000000001         0.92878499472026732     
  0.13529999999999998         0.60504379853622758     
  0.13560000000000000         0.31909604525804625     
  0.13590000000000002          8.5035313273992053E-002
  0.13619999999999999         -8.9021744702111327E-002
  0.13650000000000001        -0.20253193764525435     
  0.13680000000000003        -0.25908433693722621     
  0.13710000000000000        -0.26686137744568139     
  0.13740000000000002        -0.23736417201839366     
  0.13769999999999999        -0.18075237282918977     
  0.13800000000000001        -0.10886335629782778     
  0.13829999999999998         -3.0999803441916107E-002
  0.13860000000000000          4.6793554074864852E-002
  0.13890000000000002         0.11858299627398017     
  0.13919999999999999         0.18298309899714216     
  0.13950000000000001         0.23906075248364989     
  0.13979999999999998         0.28774181423007850     
  0.14010000000000000         0.33108624843754508     
  0.14040000000000002         0.36863540097339342     
  0.14069999999999999         0.40229974187240369     
  0.14100000000000001         0.43095318046204412     
  0.14130000000000004         0.45390661153724565     
  0.14160000000000000         0.47027506214492121     
  0.14189999999999997         0.47735769059676159     
  0.14219999999999999         0.47522992060432401     
  0.14250000000000002         0.46173765586989290     
  0.14279999999999998         0.43765540988253804     
  0.14310000000000000         0.40293263099117738     
  0.14339999999999997         0.35909912004343170     
  0.14369999999999999         0.30910473467979571     
  0.14400000000000002         0.25390757302644840     
  0.14429999999999998         0.19822129736574023     
  0.14460000000000001         0.14409231493563901     
  0.14490000000000003          9.4766335063667828E-002
  0.14520000000000000          5.3245329459908675E-002
  0.14550000000000002          1.9957610404630732E-002
  0.14579999999999999         -2.5883019998911294E-003
  0.14610000000000001         -1.5695231561594802E-002
  0.14640000000000003         -1.9926634917256436E-002
  0.14670000000000000         -1.6697897599493139E-002
  0.14699999999999996         -1.0279384800279734E-002
  0.14729999999999999         -1.6308731281519939E-003
  0.14760000000000001          5.6941248376176090E-003
  0.14789999999999998          9.5932209199868779E-003
  0.14820000000000000          1.0310442782952539E-002