  -1.4999999999999999E-002     0.0000000000000000     
  -1.4700000000000000E-002     0.0000000000000000     
  -1.4400000000000000E-002     0.0000000000000000     
  -1.4100000000000000E-002     0.0000000000000000     
  -1.3800000000000000E-002     0.0000000000000000     
  -1.3500000000000000E-002     0.0000000000000000     
  -1.3200000000000000E-002     0.0000000000000000     
  -1.2899999999999998E-002     0.0000000000000000     
  -1.2600000000000000E-002     0.0000000000000000     
  -1.2299999999999998E-002     0.0000000000000000     
  -1.2000000000000000E-002     0.0000000000000000     
  -1.1699999999999999E-002     0.0000000000000000     
  -1.1399999999999999E-002     0.0000000000000000     
  -1.1099999999999999E-002     0.0000000000000000     
  -1.0799999999999999E-002     0.0000000000000000     
  -1.0499999999999999E-002     0.0000000000000000     
  -1.0199999999999999E-002     0.0000000000000000     
  -9.8999999999999991E-003     0.0000000000000000     
  -9.5999999999999992E-003     0.0000000000000000     
  -9.2999999999999992E-003     0.0000000000000000     
  -8.9999999999999993E-003     0.0000000000000000     
  -8.6999999999999994E-003     0.0000000000000000     
  -8.3999999999999995E-003     0.0000000000000000     
  -8.0999999999999996E-003     0.0000000000000000     
  -7.7999999999999988E-003     0.0000000000000000     
  -7.4999999999999997E-003     0.0000000000000000     
  -7.1999999999999998E-003     0.0000000000000000     
  -6.8999999999999981E-003     0.0000000000000000     
  -6.5999999999999982E-003     0.0000000000000000     
  -6.3000000000000000E-003     0.0000000000000000     
  -6.0000000000000001E-003     0.0000000000000000     
  -5.6999999999999985E-003     0.0000000000000000     
  -5.3999999999999986E-003     0.0000000000000000     
  -5.1000000000000004E-003     0.0000000000000000     
  -4.7999999999999987E-003     0.0000000000000000     
  -4.5000000000000005E-003     0.0000000000000000     
  -4.1999999999999989E-003     0.0000000000000000     
  -3.8999999999999990E-003     0.0000000000000000     
  -3.5999999999999990E-003     0.0000000000000000     
  -3.2999999999999991E-003     0.0000000000000000     
  -2.9999999999999992E-003     0.0000000000000000     
  -2.6999999999999993E-003     0.0000000000000000     
  -2.3999999999999994E-003     0.0000000000000000     
  -2.0999999999999977E-003     0.0000000000000000     
  -1.7999999999999995E-003     0.0000000000000000     
  -1.4999999999999979E-003     0.0000000000000000     
  -1.1999999999999997E-003     0.0000000000000000     
  -8.9999999999999976E-004     0.0000000000000000     
  -5.9999999999999810E-004     0.0000000000000000     
  -2.9999999999999992E-004     0.0000000000000000     
   0.0000000000000000          0.0000000000000000     
   3.0000000000000165E-004     0.0000000000000000     
   5.9999999999999984E-004     0.0000000000000000     
   9.0000000000000149E-004     0.0000000000000000     
   1.2000000000000031E-003     0.0000000000000000     
   1.5000000000000013E-003     0.0000000000000000     
   1.8000000000000030E-003     0.0000000000000000     
   2.1000000000000012E-003     0.0000000000000000     
   2.3999999999999994E-003     0.0000000000000000     
   2.7000000000000010E-003     0.0000000000000000     
   2.9999999999999992E-003     0.0000000000000000     
   3.3000000000000008E-003     0.0000000000000000     
   3.6000000000000025E-003     0.0000000000000000     
   3.9000000000000007E-003     0.0000000000000000     
   4.2000000000000023E-003     0.0000000000000000     
   4.5000000000000005E-003     0.0000000000000000     
   4.7999999999999987E-003     0.0000000000000000     
   5.1000000000000004E-003     0.0000000000000000     
   5.4000000000000020E-003     0.0000000000000000     
   5.7000000000000037E-003     0.0000000000000000     
   5.9999999999999984E-003     0.0000000000000000     
   6.3000000000000000E-003     0.0000000000000000     
   6.6000000000000017E-003     0.0000000000000000     
   6.9000000000000034E-003     0.0000000000000000     
   7.2000000000000015E-003     0.0000000000000000     
   7.5000000000000032E-003     0.0000000000000000     
   7.8000000000000014E-003     0.0000000000000000     
   8.0999999999999996E-003     0.0000000000000000     
   8.4000000000000012E-003    -3.8923257878718462E-038
   8.7000000000000029E-003     4.5961752781978825E-036
   9.0000000000000011E-003    -6.2648303354436813E-037
   9.2999999999999992E-003    -5.8185019486783584E-034
   9.6000000000000009E-003     4.4245929764036585E-033
   9.8999999999999991E-003     2.3067580895102063E-033
   1.0200000000000001E-002    -2.5993231534062464E-031
   1.0500000000000002E-002     1.6553608243702801E-030
   1.0800000000000004E-002     2.2441562385169762E-031
   1.1099999999999999E-002    -5.8609433222988142E-029
   1.1400000000000000E-002     3.2003294940926068E-028
   1.1700000000000002E-002    -1.9296555511157229E-028
   1.2000000000000004E-002    -6.3794345152695458E-027
   1.2300000000000002E-002     3.6750491598924433E-026
   1.2600000000000000E-002    -6.7036288536828569E-026
   1.2900000000000002E-002    -2.8081721383406223E-025
   1.3200000000000000E-002     2.3420945954926004E-024
   1.3500000000000002E-002    -7.0378578687940767E-024
   1.3800000000000003E-002     2.8460189483924291E-024
   1.4100000000000001E-002     6.5567598641148429E-023
   1.4400000000000000E-002    -2.9981221259909009E-022
   1.4700000000000001E-002     5.8935699757026359E-022
   1.4999999999999999E-002     2.9015054576425486E-022
   1.5300000000000001E-002    -5.8304927200938780E-021
   1.5600000000000003E-002     1.9956925465858203E-020
   1.5899999999999997E-002    -3.8285621032182670E-020
   1.6199999999999999E-002     5.8742547743376129E-020
   1.6500000000000001E-002    -2.9806110983909632E-019
   1.6800000000000002E-002     2.3711010110432969E-018
   1.7100000000000004E-002    -1.3991203850675882E-017
   1.7400000000000006E-002     6.5715128990820006E-017
   1.7700000000000000E-002    -2.7092395700213484E-016
   1.8000000000000002E-002     1.0562034751834530E-015
   1.8300000000000004E-002    -4.1022329567441106E-015
   1.8600000000000005E-002     1.6189723692021083E-014
   1.8900000000000000E-002    -6.3815636419209498E-014
   1.9200000000000002E-002     2.4076864165285200E-013
   1.9500000000000003E-002    -8.2280545404482353E-013
   1.9799999999999998E-002     2.3666128788693322E-012
   2.0100000000000000E-002    -4.9383830700115605E-012
   2.0400000000000001E-002     3.2260401737507739E-012
   2.0700000000000003E-002     2.7694223989168683E-011
   2.0999999999999998E-002    -1.4405374404449924E-010
   2.1299999999999999E-002     3.4954315458473766E-010
   2.1600000000000001E-002    -2.2999696235981304E-010
   2.1900000000000003E-002    -1.4067530407524538E-009
   2.2200000000000004E-002     4.7340394353571212E-009
   2.2500000000000006E-002    -2.6675503891169469E-009
   2.2800000000000001E-002    -1.7603611991029629E-008
   2.3100000000000002E-002     3.4165166303253341E-008
   2.3400000000000004E-002     3.8774659566974667E-008
   2.3699999999999999E-002    -1.5509108318166899E-007
   2.4000000000000000E-002    -1.1079409619851534E-007
   2.4300000000000002E-002     4.7366609864952166E-007
   2.4599999999999997E-002     4.4238211924544752E-007
   2.4900000000000005E-002    -1.1111976858686789E-006
   2.5200000000000000E-002    -1.6961927819002104E-006
   2.5499999999999995E-002     2.4480620683008173E-006
   2.5800000000000003E-002     9.9507361471400156E-006
   2.6099999999999998E-002     1.5021051017060738E-005
   2.6400000000000007E-002     1.7548981021654688E-005
   2.6700000000000002E-002     2.6654618669392821E-005
   2.6999999999999996E-002     4.9707478335501380E-005
   2.7300000000000005E-002     8.3984427460063061E-005
   2.7600000000000000E-002     1.2619650094349445E-004
   2.7900000000000008E-002     1.8648747247684231E-004
   2.8200000000000003E-002     2.8462043904370002E-004
   2.8499999999999998E-002     4.3469786466157102E-004
   2.8800000000000006E-002     6.4539832514358408E-004
   2.9100000000000001E-002     9.3748506877196561E-004
   2.9400000000000003E-002     1.3505651254846276E-003
   2.9700000000000004E-002     1.9292735732190647E-003
   3.0000000000000006E-002     2.7142039673150875E-003
   3.0300000000000001E-002     3.7549889249992446E-003
   3.0600000000000002E-002     5.1232025972824391E-003
   3.0900000000000004E-002     6.9009535909536068E-003
   3.1199999999999999E-002     9.1621911123964395E-003
   3.1500000000000007E-002     1.1974527732782458E-002
   3.1800000000000002E-002     1.5410308456240529E-002
   3.2099999999999997E-002     1.9535250036461504E-002
   3.2400000000000005E-002     2.4377694289390073E-002
   3.2700000000000000E-002     2.9915095767959476E-002
   3.3000000000000002E-002     3.6077509016447351E-002
   3.3300000000000003E-002     4.2740039511570682E-002
   3.3599999999999998E-002     4.9695524704107985E-002
   3.3900000000000000E-002     5.6634039478824505E-002
   3.4200000000000001E-002     6.3156011315336436E-002
   3.4500000000000003E-002     6.8792568018440026E-002
   3.4799999999999998E-002     7.3005354787040844E-002
   3.5099999999999999E-002     7.5197400744086984E-002
   3.5400000000000001E-002     7.4764573506390875E-002
   3.5699999999999996E-002     7.1156282828458206E-002
   3.6000000000000004E-002     6.3917223607519613E-002
   3.6299999999999999E-002     5.2737409279035585E-002
   3.6600000000000008E-002     3.7509544883249202E-002
   3.6900000000000002E-002     1.8380152694979279E-002
   3.7199999999999997E-002    -4.2000253410975630E-003
   3.7500000000000006E-002    -2.9484778888195562E-002
   3.7800000000000000E-002    -5.6459641636703806E-002
   3.8100000000000009E-002    -8.3869097316669361E-002
   3.8400000000000004E-002   -0.11027616534508189     
   3.8699999999999998E-002   -0.13416622203338147     
   3.9000000000000007E-002   -0.15407552933705659     
   3.9300000000000002E-002   -0.16872174233210835     
   3.9600000000000003E-002   -0.17709234816148633     
   3.9900000000000005E-002   -0.17855128572743695     
   4.0200000000000000E-002   -0.17294796202055895     
   4.0500000000000001E-002   -0.16065465918834754     
   4.0800000000000003E-002   -0.14255212805214157     
   4.1100000000000005E-002   -0.11999143093595110     
   4.1399999999999999E-002    -9.4696463455591573E-002
   4.1700000000000008E-002    -6.8663301632022833E-002
   4.2000000000000003E-002    -4.4034830391395330E-002
   4.2299999999999997E-002    -2.2877257442458721E-002
   4.2600000000000006E-002    -7.0414988676940904E-003
   4.2900000000000001E-002     1.9555662884922081E-003
   4.3200000000000002E-002     3.0562590541176327E-003
   4.3500000000000004E-002    -4.2304997707758030E-003
   4.3799999999999999E-002    -1.9759992596000031E-002
   4.4100000000000000E-002    -4.2769744331179749E-002
   4.4400000000000002E-002    -7.1952870570817451E-002
   4.4700000000000004E-002   -0.10551874467585964     
   4.4999999999999998E-002   -0.14124615593655321     
   4.5300000000000000E-002   -0.17663591133903012     
   4.5600000000000002E-002   -0.20911275042247279     
   4.5899999999999996E-002   -0.23616903475803053     
   4.6200000000000005E-002   -0.25550138327053773     
   4.6500000000000000E-002   -0.26513459109138360     
   4.6799999999999994E-002   -0.26358919446926521     
   4.7100000000000003E-002   -0.24999285806007610     
   4.7399999999999998E-002   -0.22410107517740929     
   4.7700000000000006E-002   -0.18636602449956019     
   4.8000000000000001E-002   -0.13787137213323852     
   4.8300000000000010E-002    -8.0269174594349124E-002
   4.8600000000000004E-002    -1.5732053497823972E-002
   4.8899999999999999E-002     5.3233567821824035E-002
   4.9200000000000008E-002    0.12394086090793310     
   4.9500000000000002E-002    0.19367989163967714     
   4.9800000000000011E-002    0.25993142925838697     
   5.0100000000000006E-002    0.32038959787255550     
   5.0400000000000000E-002    0.37318078278903855     
   5.0700000000000009E-002    0.41699065908254518     
   5.1000000000000004E-002    0.45099357993770894     
   5.1299999999999998E-002    0.47487365286343142     
   5.1600000000000007E-002    0.48876986778117981     
   5.1900000000000002E-002    0.49324760070467910     
   5.2200000000000010E-002    0.48922947201135614     
   5.2500000000000005E-002    0.47774582334693960     
   5.2800000000000000E-002    0.45986450921973798     
   5.3099999999999994E-002    0.43670765029649061     
   5.3400000000000003E-002    0.40928298209511205     
   5.3699999999999998E-002    0.37837689398500629     
   5.4000000000000006E-002    0.34457409778910097     
   5.4300000000000001E-002    0.30829653771998622     
   5.4599999999999996E-002    0.26984952087643066     
   5.4900000000000004E-002    0.22941475261504873     
   5.5199999999999999E-002    0.18708259043188757     
   5.5499999999999994E-002    0.14308166344611450     
   5.5800000000000002E-002     9.7793093799684705E-002
   5.6099999999999997E-002     5.1780164878092005E-002
   5.6400000000000006E-002     5.8860906076097647E-003
   5.6700000000000000E-002    -3.8818594679891905E-002
   5.6999999999999995E-002    -8.1004773357750359E-002
   5.7300000000000004E-002   -0.11912696741408224     
   5.7599999999999998E-002   -0.15163907581170388     
   5.7900000000000007E-002   -0.17706280345036163     
   5.8200000000000002E-002   -0.19418345686716076     
   5.8499999999999996E-002   -0.20219680007495100     
   5.8800000000000005E-002   -0.20075851980583792     
   5.9100000000000000E-002   -0.19022325235789772     
   5.9400000000000008E-002   -0.17166645713064277     
   5.9700000000000003E-002   -0.14678250361322664     
   6.0000000000000012E-002   -0.11786455039798183     
   6.0300000000000006E-002    -8.7577309854049989E-002
   6.0600000000000001E-002    -5.8837534765284305E-002
   6.0900000000000010E-002    -3.4583978634177504E-002
   6.1200000000000004E-002    -1.7387811523642493E-002
   6.1500000000000013E-002    -9.3195933294599742E-003
   6.1800000000000008E-002    -1.1759567293156747E-002
   6.2100000000000002E-002    -2.5176950208029153E-002
   6.2399999999999997E-002    -4.9125566437639656E-002
   6.2700000000000006E-002    -8.2217758004017982E-002
   6.3000000000000000E-002   -0.12218127123163658     
   6.3300000000000009E-002   -0.16609994046890630     
   6.3600000000000004E-002   -0.21054623903955605     
   6.3899999999999998E-002   -0.25181129452345452     
   6.4199999999999993E-002   -0.28627820014365035     
   6.4500000000000002E-002   -0.31059810786997133     
   6.4800000000000010E-002   -0.32196454936890362     
   6.5100000000000005E-002   -0.31840134951213805     
   6.5400000000000000E-002   -0.29875843715358030     
   6.5700000000000008E-002   -0.26300216178121261     
   6.5999999999999989E-002   -0.21217014541053913     
   6.6299999999999998E-002   -0.14830326597252430     
   6.6600000000000006E-002    -7.4431188366331114E-002
   6.6900000000000001E-002     5.8013978277170475E-003
   6.7199999999999996E-002     8.8167116634726428E-002
   6.7500000000000004E-002    0.16813480094265953     
   6.7800000000000013E-002    0.24138890447755568     
   6.8099999999999994E-002    0.30395708244152431     
   6.8400000000000002E-002    0.35237396971827728     
   6.8700000000000011E-002    0.38396035602155010     
   6.8999999999999992E-002    0.39703562815648041     
   6.9300000000000000E-002    0.39089026106489477     
   6.9600000000000009E-002    0.36559058818040668     
   6.9900000000000004E-002    0.32195687460759537     
   7.0199999999999999E-002    0.26154076418497851     
   7.0500000000000007E-002    0.18628739963838647     
   7.0800000000000016E-002     9.8197417514680030E-002
   7.1099999999999997E-002    -5.7833044168131842E-004
   7.1400000000000005E-002   -0.10783588302296851     
   7.1700000000000000E-002   -0.22146459072880553     
   7.1999999999999995E-002   -0.33931502456551854     
   7.2300000000000003E-002   -0.45918119348461772     
   7.2600000000000012E-002   -0.57853933807395741     
   7.2900000000000006E-002   -0.69444625543678384     
   7.3200000000000001E-002   -0.80357892094680494     
   7.3499999999999996E-002   -0.90211075555251341     
   7.3800000000000004E-002   -0.98578399314227738     
   7.4099999999999999E-002    -1.0501171732900403     
   7.4400000000000008E-002    -1.0906547818207883     
   7.4700000000000003E-002    -1.1033571332689149     
   7.5000000000000011E-002    -1.0848477670269574     
   7.5299999999999992E-002    -1.0327717195120414     
   7.5600000000000001E-002   -0.94619764979365328     
   7.5900000000000009E-002   -0.82568375360219903     
   7.6200000000000004E-002   -0.67342956738340476     
   7.6499999999999999E-002   -0.49330196010606997     
   7.6800000000000007E-002   -0.29058673393403112     
   7.7099999999999988E-002    -7.1723137552288430E-002
   7.7399999999999997E-002    0.15589484761630512     
   7.7700000000000005E-002    0.38434193983710552     
   7.8000000000000014E-002    0.60554521844636078     
   7.8299999999999995E-002    0.81159443712684975     
   7.8600000000000003E-002    0.99504021904476403     
   7.8900000000000012E-002     1.1491794094337244     
   7.9199999999999993E-002     1.2683168094972572     
   7.9500000000000001E-002     1.3480181587316054     
   7.9800000000000010E-002     1.3851745440121661     
   8.0100000000000018E-002     1.3781724621465727     
   8.0399999999999999E-002     1.3272373658415049     
   8.0700000000000008E-002     1.2344429238308976     
   8.1000000000000003E-002     1.1037316504740247     
   8.1299999999999997E-002    0.94082517321479031     
   8.1600000000000006E-002    0.75317480820169180     
   8.1900000000000014E-002    0.54976284716406809     
   8.2199999999999995E-002    0.34048346192022017     
   8.2500000000000004E-002    0.13566707698445102     
   8.2799999999999999E-002    -5.4650100816086233E-002
   8.3100000000000007E-002   -0.22139985862427569     
   8.3400000000000002E-002   -0.35705889072452024     
   8.3700000000000011E-002   -0.45633645432072889     
   8.4000000000000005E-002   -0.51666331911901686     
   8.4300000000000000E-002   -0.53833519612595815     
   8.4599999999999995E-002   -0.52439049478023314     
   8.4900000000000003E-002   -0.48034806689016207     
   8.5199999999999998E-002   -0.41366073819672167     
   8.5500000000000007E-002   -0.33293319694697843     
   8.5800000000000001E-002   -0.24708974799661121     
   8.6100000000000010E-002   -0.16445163035215238     
   8.6399999999999991E-002    -9.1975099587070286E-002
   8.6699999999999999E-002    -3.4502523121924922E-002
   8.7000000000000008E-002     5.5565513203128525E-003
   8.7300000000000003E-002     2.8279973342648035E-002
   8.7599999999999997E-002     3.6328730236440648E-002
   8.7900000000000006E-002     3.4421241386344614E-002
   8.8200000000000014E-002     2.8661460241979395E-002
   8.8499999999999995E-002     2.5870672754075952E-002
   8.8800000000000004E-002     3.2585962177028360E-002
   8.9100000000000013E-002     5.4429405319294966E-002
   8.9399999999999993E-002     9.5353973355048888E-002
   8.9700000000000002E-002    0.15696474070405886     
   9.0000000000000011E-002    0.23826539031615557     
   9.0299999999999991E-002    0.33563587058256594     
   9.0600000000000000E-002    0.44309714773981845     
   9.0900000000000009E-002    0.55242993839438803     
   9.1200000000000017E-002    0.65379410156330131     
   9.1499999999999998E-002    0.73682790512798846     
   9.1800000000000007E-002    0.79124344950272985     
   9.2100000000000001E-002    0.80751346655088341     
   9.2399999999999996E-002    0.77786720650942698     
   9.2700000000000005E-002    0.69705900683538502     
   9.3000000000000013E-002    0.56285299361979924     
   9.3300000000000008E-002    0.37629468732608196     
   9.3600000000000003E-002    0.14201321207215223     
   9.3899999999999997E-002   -0.13189352305640334     
   9.4200000000000006E-002   -0.43418588715191181     
   9.4500000000000001E-002   -0.75095059973431155     
   9.4800000000000009E-002    -1.0665475813664607     
   9.5100000000000004E-002    -1.3643971794373471     
   9.5399999999999999E-002    -1.6277851842149431     
   9.5699999999999993E-002    -1.8409466900694440     
   9.6000000000000002E-002    -1.9901658309031092     
   9.6300000000000011E-002    -2.0646146132357046     
   9.6600000000000005E-002    -2.0568543426821577     
   9.6900000000000000E-002    -1.9632289433379881     
   9.7200000000000009E-002    -1.7843391503029338     
   9.7499999999999989E-002    -1.5249639087262992     
   9.7799999999999998E-002    -1.1936286222572434     
   9.8100000000000007E-002   -0.80216248134156132     
   9.8400000000000015E-002   -0.36522573506628930     
   9.8699999999999996E-002    0.10047605079130495     
   9.9000000000000005E-002    0.57702916271268112     
   9.9300000000000013E-002     1.0462224507395188     
   9.9599999999999994E-002     1.4902536117127667     
   9.9900000000000003E-002     1.8922160967527191     
  0.10020000000000001          2.2368900844443900     
  0.10049999999999999          2.5115379410444945     
  0.10080000000000000          2.7060123106797107     
  0.10110000000000001          2.8129631842369065     
  0.10140000000000000          2.8281176259739169     
  0.10170000000000000          2.7504242512981278     
  0.10200000000000001          2.5820262206074034     
  0.10230000000000002          2.3278099757853994     
  0.10260000000000000          1.9953043619921189     
  0.10290000000000001          1.5944585494325167     
  0.10320000000000000          1.1372132785766524     
  0.10350000000000001         0.63713687005101605     
  0.10380000000000000         0.10889633325287951     
  0.10410000000000001        -0.43224226452880110     
  0.10440000000000001        -0.97047194038943108     
  0.10470000000000000         -1.4898305017105393     
  0.10500000000000000         -1.9749609181998267     
  0.10530000000000000         -2.4112037458449223     
  0.10560000000000000         -2.7847488725212770     
  0.10590000000000001         -3.0831128228638249     
  0.10620000000000000         -3.2953925082941140     
  0.10650000000000001         -3.4126951052975585     
  0.10679999999999999         -3.4283543098414953     
  0.10710000000000000         -3.3380854949739813     
  0.10740000000000001         -3.1406928279547230     
  0.10770000000000000         -2.8381548646507468     
  0.10800000000000000         -2.4358942034291289     
  0.10830000000000001         -1.9431349391435617     
  0.10859999999999999         -1.3726584459172813     
  0.10890000000000000        -0.74117676717190051     
  0.10920000000000001         -6.9079642700292432E-002
  0.10950000000000001         0.62040441473202890     
  0.10979999999999999          1.3015509019739007     
  0.11009999999999999          1.9471270377656751     
  0.11040000000000001          2.5295294369363930     
  0.11070000000000001          3.0221397484857420     
  0.11100000000000000          3.4010910164053740     
  0.11130000000000000          3.6463936290069228     
  0.11160000000000002          3.7433523715772026     
  0.11190000000000001          3.6839534408574508     
  0.11220000000000001          3.4676273319202693     
  0.11250000000000000          3.1018794025500540     
  0.11280000000000000          2.6019692776539358     
  0.11309999999999999          1.9901510052059379     
  0.11340000000000001          1.2951336958983504     
  0.11369999999999998         0.55044538498960449     
  0.11400000000000000        -0.20783469780704067     
  0.11430000000000000        -0.94280753118700034     
  0.11460000000000002         -1.6188026907042925     
  0.11489999999999999         -2.2034749281718931     
  0.11520000000000001         -2.6695260954671980     
  0.11550000000000001         -2.9963443576421298     
  0.11580000000000000         -3.1707856750712722     
  0.11609999999999999         -3.1876351537639920     
  0.11640000000000002         -3.0500303488795026     
  0.11670000000000001         -2.7688835763174495     
  0.11700000000000001         -2.3621462521878982     
  0.11730000000000000         -1.8536283423260045     
  0.11760000000000000         -1.2714755593088469     
  0.11789999999999999        -0.64713247138557684     
  0.11820000000000001         -1.3247672883922590E-002
  0.11850000000000001         0.59853889540398342     
  0.11880000000000000          1.1586613580578931     
  0.11910000000000000          1.6412681423350115     
  0.11940000000000002          2.0258278006250094     
  0.11970000000000001          2.2980589979781030     
  0.12000000000000001          2.4505416765627217     
  0.12030000000000000          2.4828814180231831     
  0.12060000000000000          2.4015062870933690     
  0.12089999999999999          2.2188705717702533     
  0.12119999999999999          1.9521049079240811     
  0.12150000000000001          1.6218222403236098     
  0.12180000000000001          1.2504226174977688     
  0.12210000000000000         0.86004402301253080     
  0.12239999999999999         0.47132886742572389     
  0.12270000000000002         0.10214069375962909     
  0.12300000000000001        -0.23382288049484679     
  0.12330000000000001        -0.52708570732878746     
  0.12360000000000000        -0.77248268651046459     
  0.12390000000000000        -0.96912792376429380     
  0.12419999999999999         -1.1193367777567467     
  0.12450000000000001         -1.2279722403165536     
  0.12480000000000001         -1.3011508677040382     
  0.12509999999999999         -1.3452540124739372     
  0.12540000000000001         -1.3664132656871857     
  0.12570000000000003         -1.3695900694140875     
  0.12600000000000000         -1.3580380750995644     
  0.12630000000000002         -1.3332343991709834     
  0.12659999999999999         -1.2948771301676985     
  0.12690000000000001         -1.2414873004650815     
  0.12719999999999998         -1.1704065425342662     
  0.12750000000000000         -1.0779694289544395     
  0.12780000000000002        -0.96035054051641211     
  0.12809999999999999        -0.81416687195319781     
  0.12840000000000001        -0.63676913422500903     
  0.12869999999999998        -0.42672720998268154     
  0.12900000000000000        -0.18426377203843103     
  0.12930000000000003          8.8388898063733734E-002
  0.12959999999999999         0.38622965830235167     
  0.12990000000000002         0.70159993145482780     
  0.13019999999999998          1.0241796722676639     
  0.13050000000000000          1.3409029568215303     
  0.13080000000000003          1.6364447274533589     
  0.13109999999999999          1.8938731663216970     
  0.13140000000000002          2.0957963244977691     
  0.13169999999999998          2.2255953761516025     
  0.13200000000000001          2.2683775343865378     
  0.13229999999999997          2.2127475819273172     
  0.13260000000000000          2.0520434709226691     
  0.13290000000000002          1.7851073409308995     
  0.13319999999999999          1.4175034568694116     
  0.13350000000000001         0.96159325492385861     
  0.13380000000000003         0.43595457011978844     
  0.13410000000000000        -0.13517019054491186     
  0.13440000000000002        -0.72299553435149555     
  0.13469999999999999         -1.2961675510498010     
  0.13500000000000001         -1.8228490083249866     
  0.13529999999999998         -2.2727933275599597     
  0.13560000000000000         -2.6193200059620594     
  0.13590000000000002         -2.8415162798280988     
  0.13619999999999999         -2.9257719668605233     
  0.13650000000000001         -2.8665130376018197     
  0.13680000000000003         -2.6666841250773530     
  0.13710000000000000         -2.3376798597706312     
  0.13740000000000002         -1.8982353436936137     
  0.13769999999999999         -1.3731585604476066     
  0.13800000000000001        -0.79155969515697322     
  0.13829999999999998        -0.18464672504565227     
  0.13860000000000000         0.41638509973838467     
  0.13890000000000002         0.98228433557637107     
  0.13919999999999999          1.4871674934805785     
  0.13950000000000001          1.9099569718945695     
  0.13979999999999998          2.2354971806687516     
  0.14010000000000000          2.4543104134783960     
  0.14040000000000002          2.5624755305731952     
  0.14069999999999999          2.5614546715553672     
  0.14100000000000001          2.4574730968159741     
  0.14130000000000004          2.2604574697259068     
  0.14160000000000000          1.9830042824411862     
  0.14189999999999997          1.6402831717158080     
  0.14219999999999999          1.2494729174660506     
  0.14250000000000002         0.82882802343520723     
  0.14279999999999998         0.39741552831428351     
  0.14310000000000000         -2.5023267562975349E-002
  0.14339999999999997        -0.41860787859660142     
  0.14369999999999999        -0.76434502995945497     
  0.14400000000000002         -1.0449801578318834     
  0.14429999999999998         -1.2457989562834229     
  0.14460000000000001         -1.3561167528787337     
  0.14490000000000003         -1.3702008729164632     
  0.14520000000000000         -1.2882406980441061     
  0.14550000000000002         -1.1171706937671999     
  0.14579999999999999        -0.87041808978889890     
  0.14610000000000001        -0.56741125058916353     
  0.14640000000000003        -0.23265571389589379     
  0.14670000000000000         0.10594794432678256     
  0.14699999999999996         0.41937304775820916     
  0.14729999999999999         0.67980224825350355     
  0.14760000000000001         0.86255977480140800     
  0.14789999999999998         0.94835001833570942     
  0.14820000000000000         0.92516646196907359     