  -1.4999999999999999E-002     0.0000000000000000     
  -1.4700000000000000E-002     0.0000000000000000     
  -1.4400000000000000E-002     0.0000000000000000     
  -1.4100000000000000E-002     0.0000000000000000     
  -1.3800000000000000E-002     0.0000000000000000     
  -1.3500000000000000E-002     0.0000000000000000     
  -1.3200000000000000E-002     0.0000000000000000     
  -1.2899999999999998E-002     0.0000000000000000     
  -1.2600000000000000E-002     0.0000000000000000     
  -1.2299999999999998E-002     0.0000000000000000     
  -1.2000000000000000E-002     0.0000000000000000     
  -1.1699999999999999E-002     0.0000000000000000     
  -1.1399999999999999E-002     0.0000000000000000     
  -1.1099999999999999E-002     0.0000000000000000     
  -1.0799999999999999E-002     0.0000000000000000     
  -1.0499999999999999E-002     0.0000000000000000     
  -1.0199999999999999E-002     0.0000000000000000     
  -9.8999999999999991E-003     0.0000000000000000     
  -9.5999999999999992E-003     0.0000000000000000     
  -9.2999999999999992E-003     0.0000000000000000     
  -8.9999999999999993E-003     0.0000000000000000     
  -8.6999999999999994E-003     0.0000000000000000     
  -8.3999999999999995E-003     0.0000000000000000     
  -8.0999999999999996E-003     0.0000000000000000     
  -7.7999999999999988E-003     0.0000000000000000     
  -7.4999999999999997E-003     0.0000000000000000     
  -7.1999999999999998E-003     0.0000000000000000     
  -6.8999999999999981E-003     0.0000000000000000     
  -6.5999999999999982E-003     0.0000000000000000     
  -6.3000000000000000E-003     0.0000000000000000     
  -6.0000000000000001E-003     0.0000000000000000     
  -5.6999999999999985E-003     0.0000000000000000     
  -5.3999999999999986E-003     0.0000000000000000     
  -5.1000000000000004E-003     0.0000000000000000     
  -4.7999999999999987E-003     0.0000000000000000     
  -4.5000000000000005E-003     0.0000000000000000     
  -4.1999999999999989E-003     0.0000000000000000     
  -3.8999999999999990E-003     0.0000000000000000     
  -3.5999999999999990E-003     0.0000000000000000     
  -3.2999999999999991E-003     0.0000000000000000     
  -2.9999999999999992E-003     0.0000000000000000     
  -2.6999999999999993E-003     0.0000000000000000     
  -2.3999999999999994E-003     0.0000000000000000     
  -2.0999999999999977E-003     0.0000000000000000     
  -1.7999999999999995E-003     0.0000000000000000     
  -1.4999999999999979E-003     0.0000000000000000     
  -1.1999999999999997E-003     0.0000000000000000     
  -8.9999999999999976E-004     0.0000000000000000     
  -5.9999999999999810E-004     0.0000000000000000     
  -2.9999999999999992E-004     0.0000000000000000     
   0.0000000000000000          0.0000000000000000     
   3.0000000000000165E-004     0.0000000000000000     
   5.9999999999999984E-004     0.0000000000000000     
   9.0000000000000149E-004     0.0000000000000000     
   1.2000000000000031E-003     0.0000000000000000     
   1.5000000000000013E-003     0.0000000000000000     
   1.8000000000000030E-003     0.0000000000000000     
   2.1000000000000012E-003     0.0000000000000000     
   2.3999999999999994E-003     0.0000000000000000     
   2.7000000000000010E-003     0.0000000000000000     
   2.9999999999999992E-003     0.0000000000000000     
   3.3000000000000008E-003     0.0000000000000000     
   3.6000000000000025E-003    -6.4358127373006636E-037
   3.9000000000000007E-003    -3.8052844980979110E-036
   4.2000000000000023E-003     1.1078478938734229E-035
   4.5000000000000005E-003     4.1819147104619988E-035
   4.7999999999999987E-003     3.5936118155047290E-034
   5.1000000000000004E-003    -5.6842627271644861E-033
   5.4000000000000020E-003     2.3050737453646626E-032
   5.7000000000000037E-003     9.6019815236536997E-032
   5.9999999999999984E-003    -1.9236605820133124E-030
   6.3000000000000000E-003     1.1019154762348269E-029
   6.6000000000000017E-003    -8.7202827782417505E-030
   6.9000000000000034E-003    -2.9601511948870219E-028
   7.2000000000000015E-003     2.1170694394969304E-027
   7.5000000000000032E-003    -5.3873992112025483E-027
   7.8000000000000014E-003    -1.4991897828808986E-026
   8.0999999999999996E-003     1.8232722700433981E-025
   8.4000000000000012E-003    -6.7873759918158215E-025
   8.7000000000000029E-003     5.7083385190660497E-025
   9.0000000000000011E-003     6.4635988801053040E-024
   9.2999999999999992E-003    -3.5422095009394258E-023
   9.6000000000000009E-003     7.6862782207066879E-023
   9.8999999999999991E-003     6.3606839286379898E-023
   1.0200000000000001E-002    -1.0780102086126622E-021
   1.0500000000000002E-002     4.0107940146004103E-021
   1.0800000000000004E-002    -7.4271933278025476E-021
   1.1099999999999999E-002    -1.5743428099514872E-021
   1.1400000000000000E-002     6.1183376897416492E-020
   1.1700000000000002E-002    -2.3657424972623119E-019
   1.2000000000000004E-002     6.0633259138568394E-019
   1.2300000000000002E-002    -1.5408441277181063E-018
   1.2600000000000000E-002     6.3050746177542902E-018
   1.2900000000000002E-002    -3.5049713814125615E-017
   1.3200000000000000E-002     1.8287729851818003E-016
   1.3500000000000002E-002    -8.1579850144517961E-016
   1.3800000000000003E-002     3.0608664220436359E-015
   1.4100000000000001E-002    -9.1777442850354829E-015
   1.4400000000000000E-002     1.7283527717739181E-014
   1.4700000000000001E-002     2.0946609789566917E-014
   1.4999999999999999E-002    -3.9947312493494869E-013
   1.5300000000000001E-002     2.2970444990555450E-012
   1.5600000000000003E-002    -8.8847332269104129E-012
   1.5899999999999997E-002     2.3799649750966267E-011
   1.6199999999999999E-002    -3.3415305245032556E-011
   1.6500000000000001E-002    -4.8030347060690204E-011
   1.6800000000000002E-002     4.1168712883177250E-010
   1.7100000000000004E-002    -1.0003387007628817E-009
   1.7400000000000006E-002     3.2957364615171514E-010
   1.7700000000000000E-002     4.6229424732757707E-009
   1.8000000000000002E-002    -1.0371515202223236E-008
   1.8300000000000004E-002    -5.6796132241743180E-009
   1.8600000000000005E-002     5.0187132671908330E-008
   1.8900000000000000E-002    -1.5874267234039507E-008
   1.9200000000000002E-002    -1.8867326900817716E-007
   1.9500000000000003E-002     4.6825356037061283E-008
   1.9799999999999998E-002     5.8894846688417601E-007
   2.0100000000000000E-002     8.2975326165524166E-008
   2.0400000000000001E-002    -1.5617886219843058E-006
   2.0700000000000003E-002    -9.5232769581343746E-007
   2.0999999999999998E-002     5.0169519454357214E-006
   2.1299999999999999E-002     1.3658152965945192E-005
   2.1600000000000001E-002     1.9889817849616520E-005
   2.1900000000000003E-002     2.5902563720592298E-005
   2.2200000000000004E-002     4.1518858779454604E-005
   2.2500000000000006E-002     7.3058276029769331E-005
   2.2800000000000001E-002     1.1850021837744862E-004
   2.3100000000000002E-002     1.7853331519290805E-004
   2.3400000000000004E-002     2.6748279924504459E-004
   2.3699999999999999E-002     4.0714576607570052E-004
   2.4000000000000000E-002     6.1472621746361256E-004
   2.4300000000000002E-002     9.0698711574077606E-004
   2.4599999999999997E-002     1.3158628717064857E-003
   2.4900000000000005E-002     1.8909503705799580E-003
   2.5200000000000000E-002     2.6868213899433613E-003
   2.5499999999999995E-002     3.7595068570226431E-003
   2.5800000000000003E-002     5.1794531755149364E-003
   2.6099999999999998E-002     7.0375991053879261E-003
   2.6400000000000007E-002     9.4318157061934471E-003
   2.6700000000000002E-002     1.2453057803213596E-002
   2.6999999999999996E-002     1.6186911612749100E-002
   2.7300000000000005E-002     2.0715178921818733E-002
   2.7600000000000000E-002     2.6097621768712997E-002
   2.7900000000000008E-002     3.2344292849302292E-002
   2.8200000000000003E-002     3.9400383830070496E-002
   2.8499999999999998E-002     4.7139164060354233E-002
   2.8800000000000006E-002     5.5346816778182983E-002
   2.9100000000000001E-002     6.3699245452880859E-002
   2.9400000000000003E-002     7.1748219430446625E-002
   2.9700000000000004E-002     7.8929319977760315E-002
   3.0000000000000006E-002     8.4579482674598694E-002
   3.0300000000000001E-002     8.7956763803958893E-002
   3.0600000000000002E-002     8.8276788592338562E-002
   3.0900000000000004E-002     8.4770642220973969E-002
   3.1199999999999999E-002     7.6756961643695831E-002
   3.1500000000000007E-002     6.3707865774631500E-002
   3.1800000000000002E-002     4.5323964208364487E-002
   3.2099999999999997E-002     2.1617563441395760E-002
   3.2400000000000005E-002    -7.0305131375789642E-003
   3.2700000000000000E-002    -3.9841495454311371E-002
   3.3000000000000002E-002    -7.5638487935066223E-002
   3.3300000000000003E-002   -0.11288109421730042     
   3.3599999999999998E-002   -0.14973060786724091     
   3.3900000000000000E-002   -0.18415696918964386     
   3.4200000000000001E-002   -0.21408727765083313     
   3.4500000000000003E-002   -0.23757709562778473     
   3.4799999999999998E-002   -0.25297635793685913     
   3.5099999999999999E-002   -0.25907617807388306     
   3.5400000000000001E-002   -0.25525027513504028     
   3.5699999999999996E-002   -0.24156719446182251     
   3.6000000000000004E-002   -0.21881575882434845     
   3.6299999999999999E-002   -0.18846727907657623     
   3.6600000000000008E-002   -0.15261831879615784     
   3.6900000000000002E-002   -0.11385443806648254     
   3.7199999999999997E-002    -7.5042471289634705E-002
   3.7500000000000006E-002    -3.9119809865951538E-002
   3.7800000000000000E-002    -8.8947769254446030E-003
   3.8100000000000009E-002     1.3187130913138390E-002
   3.8400000000000004E-002     2.5275511667132378E-002
   3.8699999999999998E-002     2.6217920705676079E-002
   3.9000000000000007E-002     1.5640405938029289E-002
   3.9300000000000002E-002    -5.9508872218430042E-003
   3.9600000000000003E-002    -3.7232719361782074E-002
   3.9900000000000005E-002    -7.6134711503982544E-002
   4.0200000000000000E-002   -0.11992149800062180     
   4.0500000000000001E-002   -0.16540537774562836     
   4.0800000000000003E-002   -0.20916412770748138     
   4.1100000000000005E-002   -0.24772429466247559     
   4.1399999999999999E-002   -0.27772700786590576     
   4.1700000000000008E-002   -0.29616910219192505     
   4.2000000000000003E-002   -0.30064493417739868     
   4.2299999999999997E-002   -0.28946018218994141     
   4.2600000000000006E-002   -0.26170071959495544     
   4.2900000000000001E-002   -0.21733237802982330     
   4.3200000000000002E-002   -0.15723054111003876     
   4.3500000000000004E-002    -8.3109550178050995E-002
   4.3799999999999999E-002     2.6074992492794991E-003
   4.4100000000000000E-002     9.6931323409080505E-002
   4.4400000000000002E-002    0.19648548960685730     
   4.4700000000000004E-002    0.29771345853805542     
   4.4999999999999998E-002    0.39711514115333557     
   4.5300000000000000E-002    0.49146601557731628     
   4.5600000000000002E-002    0.57794231176376343     
   4.5899999999999996E-002    0.65421986579895020     
   4.6200000000000005E-002    0.71857625246047974     
   4.6500000000000000E-002    0.76989436149597168     
   4.6799999999999994E-002    0.80755108594894409     
   4.7100000000000003E-002    0.83133369684219360     
   4.7399999999999998E-002    0.84134256839752197     
   4.7700000000000006E-002    0.83783435821533203     
   4.8000000000000001E-002    0.82103377580642700     
   4.8300000000000010E-002    0.79108107089996338     
   4.8600000000000004E-002    0.74805670976638794     
   4.8899999999999999E-002    0.69196051359176636     
   4.9200000000000008E-002    0.62271612882614136     
   4.9500000000000002E-002    0.54032868146896362     
   4.9800000000000011E-002    0.44508674740791321     
   5.0100000000000006E-002    0.33775335550308228     
   5.0400000000000000E-002    0.21969234943389893     
   5.0700000000000009E-002     9.2974118888378143E-002
   5.1000000000000004E-002    -3.9525564759969711E-002
   5.1299999999999998E-002   -0.17412278056144714     
   5.1600000000000007E-002   -0.30640909075737000     
   5.1900000000000002E-002   -0.43147116899490356     
   5.2200000000000010E-002   -0.54424041509628296     
   5.2500000000000005E-002   -0.63981652259826660     
   5.2800000000000000E-002   -0.71370756626129150     
   5.3099999999999994E-002   -0.76226317882537842     
   5.3400000000000003E-002   -0.78313112258911133     
   5.3699999999999998E-002   -0.77544015645980835     
   5.4000000000000006E-002   -0.73979973793029785     
   5.4300000000000001E-002   -0.67833226919174194     
   5.4599999999999996E-002   -0.59469968080520630     
   5.4900000000000004E-002   -0.49381518363952637     
   5.5199999999999999E-002   -0.38138183951377869     
   5.5499999999999994E-002   -0.26354625821113586     
   5.5800000000000002E-002   -0.14653174579143524     
   5.6099999999999997E-002    -3.6257963627576828E-002
   5.6400000000000006E-002     6.2046520411968231E-002
   5.6700000000000000E-002    0.14417749643325806     
   5.6999999999999995E-002    0.20701059699058533     
   5.7300000000000004E-002    0.24854795634746552     
   5.7599999999999998E-002    0.26800373196601868     
   5.7900000000000007E-002    0.26574388146400452     
   5.8200000000000002E-002    0.24308080971240997     
   5.8499999999999996E-002    0.20214805006980896     
   5.8800000000000005E-002    0.14583128690719604     
   5.9100000000000000E-002     7.7658183872699738E-002
   5.9400000000000008E-002     1.5484271571040154E-003
   5.9700000000000003E-002    -7.8290149569511414E-002
   6.0000000000000012E-002   -0.15744569897651672     
   6.0300000000000006E-002   -0.23151378333568573     
   6.0600000000000001E-002   -0.29633790254592896     
   6.0900000000000010E-002   -0.34828126430511475     
   6.1200000000000004E-002   -0.38449722528457642     
   6.1500000000000013E-002   -0.40315374732017517     
   6.1800000000000008E-002   -0.40366140007972717     
   6.2100000000000002E-002   -0.38696372509002686     
   6.2399999999999997E-002   -0.35560005903244019     
   6.2700000000000006E-002   -0.31351259350776672     
   6.3000000000000000E-002   -0.26587209105491638     
   6.3300000000000009E-002   -0.21878899633884430     
   6.3600000000000004E-002   -0.17884445190429688     
   6.3899999999999998E-002   -0.15241551399230957     
   6.4199999999999993E-002   -0.14497932791709900     
   6.4500000000000002E-002   -0.16056378185749054     
   6.4800000000000010E-002   -0.20125913619995117     
   6.5100000000000005E-002   -0.26676496863365173     
   6.5400000000000000E-002   -0.35410487651824951     
   6.5700000000000008E-002   -0.45765540003776550     
   6.5999999999999989E-002   -0.56946438550949097     
   6.6299999999999998E-002   -0.67975026369094849     
   6.6600000000000006E-002   -0.77753865718841553     
   6.6900000000000001E-002   -0.85148656368255615     
   6.7199999999999996E-002   -0.89080041646957397     
   6.7500000000000004E-002   -0.88607519865036011     
   6.7800000000000013E-002   -0.83028066158294678     
   6.8099999999999994E-002   -0.71945095062255859     
   6.8400000000000002E-002   -0.55302095413208008     
   6.8700000000000011E-002   -0.33422669768333435     
   6.8999999999999992E-002    -7.0101395249366760E-002
   6.9300000000000000E-002    0.22881919145584106     
   6.9600000000000009E-002    0.54905390739440918     
   6.9900000000000004E-002    0.87483525276184082     
   7.0199999999999999E-002     1.1889137029647827     
   7.0500000000000007E-002     1.4737496376037598     
   7.0800000000000016E-002     1.7125678062438965     
   7.1099999999999997E-002     1.8902034759521484     
   7.1400000000000005E-002     1.9942431449890137     
   7.1700000000000000E-002     2.0159640312194824     
   7.1999999999999995E-002     1.9508459568023682     
   7.2300000000000003E-002     1.7990198135375977     
   7.2600000000000012E-002     1.5655143260955811     
   7.2900000000000006E-002     1.2600791454315186     
   7.3200000000000001E-002    0.89671897888183594     
   7.3499999999999996E-002    0.49287724494934082     
   7.3800000000000004E-002     6.8482547998428345E-002
   7.4099999999999999E-002   -0.35522723197937012     
   7.4400000000000008E-002   -0.75708532333374023     
   7.4700000000000003E-002    -1.1172797679901123     
   7.5000000000000011E-002    -1.4185754060745239     
   7.5299999999999992E-002    -1.6472862958908081     
   7.5600000000000001E-002    -1.7940139770507812     
   7.5900000000000009E-002    -1.8541343212127686     
   7.6200000000000004E-002    -1.8277132511138916     
   7.6499999999999999E-002    -1.7190773487091064     
   7.6800000000000007E-002    -1.5362691879272461     
   7.7099999999999988E-002    -1.2903596162796021     
   7.7399999999999997E-002   -0.99435633420944214     
   7.7700000000000005E-002   -0.66207653284072876     
   7.8000000000000014E-002   -0.30743381381034851     
   7.8299999999999995E-002     5.6116506457328796E-002
   7.8600000000000003E-002    0.41631126403808594     
   7.8900000000000012E-002    0.76247912645339966     
   7.9199999999999993E-002     1.0853240489959717     
   7.9500000000000001E-002     1.3768092393875122     
   7.9800000000000010E-002     1.6302037239074707     
   8.0100000000000018E-002     1.8398001194000244     
   8.0399999999999999E-002     2.0004930496215820     
   8.0700000000000008E-002     2.1075835227966309     
   8.1000000000000003E-002     2.1568853855133057     
   8.1299999999999997E-002     2.1447324752807617     
   8.1600000000000006E-002     2.0679936408996582     
   8.1900000000000014E-002     1.9243766069412231     
   8.2199999999999995E-002     1.7129613161087036     
   8.2500000000000004E-002     1.4344972372055054     
   8.2799999999999999E-002     1.0917189121246338     
   8.3100000000000007E-002    0.68986326456069946     
   8.3400000000000002E-002    0.23696018755435944     
   8.3700000000000011E-002   -0.25595670938491821     
   8.4000000000000005E-002   -0.77476972341537476     
   8.4300000000000000E-002    -1.3025001287460327     
   8.4599999999999995E-002    -1.8195668458938599     
   8.4900000000000003E-002    -2.3045773506164551     
   8.5199999999999998E-002    -2.7350661754608154     
   8.5500000000000007E-002    -3.0883946418762207     
   8.5800000000000001E-002    -3.3431346416473389     
   8.6100000000000010E-002    -3.4803900718688965     
   8.6399999999999991E-002    -3.4851305484771729     
   8.6699999999999999E-002    -3.3473486900329590     
   8.7000000000000008E-002    -3.0630359649658203     
   8.7300000000000003E-002    -2.6352422237396240     
   8.7599999999999997E-002    -2.0744793415069580     
   8.7900000000000006E-002    -1.3985332250595093     
   8.8200000000000014E-002   -0.63208323717117310     
   8.8499999999999995E-002    0.19399833679199219     
   8.8800000000000004E-002     1.0439989566802979     
   8.9100000000000013E-002     1.8794416189193726     
   8.9399999999999993E-002     2.6608560085296631     
   8.9700000000000002E-002     3.3496029376983643     
   9.0000000000000011E-002     3.9103665351867676     
   9.0299999999999991E-002     4.3133697509765625     
   9.0600000000000000E-002     4.5360856056213379     
   9.0900000000000009E-002     4.5646204948425293     
   9.1200000000000017E-002     4.3946242332458496     
   9.1499999999999998E-002     4.0317835807800293     
   9.1800000000000007E-002     3.4917178153991699     
   9.2100000000000001E-002     2.7991828918457031     
   9.2399999999999996E-002     1.9865854978561401     
   9.2700000000000005E-002     1.0919841527938843     
   9.3000000000000013E-002    0.15725785493850708     
   9.3300000000000008E-002   -0.77418088912963867     
   9.3600000000000003E-002    -1.6600984334945679     
   9.3899999999999997E-002    -2.4617807865142822     
   9.4200000000000006E-002    -3.1458551883697510     
   9.4500000000000001E-002    -3.6856257915496826     
   9.4800000000000009E-002    -4.0624837875366211     
   9.5100000000000004E-002    -4.2666363716125488     
   9.5399999999999999E-002    -4.2969446182250977     
   9.5699999999999993E-002    -4.1603860855102539     
   9.6000000000000002E-002    -3.8711121082305908     
   9.6300000000000011E-002    -3.4494554996490479     
   9.6600000000000005E-002    -2.9204990863800049     
   9.6900000000000000E-002    -2.3121466636657715     
   9.7200000000000009E-002    -1.6536020040512085     
   9.7499999999999989E-002   -0.97404384613037109     
   9.7799999999999998E-002   -0.30134570598602295     
   9.8100000000000007E-002    0.33929678797721863     
   9.8400000000000015E-002    0.92639243602752686     
   9.8699999999999996E-002     1.4422253370285034     
   9.9000000000000005E-002     1.8731896877288818     
   9.9300000000000013E-002     2.2103049755096436     
   9.9599999999999994E-002     2.4490590095520020     
   9.9900000000000003E-002     2.5885493755340576     
  0.10020000000000001          2.6310522556304932     
  0.10049999999999999          2.5820248126983643     
  0.10080000000000000          2.4497044086456299     
  0.10110000000000001          2.2439968585968018     
  0.10140000000000000          1.9759062528610229     
  0.10170000000000000          1.6577007770538330     
  0.10200000000000001          1.3026849031448364     
  0.10230000000000002         0.92449247837066650     
  0.10260000000000000         0.53653794527053833     
  0.10290000000000001         0.15207144618034363     
  0.10320000000000000        -0.21588210761547089     
  0.10350000000000001        -0.55515819787979126     
  0.10380000000000000        -0.85492211580276489     
  0.10410000000000001         -1.1061140298843384     
  0.10440000000000001         -1.3015947341918945     
  0.10470000000000000         -1.4362957477569580     
  0.10500000000000000         -1.5077279806137085     
  0.10530000000000000         -1.5161306858062744     
  0.10560000000000000         -1.4641667604446411     
  0.10590000000000001         -1.3565264940261841     
  0.10620000000000000         -1.1998857259750366     
  0.10650000000000001         -1.0025354623794556     
  0.10679999999999999        -0.77361321449279785     
  0.10710000000000000        -0.52259266376495361     
  0.10740000000000001        -0.25906231999397278     
  0.10770000000000000          7.2954827919602394E-003
  0.10800000000000000         0.26698020100593567     
  0.10830000000000001         0.51106005907058716     
  0.10859999999999999         0.73096609115600586     
  0.10890000000000000         0.91798883676528931     
  0.10920000000000001          1.0631028413772583     
  0.10950000000000001          1.1577546596527100     
  0.10979999999999999          1.1941194534301758     
  0.11009999999999999          1.1648931503295898     
  0.11040000000000001          1.0639073848724365     
  0.11070000000000001         0.88762491941452026     
  0.11100000000000000         0.63620758056640625     
  0.11130000000000000         0.31380161643028259     
  0.11160000000000002         -7.0834808051586151E-002
  0.11190000000000001        -0.50343537330627441     
  0.11220000000000001        -0.96404284238815308     
  0.11250000000000000         -1.4278336763381958     
  0.11280000000000000         -1.8666838407516479     
  0.11309999999999999         -2.2504572868347168     
  0.11340000000000001         -2.5486080646514893     
  0.11369999999999998         -2.7328491210937500     
  0.11400000000000000         -2.7802104949951172     
  0.11430000000000000         -2.6751346588134766     
  0.11460000000000002         -2.4105200767517090     
  0.11489999999999999         -1.9893792867660522     
  0.11520000000000001         -1.4260048866271973     
  0.11550000000000001        -0.74498742818832397     
  0.11580000000000000          2.0688656717538834E-002
  0.11609999999999999         0.83129310607910156     
  0.11640000000000002          1.6429452896118164     
  0.11670000000000001          2.4110276699066162     
  0.11700000000000001          3.0933899879455566     
  0.11730000000000000          3.6534523963928223     
  0.11760000000000000          4.0627179145812988     
  0.11789999999999999          4.3025784492492676     
  0.11820000000000001          4.3653640747070312     
  0.11850000000000001          4.2548389434814453     
  0.11880000000000000          3.9855196475982666     
  0.11910000000000000          3.5808134078979492     
  0.11940000000000002          3.0711755752563477     
  0.11970000000000001          2.4920513629913330     
  0.12000000000000001          1.8809235095977783     
  0.12030000000000000          1.2746268510818481     
  0.12060000000000000         0.70681899785995483     
  0.12089999999999999         0.20591416954994202     
  0.12119999999999999        -0.20669664442539215     
  0.12150000000000001        -0.51771503686904907     
  0.12180000000000001        -0.72272026538848877     
  0.12210000000000000        -0.82631826400756836     
  0.12239999999999999        -0.84121388196945190     
  0.12270000000000002        -0.78730577230453491     
  0.12300000000000001        -0.69031018018722534     
  0.12330000000000001        -0.57966715097427368     
  0.12360000000000000        -0.48630931973457336     
  0.12390000000000000        -0.44059571623802185     
  0.12419999999999999        -0.47016188502311707     
  0.12450000000000001        -0.59754836559295654     
  0.12480000000000001        -0.83856999874114990     
  0.12509999999999999         -1.2012131214141846     
  0.12540000000000001         -1.6844010353088379     
  0.12570000000000003         -2.2776424884796143     
  0.12600000000000000         -2.9614570140838623     
  0.12630000000000002         -3.7079062461853027     
  0.12659999999999999         -4.4817705154418945     
  0.12690000000000001         -5.2423138618469238     
  0.12719999999999998         -5.9454174041748047     
  0.12750000000000000         -6.5456786155700684     
  0.12780000000000002         -6.9988160133361816     
  0.12809999999999999         -7.2641344070434570     
  0.12840000000000001         -7.3071208000183105     
  0.12869999999999998         -7.1014804840087891     
  0.12900000000000000         -6.6306638717651367     
  0.12930000000000003         -5.8889708518981934     
  0.12959999999999999         -4.8829092979431152     
  0.12990000000000002         -3.6312959194183350     
  0.13019999999999998         -2.1640403270721436     
  0.13050000000000000        -0.52133566141128540     
  0.13080000000000003          1.2476155757904053     
  0.13109999999999999          3.0867791175842285     
  0.13140000000000002          4.9355883598327637     
  0.13169999999999998          6.7314834594726562     
  0.13200000000000001          8.4126596450805664     
  0.13229999999999997          9.9200582504272461     
  0.13260000000000000          11.199343681335449     
  0.13290000000000002          12.203675270080566     
  0.13319999999999999          12.895411491394043     
  0.13350000000000001          13.246609687805176     
  0.13380000000000003          13.240352630615234     
  0.13410000000000000          12.871923446655273     
  0.13440000000000002          12.148518562316895     
  0.13469999999999999          11.088167190551758     
  0.13500000000000001          9.7196178436279297     
  0.13529999999999998          8.0816144943237305     
  0.13560000000000000          6.2204942703247070     
  0.13590000000000002          4.1881422996520996     
  0.13619999999999999          2.0405497550964355     
  0.13650000000000001        -0.16401693224906921     
  0.13680000000000003         -2.3670165538787842     
  0.13710000000000000         -4.5117492675781250     
  0.13740000000000002         -6.5441842079162598     
  0.13769999999999999         -8.4130430221557617     
  0.13800000000000001         -10.070498466491699     
  0.13829999999999998         -11.473658561706543     
  0.13860000000000000         -12.584677696228027     
  0.13890000000000002         -13.369759559631348     
  0.13919999999999999         -13.800634384155273     
  0.13950000000000001         -13.857136726379395     
  0.13979999999999998         -13.528303146362305     
  0.14010000000000000         -12.812678337097168     
  0.14040000000000002         -11.721228599548340     
  0.14069999999999999         -10.280035018920898     
  0.14100000000000001         -8.5307636260986328     
  0.14130000000000004         -6.5301165580749512     
  0.14160000000000000         -4.3493742942810059     
  0.14189999999999997         -2.0726053714752197     
  0.14219999999999999         0.20699371397495270     
  0.14250000000000002          2.3920919895172119     
  0.14279999999999998          4.3869991302490234     
  0.14310000000000000          6.1036872863769531     
  0.14339999999999997          7.4668622016906738     
  0.14369999999999999          8.4191761016845703     
  0.14400000000000002          8.9262552261352539     
  0.14429999999999998          8.9786577224731445     
  0.14460000000000001          8.5916872024536133     
  0.14490000000000003          7.8047022819519043     
  0.14520000000000000          6.6794404983520508     
  0.14550000000000002          5.2947916984558105     
  0.14579999999999999          3.7407331466674805     
  0.14610000000000001          2.1133046150207520     
  0.14640000000000003         0.50954806804656982     
  0.14670000000000000        -0.97875154018402100     
  0.14699999999999996         -2.2708475589752197     
  0.14729999999999999         -3.3001129627227783     
  0.14760000000000001         -4.0164952278137207     
  0.14789999999999998         -4.3891191482543945     
  0.14820000000000000         -4.4076943397521973     