  -1.4999999999999999E-002     0.0000000000000000     
  -1.4700000000000000E-002     0.0000000000000000     
  -1.4400000000000000E-002     0.0000000000000000     
  -1.4100000000000000E-002     0.0000000000000000     
  -1.3800000000000000E-002     0.0000000000000000     
  -1.3500000000000000E-002     0.0000000000000000     
  -1.3200000000000000E-002     0.0000000000000000     
  -1.2899999999999998E-002     0.0000000000000000     
  -1.2600000000000000E-002     0.0000000000000000     
  -1.2299999999999998E-002     0.0000000000000000     
  -1.2000000000000000E-002     0.0000000000000000     
  -1.1699999999999999E-002     0.0000000000000000     
  -1.1399999999999999E-002     0.0000000000000000     
  -1.1099999999999999E-002     0.0000000000000000     
  -1.0799999999999999E-002     0.0000000000000000     
  -1.0499999999999999E-002     0.0000000000000000     
  -1.0199999999999999E-002     0.0000000000000000     
  -9.8999999999999991E-003     0.0000000000000000     
  -9.5999999999999992E-003     0.0000000000000000     
  -9.2999999999999992E-003     0.0000000000000000     
  -8.9999999999999993E-003     0.0000000000000000     
  -8.6999999999999994E-003     0.0000000000000000     
  -8.3999999999999995E-003     0.0000000000000000     
  -8.0999999999999996E-003     0.0000000000000000     
  -7.7999999999999988E-003     0.0000000000000000     
  -7.4999999999999997E-003     0.0000000000000000     
  -7.1999999999999998E-003     0.0000000000000000     
  -6.8999999999999981E-003     0.0000000000000000     
  -6.5999999999999982E-003     0.0000000000000000     
  -6.3000000000000000E-003     0.0000000000000000     
  -6.0000000000000001E-003     0.0000000000000000     
  -5.6999999999999985E-003     0.0000000000000000     
  -5.3999999999999986E-003     0.0000000000000000     
  -5.1000000000000004E-003     0.0000000000000000     
  -4.7999999999999987E-003     0.0000000000000000     
  -4.5000000000000005E-003     0.0000000000000000     
  -4.1999999999999989E-003     0.0000000000000000     
  -3.8999999999999990E-003     0.0000000000000000     
  -3.5999999999999990E-003     0.0000000000000000     
  -3.2999999999999991E-003     0.0000000000000000     
  -2.9999999999999992E-003     0.0000000000000000     
  -2.6999999999999993E-003    -4.6847160967017198E-037
  -2.3999999999999994E-003     2.9392086863679697E-036
  -2.0999999999999977E-003     2.1640170841994893E-035
  -1.7999999999999995E-003    -2.2827849180284016E-035
  -1.4999999999999979E-003    -2.1130833387175293E-034
  -1.1999999999999997E-003     1.4233575284332404E-033
  -8.9999999999999976E-004     6.7977818934045533E-034
  -5.9999999999999810E-004    -3.2396130601034898E-032
  -2.9999999999999992E-004     1.0239786538247435E-031
   0.0000000000000000          5.7994706509682738E-032
   3.0000000000000165E-004    -1.0001269565609657E-030
   5.9999999999999984E-004     1.8147294953531204E-030
   9.0000000000000149E-004     2.5587442566552332E-030
   1.2000000000000031E-003    -1.8545045754504816E-029
   1.5000000000000013E-003     3.4817145099830274E-029
   1.8000000000000030E-003     1.3711437058047875E-029
   2.1000000000000012E-003    -2.1808159391709493E-028
   2.3999999999999994E-003     4.5162744232264718E-028
   2.7000000000000010E-003    -2.9406590986611217E-029
   2.9999999999999992E-003    -1.9695603465333732E-027
   3.3000000000000008E-003     1.2723211287777120E-027
   3.6000000000000025E-003     4.4780552101485821E-026
   3.9000000000000007E-003    -3.0406170275200767E-025
   4.2000000000000023E-003     8.7033307900565377E-025
   4.5000000000000005E-003     9.9909312532331667E-025
   4.7999999999999987E-003    -2.2910232515782512E-023
   5.1000000000000004E-003     1.2288509150072899E-022
   5.4000000000000020E-003    -3.8636667857201327E-022
   5.7000000000000037E-003     6.1069506681148688E-022
   5.9999999999999984E-003     9.5760352874952035E-022
   6.3000000000000000E-003    -1.0367926226385831E-020
   6.6000000000000017E-003     3.9805598361973869E-020
   6.9000000000000034E-003    -9.6518406553013632E-020
   7.2000000000000015E-003     1.3005622476912593E-019
   7.5000000000000032E-003     9.8623102998169455E-020
   7.8000000000000014E-003    -1.2138763819832986E-018
   8.0999999999999996E-003     4.3122075113440781E-018
   8.4000000000000012E-003    -1.0569188607513616E-017
   8.7000000000000029E-003     2.0524584385094510E-017
   9.0000000000000011E-003    -3.7204952752467230E-017
   9.2999999999999992E-003     9.0380447027618276E-017
   9.6000000000000009E-003    -3.1049218232401937E-016
   9.8999999999999991E-003     8.7844061130113458E-016
   1.0200000000000001E-002     2.3885185618092476E-016
   1.0500000000000002E-002    -2.5078926091316907E-014
   1.0800000000000004E-002     2.1140768714615621E-013
   1.1099999999999999E-002    -1.2035226331155724E-012
   1.1400000000000000E-002     5.3029529552273136E-012
   1.1700000000000002E-002    -1.8170482479762384E-011
   1.2000000000000004E-002     4.4340125321395973E-011
   1.2300000000000002E-002    -4.7759997345853122E-011
   1.2600000000000000E-002    -1.6999994467692403E-010
   1.2900000000000002E-002     1.0582603682252056E-009
   1.3200000000000000E-002    -2.5446778018078930E-009
   1.3500000000000002E-002     1.0829646068799548E-009
   1.3800000000000003E-002     1.1900261220887387E-008
   1.4100000000000001E-002    -3.2377741376876656E-008
   1.4400000000000000E-002     2.9285454061778182E-009
   1.4700000000000001E-002     1.3564797995968547E-007
   1.4999999999999999E-002    -1.5911739126295288E-007
   1.5300000000000001E-002    -3.9216055824908835E-007
   1.5600000000000003E-002     6.4005513422671356E-007
   1.5899999999999997E-002     1.2384132332954323E-006
   1.6199999999999999E-002    -1.5498433185712202E-006
   1.6500000000000001E-002    -4.7055164031917229E-006
   1.6800000000000002E-002     2.0454044715734199E-006
   1.7100000000000004E-002     2.7179916287423111E-005
   1.7400000000000006E-002     6.9327295932453126E-005
   1.7700000000000000E-002     1.2296304339542985E-004
   1.8000000000000002E-002     1.9026407971978188E-004
   1.8300000000000004E-002     2.8588995337486267E-004
   1.8600000000000005E-002     4.3642759555950761E-004
   1.8900000000000000E-002     6.7666784161701798E-004
   1.9200000000000002E-002     1.0470884153619409E-003
   1.9500000000000003E-002     1.6001309268176556E-003
   1.9799999999999998E-002     2.4087957572191954E-003
   2.0100000000000000E-002     3.5735294222831726E-003
   2.0400000000000001E-002     5.2305632270872593E-003
   2.0700000000000003E-002     7.5567541643977165E-003
   2.0999999999999998E-002     1.0770304128527641E-002
   2.1299999999999999E-002     1.5131332911550999E-002
   2.1600000000000001E-002     2.0944077521562576E-002
   2.1900000000000003E-002     2.8554858639836311E-002
   2.2200000000000004E-002     3.8332600146532059E-002
   2.2500000000000006E-002     5.0638090819120407E-002
   2.2800000000000001E-002     6.5792471170425415E-002
   2.3100000000000002E-002     8.4027238190174103E-002
   2.3400000000000004E-002    0.10540977120399475     
   2.3699999999999999E-002    0.12975698709487915     
   2.4000000000000000E-002    0.15654046833515167     
   2.4300000000000002E-002    0.18479512631893158     
   2.4599999999999997E-002    0.21302483975887299     
   2.4900000000000005E-002    0.23912303149700165     
   2.5200000000000000E-002    0.26034620404243469     
   2.5499999999999995E-002    0.27332839369773865     
   2.5800000000000003E-002    0.27418878674507141     
   2.6099999999999998E-002    0.25866585969924927     
   2.6400000000000007E-002    0.22241897881031036     
   2.6700000000000002E-002    0.16135844588279724     
   2.6999999999999996E-002     7.2144009172916412E-002
   2.7300000000000005E-002    -4.7351989895105362E-002
   2.7600000000000000E-002   -0.19752788543701172     
   2.7900000000000008E-002   -0.37652412056922913     
   2.8200000000000003E-002   -0.57993590831756592     
   2.8499999999999998E-002   -0.80047786235809326     
   2.8800000000000006E-002    -1.0280917882919312     
   2.9100000000000001E-002    -1.2501289844512939     
   2.9400000000000003E-002    -1.4519124031066895     
   2.9700000000000004E-002    -1.6176528930664062     
   3.0000000000000006E-002    -1.7314119338989258     
   3.0300000000000001E-002    -1.7784916162490845     
   3.0600000000000002E-002    -1.7466711997985840     
   3.0900000000000004E-002    -1.6275091171264648     
   3.1199999999999999E-002    -1.4174262285232544     
   3.1500000000000007E-002    -1.1185103654861450     
   3.1800000000000002E-002   -0.73880285024642944     
   3.2099999999999997E-002   -0.29219785332679749     
   3.2400000000000005E-002    0.20218992233276367     
   3.2700000000000000E-002    0.72120624780654907     
   3.3000000000000002E-002     1.2390305995941162     
   3.3300000000000003E-002     1.7291676998138428     
   3.3599999999999998E-002     2.1661634445190430     
   3.3900000000000000E-002     2.5274279117584229     
   3.4200000000000001E-002     2.7949385643005371     
   3.4500000000000003E-002     2.9562258720397949     
   3.4799999999999998E-002     3.0052471160888672     
   3.5099999999999999E-002     2.9426925182342529     
   3.5400000000000001E-002     2.7753214836120605     
   3.5699999999999996E-002     2.5155844688415527     
   3.6000000000000004E-002     2.1800217628479004     
   3.6299999999999999E-002     1.7880840301513672     
   3.6600000000000008E-002     1.3607069253921509     
   3.6900000000000002E-002    0.91852641105651855     
   3.7199999999999997E-002    0.48107296228408813     
   3.7500000000000006E-002     6.5315276384353638E-002
   3.7800000000000000E-002   -0.31500306725502014     
   3.8100000000000009E-002   -0.64946043491363525     
   3.8400000000000004E-002   -0.93141019344329834     
   3.8699999999999998E-002    -1.1574975252151489     
   3.9000000000000007E-002    -1.3272842168807983     
   3.9300000000000002E-002    -1.4428124427795410     
   3.9600000000000003E-002    -1.5079004764556885     
   3.9900000000000005E-002    -1.5276519060134888     
   4.0200000000000000E-002    -1.5079876184463501     
   4.0500000000000001E-002    -1.4549748897552490     
   4.0800000000000003E-002    -1.3751772642135620     
   4.1100000000000005E-002    -1.2749279737472534     
   4.1399999999999999E-002    -1.1606738567352295     
   4.1700000000000008E-002    -1.0390503406524658     
   4.2000000000000003E-002   -0.91648477315902710     
   4.2299999999999997E-002   -0.79991859197616577     
   4.2600000000000006E-002   -0.69616448879241943     
   4.2900000000000001E-002   -0.61205726861953735     
   4.3200000000000002E-002   -0.55417090654373169     
   4.3500000000000004E-002   -0.52787435054779053     
   4.3799999999999999E-002   -0.53733980655670166     
   4.4100000000000000E-002   -0.58448129892349243     
   4.4400000000000002E-002   -0.66826182603836060     
   4.4700000000000004E-002   -0.78439569473266602     
   4.4999999999999998E-002   -0.92459613084793091     
   4.5300000000000000E-002    -1.0766032934188843     
   4.5600000000000002E-002    -1.2245321273803711     
   4.5899999999999996E-002    -1.3493622541427612     
   4.6200000000000005E-002    -1.4303082227706909     
   4.6500000000000000E-002    -1.4463551044464111     
   4.6799999999999994E-002    -1.3779046535491943     
   4.7100000000000003E-002    -1.2093340158462524     
   4.7399999999999998E-002   -0.93047600984573364     
   4.7700000000000006E-002   -0.53874319791793823     
   4.8000000000000001E-002    -4.0543012320995331E-002
   4.8300000000000010E-002    0.54869228601455688     
   4.8600000000000004E-002     1.2038942575454712     
   4.8899999999999999E-002     1.8920989036560059     
   4.9200000000000008E-002     2.5742969512939453     
   4.9500000000000002E-002     3.2077934741973877     
   4.9800000000000011E-002     3.7499990463256836     
   5.0100000000000006E-002     4.1611461639404297     
   5.0400000000000000E-002     4.4081358909606934     
   5.0700000000000009E-002     4.4674763679504395     
   5.1000000000000004E-002     4.3269548416137695     
   5.1299999999999998E-002     3.9874899387359619     
   5.1600000000000007E-002     3.4627025127410889     
   5.1900000000000002E-002     2.7781863212585449     
   5.2200000000000010E-002     1.9695802927017212     
   5.2500000000000005E-002     1.0796829462051392     
   5.2800000000000000E-002    0.15510556101799011     
   5.3099999999999994E-002   -0.75719267129898071     
   5.3400000000000003E-002    -1.6131684780120850     
   5.3699999999999998E-002    -2.3750746250152588     
   5.4000000000000006E-002    -3.0132248401641846     
   5.4300000000000001E-002    -3.5085093975067139     
   5.4599999999999996E-002    -3.8516247272491455     
   5.4900000000000004E-002    -4.0438466072082520     
   5.5199999999999999E-002    -4.0955009460449219     
   5.5499999999999994E-002    -4.0234012603759766     
   5.5800000000000002E-002    -3.8501470088958740     
   5.6099999999999997E-002    -3.5995280742645264     
   5.6400000000000006E-002    -3.2960767745971680     
   5.6700000000000000E-002    -2.9613254070281982     
   5.6999999999999995E-002    -2.6120891571044922     
   5.7300000000000004E-002    -2.2605242729187012     
   5.7599999999999998E-002    -1.9113050699234009     
   5.7900000000000007E-002    -1.5644161701202393     
   5.8200000000000002E-002    -1.2138139009475708     
   5.8499999999999996E-002   -0.84998071193695068     
   5.8800000000000005E-002   -0.46217909455299377     
   5.9100000000000000E-002    -3.9459235966205597E-002
   5.9400000000000008E-002    0.42566126585006714     
   5.9700000000000003E-002    0.93636292219161987     
   6.0000000000000012E-002     1.4889116287231445     
   6.0300000000000006E-002     2.0724387168884277     
   6.0600000000000001E-002     2.6683037281036377     
   6.0900000000000010E-002     3.2508144378662109     
   6.1200000000000004E-002     3.7888886928558350     
   6.1500000000000013E-002     4.2477922439575195     
   6.1800000000000008E-002     4.5929765701293945     
   6.2100000000000002E-002     4.7920231819152832     
   6.2399999999999997E-002     4.8187642097473145     
   6.2700000000000006E-002     4.6556706428527832     
   6.3000000000000000E-002     4.2956781387329102     
   6.3300000000000009E-002     3.7445657253265381     
   6.3600000000000004E-002     3.0199100971221924     
   6.3899999999999998E-002     2.1517679691314697     
   6.4199999999999993E-002     1.1796991825103760     
   6.4500000000000002E-002    0.15078669786453247     
   6.4800000000000010E-002   -0.88328909873962402     
   6.5100000000000005E-002    -1.8711403608322144     
   6.5400000000000000E-002    -2.7631475925445557     
   6.5700000000000008E-002    -3.5168247222900391     
   6.5999999999999989E-002    -4.0974602699279785     
   6.6299999999999998E-002    -4.4808168411254883     
   6.6600000000000006E-002    -4.6543192863464355     
   6.6900000000000001E-002    -4.6154613494873047     
   6.7199999999999996E-002    -4.3737163543701172     
   6.7500000000000004E-002    -3.9464459419250488     
   6.7800000000000013E-002    -3.3593790531158447     
   6.8099999999999994E-002    -2.6435630321502686     
   6.8400000000000002E-002    -1.8338069915771484     
   6.8700000000000011E-002   -0.96792000532150269     
   6.8999999999999992E-002    -8.3582006394863129E-002
   6.9300000000000000E-002    0.78059917688369751     
   6.9600000000000009E-002     1.5887196063995361     
   6.9900000000000004E-002     2.3062577247619629     
   7.0199999999999999E-002     2.9023959636688232     
   7.0500000000000007E-002     3.3511037826538086     
   7.0800000000000016E-002     3.6311888694763184     
   7.1099999999999997E-002     3.7300484180450439     
   7.1400000000000005E-002     3.6417162418365479     
   7.1700000000000000E-002     3.3711488246917725     
   7.1999999999999995E-002     2.9331362247467041     
   7.2300000000000003E-002     2.3520236015319824     
   7.2600000000000012E-002     1.6634447574615479     
   7.2900000000000006E-002    0.90921539068222046     
   7.3200000000000001E-002    0.13865977525711060     
   7.3499999999999996E-002   -0.59741538763046265     
   7.3800000000000004E-002    -1.2495253086090088     
   7.4099999999999999E-002    -1.7721343040466309     
   7.4400000000000008E-002    -2.1306924819946289     
   7.4700000000000003E-002    -2.3014533519744873     
   7.5000000000000011E-002    -2.2766056060791016     
   7.5299999999999992E-002    -2.0643577575683594     
   7.5600000000000001E-002    -1.6881772279739380     
   7.5900000000000009E-002    -1.1870214939117432     
   7.6200000000000004E-002   -0.61001992225646973     
   7.6499999999999999E-002    -1.4447243884205818E-002
   7.6800000000000007E-002    0.54091584682464600     
   7.7099999999999988E-002    0.99982696771621704     
   7.7399999999999997E-002     1.3141925334930420     
   7.7700000000000005E-002     1.4486558437347412     
   7.8000000000000014E-002     1.3831801414489746     
   7.8299999999999995E-002     1.1165261268615723     
   7.8600000000000003E-002    0.66484171152114868     
   7.8900000000000012E-002     6.2685653567314148E-002
   7.9199999999999993E-002   -0.64141446352005005     
   7.9500000000000001E-002    -1.3881555795669556     
   7.9800000000000010E-002    -2.1115953922271729     
   8.0100000000000018E-002    -2.7468736171722412     
   8.0399999999999999E-002    -3.2329151630401611     
   8.0700000000000008E-002    -3.5204362869262695     
   8.1000000000000003E-002    -3.5748031139373779     
   8.1299999999999997E-002    -3.3794136047363281     
   8.1600000000000006E-002    -2.9391512870788574     
   8.1900000000000014E-002    -2.2780570983886719     
   8.2199999999999995E-002    -1.4405546188354492     
   8.2500000000000004E-002   -0.48577180504798889     
   8.2799999999999999E-002    0.51613348722457886     
   8.3100000000000007E-002     1.4890643358230591     
   8.3400000000000002E-002     2.3588378429412842     
   8.3700000000000011E-002     3.0579226016998291     
   8.4000000000000005E-002     3.5327384471893311     
   8.4300000000000000E-002     3.7469279766082764     
   8.4599999999999995E-002     3.6856830120086670     
   8.4900000000000003E-002     3.3559615612030029     
   8.5199999999999998E-002     2.7865161895751953     
   8.5500000000000007E-002     2.0248506069183350     
   8.5800000000000001E-002     1.1320987939834595     
   8.6100000000000010E-002    0.17894488573074341     
   8.6399999999999991E-002   -0.76294928789138794     
   8.6699999999999999E-002    -1.6244387626647949     
   8.7000000000000008E-002    -2.3469703197479248     
   8.7300000000000003E-002    -2.8861939907073975     
   8.7599999999999997E-002    -3.2140672206878662     
   8.7900000000000006E-002    -3.3230986595153809     
   8.8200000000000014E-002    -3.2215626239776611     
   8.8499999999999995E-002    -2.9349412918090820     
   8.8800000000000004E-002    -2.5001103878021240     
   8.9100000000000013E-002    -1.9613076448440552     
   8.9399999999999993E-002    -1.3676106929779053     
   8.9700000000000002E-002   -0.76446765661239624     
   9.0000000000000011E-002   -0.19381347298622131     
   9.0299999999999991E-002    0.31209772825241089     
   9.0600000000000000E-002    0.73098325729370117     
   9.0900000000000009E-002     1.0500714778900146     
   9.1200000000000017E-002     1.2684370279312134     
   9.1499999999999998E-002     1.3921247720718384     
   9.1800000000000007E-002     1.4351801872253418     
   9.2100000000000001E-002     1.4152208566665649     
   9.2399999999999996E-002     1.3511030673980713     
   9.2700000000000005E-002     1.2626707553863525     
   9.3000000000000013E-002     1.1669014692306519     
   9.3300000000000008E-002     1.0790033340454102     
   9.3600000000000003E-002     1.0105699300765991     
   9.3899999999999997E-002    0.97069734334945679     
   9.4200000000000006E-002    0.96692144870758057     
   9.4500000000000001E-002     1.0048229694366455     
   9.4800000000000009E-002     1.0898752212524414     
   9.5100000000000004E-002     1.2271881103515625     
   9.5399999999999999E-002     1.4217147827148438     
   9.5699999999999993E-002     1.6773891448974609     
   9.6000000000000002E-002     1.9970891475677490     
   9.6300000000000011E-002     2.3803393840789795     
   9.6600000000000005E-002     2.8222982883453369     
   9.6900000000000000E-002     3.3125400543212891     
   9.7200000000000009E-002     3.8333721160888672     
   9.7499999999999989E-002     4.3609075546264648     
   9.7799999999999998E-002     4.8635163307189941     
   9.8100000000000007E-002     5.3050355911254883     
   9.8400000000000015E-002     5.6458349227905273     
   9.8699999999999996E-002     5.8449611663818359     
   9.9000000000000005E-002     5.8652682304382324     
   9.9300000000000013E-002     5.6745839118957520     
   9.9599999999999994E-002     5.2499289512634277     
   9.9900000000000003E-002     4.5795240402221680     
  0.10020000000000001          3.6635046005249023     
  0.10049999999999999          2.5172419548034668     
  0.10080000000000000          1.1666289567947388     
  0.10110000000000001        -0.34974038600921631     
  0.10140000000000000         -1.9844911098480225     
  0.10170000000000000         -3.6848850250244141     
  0.10200000000000001         -5.3925476074218750     
  0.10230000000000002         -7.0518727302551270     
  0.10260000000000000         -8.6074256896972656     
  0.10290000000000001         -10.008969306945801     
  0.10320000000000000         -11.213138580322266     
  0.10350000000000001         -12.182157516479492     
  0.10380000000000000         -12.888343811035156     
  0.10410000000000001         -13.309864044189453     
  0.10440000000000001         -13.433295249938965     
  0.10470000000000000         -13.252586364746094     
  0.10500000000000000         -12.766995429992676     
  0.10530000000000000         -11.982707977294922     
  0.10560000000000000         -10.911179542541504     
  0.10590000000000001         -9.5689687728881836     
  0.10620000000000000         -7.9787106513977051     
  0.10650000000000001         -6.1681852340698242     
  0.10679999999999999         -4.1705732345581055     
  0.10710000000000000         -2.0274834632873535     
  0.10740000000000001         0.21466639637947083     
  0.10770000000000000          2.5018734931945801     
  0.10800000000000000          4.7735309600830078     
  0.10830000000000001          6.9645781517028809     
  0.10859999999999999          9.0043010711669922     
  0.10890000000000000          10.822836875915527     
  0.10920000000000001          12.350372314453125     
  0.10950000000000001          13.522865295410156     
  0.10979999999999999          14.286385536193848     
  0.11009999999999999          14.598357200622559     
  0.11040000000000001          14.435166358947754     
  0.11070000000000001          13.792064666748047     
  0.11100000000000000          12.687518119812012     
  0.11130000000000000          11.161715507507324     
  0.11160000000000002          9.2769088745117188     
  0.11190000000000001          7.1164059638977051     
  0.11220000000000001          4.7775869369506836     
  0.11250000000000000          2.3699324131011963     
  0.11280000000000000          6.8056806921958923E-003
  0.11309999999999999         -2.1994981765747070     
  0.11340000000000001         -4.1445026397705078     
  0.11369999999999998         -5.7385287284851074     
  0.11400000000000000         -6.9108543395996094     
  0.11430000000000000         -7.6150898933410645     
  0.11460000000000002         -7.8297114372253418     
  0.11489999999999999         -7.5611429214477539     
  0.11520000000000001         -6.8421816825866699     
  0.11550000000000001         -5.7303581237792969     
  0.11580000000000000         -4.3046174049377441     
  0.11609999999999999         -2.6592345237731934     
  0.11640000000000002        -0.90161621570587158     
  0.11670000000000001         0.85766786336898804     
  0.11700000000000001          2.5081517696380615     
  0.11730000000000000          3.9475350379943848     
  0.11760000000000000          5.0884051322937012     
  0.11789999999999999          5.8602290153503418     
  0.11820000000000001          6.2174892425537109     
  0.11850000000000001          6.1387748718261719     
  0.11880000000000000          5.6318516731262207     
  0.11910000000000000          4.7308859825134277     
  0.11940000000000002          3.4941720962524414     
  0.11970000000000001          2.0034463405609131     
  0.12000000000000001         0.35427725315093994     
  0.12030000000000000         -1.3458533287048340     
  0.12060000000000000         -2.9881560802459717     
  0.12089999999999999         -4.4671349525451660     
  0.12119999999999999         -5.6885981559753418     
  0.12150000000000001         -6.5777282714843750     
  0.12180000000000001         -7.0807652473449707     
  0.12210000000000000         -7.1729965209960938     
  0.12239999999999999         -6.8569822311401367     
  0.12270000000000002         -6.1644225120544434     
  0.12300000000000001         -5.1535916328430176     
  0.12330000000000001         -3.9034380912780762     
  0.12360000000000000         -2.5105595588684082     
  0.12390000000000000         -1.0791109800338745     
  0.12419999999999999         0.28482744097709656     
  0.12450000000000001          1.4828867912292480     
  0.12480000000000001          2.4309976100921631     
  0.12509999999999999          3.0666277408599854     
  0.12540000000000001          3.3531033992767334     
  0.12570000000000003          3.2819271087646484     
  0.12600000000000000          2.8750619888305664     
  0.12630000000000002          2.1802103519439697     
  0.12659999999999999          1.2692453861236572     
  0.12690000000000001         0.22974097728729248     
  0.12719999999999998        -0.84162390232086182     
  0.12750000000000000         -1.8461352586746216     
  0.12780000000000002         -2.6953406333923340     
  0.12809999999999999         -3.3140788078308105     
  0.12840000000000001         -3.6509363651275635     
  0.12869999999999998         -3.6802222728729248     
  0.12900000000000000         -3.4035906791687012     
  0.12930000000000003         -2.8529987335205078     
  0.12959999999999999         -2.0822954177856445     
  0.12990000000000002         -1.1661382913589478     
  0.13019999999999998        -0.18994955718517303     
  0.13050000000000000         0.75778043270111084     
  0.13080000000000003          1.5917389392852783     
  0.13109999999999999          2.2429184913635254     
  0.13140000000000002          2.6599175930023193     
  0.13169999999999998          2.8170673847198486     
  0.13200000000000001          2.7146227359771729     
  0.13229999999999997          2.3786108493804932     
  0.13260000000000000          1.8590871095657349     
  0.13290000000000002          1.2211130857467651     
  0.13319999999999999         0.54012894630432129     
  0.13350000000000001        -0.10738027840852737     
  0.13380000000000003        -0.65104973316192627     
  0.13410000000000000         -1.0358667373657227     
  0.13440000000000002         -1.2254962921142578     
  0.13469999999999999         -1.2070984840393066     
  0.13500000000000001        -0.99183380603790283     
  0.13529999999999998        -0.60988950729370117     
  0.13560000000000000        -0.11164770275354385     
  0.13590000000000002         0.44570320844650269     
  0.13619999999999999         0.99942654371261597     
  0.13650000000000001          1.4915996789932251     
  0.13680000000000003          1.8767106533050537     
  0.13710000000000000          2.1209337711334229     
  0.13740000000000002          2.2137930393218994     
  0.13769999999999999          2.1596946716308594     
  0.13800000000000001          1.9811148643493652     
  0.13829999999999998          1.7143094539642334     
  0.13860000000000000          1.3989778757095337     
  0.13890000000000002          1.0812226533889771     
  0.13919999999999999         0.79904210567474365     
  0.13950000000000001         0.58308482170104980     
  0.13979999999999998         0.45225173234939575     
  0.14010000000000000         0.41011461615562439     
  0.14040000000000002         0.45068699121475220     
  0.14069999999999999         0.55512046813964844     
  0.14100000000000001         0.69818109273910522     
  0.14130000000000004         0.85219228267669678     
  0.14160000000000000         0.99006831645965576     
  0.14189999999999997          1.0894297361373901     
  0.14219999999999999          1.1351319551467896     
  0.14250000000000002          1.1201026439666748     
  0.14279999999999998          1.0456806421279907     
  0.14310000000000000         0.92095291614532471     
  0.14339999999999997         0.75870871543884277     
  0.14369999999999999         0.57720953226089478     
  0.14400000000000002         0.39188638329505920     
  0.14429999999999998         0.21696995198726654     
  0.14460000000000001          6.4756013453006744E-002
  0.14490000000000003         -6.1061367392539978E-002
  0.14520000000000000        -0.15703549981117249     
  0.14550000000000002        -0.22765119373798370     
  0.14579999999999999        -0.28016418218612671     
  0.14610000000000001        -0.32140666246414185     
  0.14640000000000003        -0.36323907971382141     
  0.14670000000000000        -0.41041755676269531     
  0.14699999999999996        -0.47108933329582214     
  0.14729999999999999        -0.54960125684738159     
  0.14760000000000001        -0.64469307661056519     
  0.14789999999999998        -0.75765806436538696     
  0.14820000000000000        -0.88293755054473877     