  -1.4999999999999999E-002     0.0000000000000000     
  -1.4700000000000000E-002     0.0000000000000000     
  -1.4400000000000000E-002     0.0000000000000000     
  -1.4100000000000000E-002     0.0000000000000000     
  -1.3800000000000000E-002     0.0000000000000000     
  -1.3500000000000000E-002     0.0000000000000000     
  -1.3200000000000000E-002     0.0000000000000000     
  -1.2899999999999998E-002     0.0000000000000000     
  -1.2600000000000000E-002     0.0000000000000000     
  -1.2299999999999998E-002     0.0000000000000000     
  -1.2000000000000000E-002     0.0000000000000000     
  -1.1699999999999999E-002     0.0000000000000000     
  -1.1399999999999999E-002     0.0000000000000000     
  -1.1099999999999999E-002     0.0000000000000000     
  -1.0799999999999999E-002     0.0000000000000000     
  -1.0499999999999999E-002     0.0000000000000000     
  -1.0199999999999999E-002     0.0000000000000000     
  -9.8999999999999991E-003     0.0000000000000000     
  -9.5999999999999992E-003     0.0000000000000000     
  -9.2999999999999992E-003     0.0000000000000000     
  -8.9999999999999993E-003     0.0000000000000000     
  -8.6999999999999994E-003     0.0000000000000000     
  -8.3999999999999995E-003     0.0000000000000000     
  -8.0999999999999996E-003     0.0000000000000000     
  -7.7999999999999988E-003     0.0000000000000000     
  -7.4999999999999997E-003     0.0000000000000000     
  -7.1999999999999998E-003     0.0000000000000000     
  -6.8999999999999981E-003     0.0000000000000000     
  -6.5999999999999982E-003     0.0000000000000000     
  -6.3000000000000000E-003     0.0000000000000000     
  -6.0000000000000001E-003     0.0000000000000000     
  -5.6999999999999985E-003     0.0000000000000000     
  -5.3999999999999986E-003     0.0000000000000000     
  -5.1000000000000004E-003     0.0000000000000000     
  -4.7999999999999987E-003     0.0000000000000000     
  -4.5000000000000005E-003     0.0000000000000000     
  -4.1999999999999989E-003     0.0000000000000000     
  -3.8999999999999990E-003     0.0000000000000000     
  -3.5999999999999990E-003     0.0000000000000000     
  -3.2999999999999991E-003     0.0000000000000000     
  -2.9999999999999992E-003     0.0000000000000000     
  -2.6999999999999993E-003     0.0000000000000000     
  -2.3999999999999994E-003     0.0000000000000000     
  -2.0999999999999977E-003     0.0000000000000000     
  -1.7999999999999995E-003     0.0000000000000000     
  -1.4999999999999979E-003     0.0000000000000000     
  -1.1999999999999997E-003     0.0000000000000000     
  -8.9999999999999976E-004     0.0000000000000000     
  -5.9999999999999810E-004     0.0000000000000000     
  -2.9999999999999992E-004     0.0000000000000000     
   0.0000000000000000          0.0000000000000000     
   3.0000000000000165E-004     0.0000000000000000     
   5.9999999999999984E-004     0.0000000000000000     
   9.0000000000000149E-004     0.0000000000000000     
   1.2000000000000031E-003     0.0000000000000000     
   1.5000000000000013E-003     0.0000000000000000     
   1.8000000000000030E-003     0.0000000000000000     
   2.1000000000000012E-003     0.0000000000000000     
   2.3999999999999994E-003     0.0000000000000000     
   2.7000000000000010E-003     0.0000000000000000     
   2.9999999999999992E-003     0.0000000000000000     
   3.3000000000000008E-003     0.0000000000000000     
   3.6000000000000025E-003     0.0000000000000000     
   3.9000000000000007E-003     0.0000000000000000     
   4.2000000000000023E-003     0.0000000000000000     
   4.5000000000000005E-003     0.0000000000000000     
   4.7999999999999987E-003     0.0000000000000000     
   5.1000000000000004E-003     0.0000000000000000     
   5.4000000000000020E-003     1.8438963422042676E-037
   5.7000000000000037E-003    -4.5644623573703230E-036
   5.9999999999999984E-003     2.1845210806323138E-035
   6.3000000000000000E-003     6.2206242690553875E-034
   6.6000000000000017E-003    -8.8532797842562142E-033
   6.9000000000000034E-003     2.3384770336480103E-032
   7.2000000000000015E-003     2.9634480596941856E-031
   7.5000000000000032E-003    -3.5587258280748891E-030
   7.8000000000000014E-003     1.3619470893937846E-029
   8.0999999999999996E-003     4.1084719982708423E-029
   8.4000000000000012E-003    -7.0475458158464902E-028
   8.7000000000000029E-003     3.0758980919489879E-027
   9.0000000000000011E-003    -4.3567193125362529E-028
   9.2999999999999992E-003    -6.2978149537519672E-026
   9.6000000000000009E-003     3.4307114568612288E-025
   9.8999999999999991E-003    -7.3153739077080203E-025
   1.0200000000000001E-002    -1.3546738546811113E-024
   1.0500000000000002E-002     1.6125957733400341E-023
   1.0800000000000004E-002    -6.0254994543644786E-023
   1.1099999999999999E-002     1.0696149867762319E-022
   1.1400000000000000E-002     8.5016593673837818E-023
   1.1700000000000002E-002    -1.1775493592092716E-021
   1.2000000000000004E-002     3.6371014403889420E-021
   1.2300000000000002E-002    -4.0156427954860056E-021
   1.2600000000000000E-002    -1.2934342126330396E-020
   1.2900000000000002E-002     6.9464120450971463E-020
   1.3200000000000000E-002    -8.8216466496261989E-020
   1.3500000000000002E-002    -6.1248479889033537E-019
   1.3800000000000003E-002     5.0293627626698962E-018
   1.4100000000000001E-002    -2.3490888803295394E-017
   1.4400000000000000E-002     8.8065492747882473E-017
   1.4700000000000001E-002    -2.9806740012788087E-016
   1.4999999999999999E-002     9.8716470161951250E-016
   1.5300000000000001E-002    -3.4023727422011511E-015
   1.5600000000000003E-002     1.2472505938210948E-014
   1.5899999999999997E-002    -4.7177214392013500E-014
   1.6199999999999999E-002     1.7313844043360949E-013
   1.6500000000000001E-002    -5.7429863815905424E-013
   1.6800000000000002E-002     1.5723183388952067E-012
   1.7100000000000004E-002    -2.8919935023130616E-012
   1.7400000000000006E-002    -2.2314225120445563E-013
   1.7700000000000000E-002     2.7018814269252900E-011
   1.8000000000000002E-002    -1.1453925308213542E-010
   1.8300000000000004E-002     2.3839574758710569E-010
   1.8600000000000005E-002    -2.7927715695597044E-011
   1.8900000000000000E-002    -1.4025056671584935E-009
   1.9200000000000002E-002     3.7495606619586397E-009
   1.9500000000000003E-002    -7.3322203864023550E-010
   1.9799999999999998E-002    -1.6490171006466880E-008
   2.0100000000000000E-002     2.4959515343425664E-008
   2.0400000000000001E-002     4.2443240033662732E-008
   2.0700000000000003E-002    -1.2059707898970373E-007
   2.0999999999999998E-002    -1.3862258185781684E-007
   2.1299999999999999E-002     3.5991777735944197E-007
   2.1600000000000001E-002     5.2644696779680089E-007
   2.1900000000000003E-002    -7.8365599165408639E-007
   2.2200000000000004E-002    -1.8021499954556930E-006
   2.2500000000000006E-002     1.5211265917969286E-006
   2.2800000000000001E-002     9.3100579761085100E-006
   2.3100000000000002E-002     1.6304342352668755E-005
   2.3400000000000004E-002     2.0497038349276409E-005
   2.3699999999999999E-002     2.9261576855788007E-005
   2.4000000000000000E-002     5.1823702960973606E-005
   2.4300000000000002E-002     8.8771361333783716E-005
   2.4599999999999997E-002     1.3674623914994299E-004
   2.4900000000000005E-002     2.0309323736000806E-004
   2.5200000000000000E-002     3.0747774871997535E-004
   2.5499999999999995E-002     4.6856843982823193E-004
   2.5800000000000003E-002     6.9923448609188199E-004
   2.6099999999999998E-002     1.0201880941167474E-003
   2.6400000000000007E-002     1.4714258722960949E-003
   2.6700000000000002E-002     2.1036362741142511E-003
   2.6999999999999996E-002     2.9661359731107950E-003
   2.7300000000000005E-002     4.1147093288600445E-003
   2.7600000000000000E-002     5.6256852112710476E-003
   2.7900000000000008E-002     7.5901146046817303E-003
   2.8200000000000003E-002     1.0095422156155109E-002
   2.8499999999999998E-002     1.3221458531916142E-002
   2.8800000000000006E-002     1.7047420144081116E-002
   2.9100000000000001E-002     2.1645180881023407E-002
   2.9400000000000003E-002     2.7050988748669624E-002
   2.9700000000000004E-002     3.3244632184505463E-002
   3.0000000000000006E-002     4.0147542953491211E-002
   3.0300000000000001E-002     4.7612782567739487E-002
   3.0600000000000002E-002     5.5401507765054703E-002
   3.0900000000000004E-002     6.3162349164485931E-002
   3.1199999999999999E-002     7.0435613393783569E-002
   3.1500000000000007E-002     7.6670236885547638E-002
   3.1800000000000002E-002     8.1233121454715729E-002
   3.2099999999999997E-002     8.3424784243106842E-002
   3.2400000000000005E-002     8.2532130181789398E-002
   3.2700000000000000E-002     7.7899202704429626E-002
   3.3000000000000002E-002     6.8973764777183533E-002
   3.3300000000000003E-002     5.5373642593622208E-002
   3.3599999999999998E-002     3.6951348185539246E-002
   3.3900000000000000E-002     1.3864518143236637E-002
   3.4200000000000001E-002    -1.3362084515392780E-002
   3.4500000000000003E-002    -4.3857485055923462E-002
   3.4799999999999998E-002    -7.6426006853580475E-002
   3.5099999999999999E-002   -0.10955940186977386     
   3.5400000000000001E-002   -0.14151652157306671     
   3.5699999999999996E-002   -0.17046226561069489     
   3.6000000000000004E-002   -0.19461812078952789     
   3.6299999999999999E-002   -0.21238054335117340     
   3.6600000000000008E-002   -0.22245490550994873     
   3.6900000000000002E-002   -0.22403265535831451     
   3.7199999999999997E-002   -0.21688519418239594     
   3.7500000000000006E-002   -0.20138598978519440     
   3.7800000000000000E-002   -0.17854051291942596     
   3.8100000000000009E-002   -0.14995665848255157     
   3.8400000000000004E-002   -0.11771994829177856     
   3.8699999999999998E-002    -8.4265276789665222E-002
   3.9000000000000007E-002    -5.2179433405399323E-002
   3.9300000000000002E-002    -2.4010563269257545E-002
   3.9600000000000003E-002    -2.1112319082021713E-003
   3.9900000000000005E-002     1.1630035005509853E-002
   4.0200000000000000E-002     1.5864759683609009E-002
   4.0500000000000001E-002     9.9135516211390495E-003
   4.0800000000000003E-002    -6.1213811859488487E-003
   4.1100000000000005E-002    -3.1414970755577087E-002
   4.1399999999999999E-002    -6.4463391900062561E-002
   4.1700000000000008E-002   -0.10308949649333954     
   4.2000000000000003E-002   -0.14467054605484009     
   4.2299999999999997E-002   -0.18621058762073517     
   4.2600000000000006E-002   -0.22460325062274933     
   4.2900000000000001E-002   -0.25682875514030457     
   4.3200000000000002E-002   -0.28003433346748352     
   4.3500000000000004E-002   -0.29180872440338135     
   4.3799999999999999E-002   -0.29033964872360229     
   4.4100000000000000E-002   -0.27446022629737854     
   4.4400000000000002E-002   -0.24382527172565460     
   4.4700000000000004E-002   -0.19888471066951752     
   4.4999999999999998E-002   -0.14077834784984589     
   4.5300000000000000E-002    -7.1458779275417328E-002
   4.5600000000000002E-002     6.5472587011754513E-003
   4.5899999999999996E-002     9.0400137007236481E-002
   4.6200000000000005E-002    0.17691622674465179     
   4.6500000000000000E-002    0.26296207308769226     
   4.6799999999999994E-002    0.34552901983261108     
   4.7100000000000003E-002    0.42197388410568237     
   4.7399999999999998E-002    0.49013578891754150     
   4.7700000000000006E-002    0.54839509725570679     
   4.8000000000000001E-002    0.59578746557235718     
   4.8300000000000010E-002    0.63185763359069824     
   4.8600000000000004E-002    0.65664941072463989     
   4.8899999999999999E-002    0.67065691947937012     
   4.9200000000000008E-002    0.67456156015396118     
   4.9500000000000002E-002    0.66914212703704834     
   4.9800000000000011E-002    0.65517097711563110     
   5.0100000000000006E-002    0.63327014446258545     
   5.0400000000000000E-002    0.60383516550064087     
   5.0700000000000009E-002    0.56700527667999268     
   5.1000000000000004E-002    0.52274644374847412     
   5.1299999999999998E-002    0.47087696194648743     
   5.1600000000000007E-002    0.41118669509887695     
   5.1900000000000002E-002    0.34362089633941650     
   5.2200000000000010E-002    0.26842287182807922     
   5.2500000000000005E-002    0.18624454736709595     
   5.2800000000000000E-002     9.8245337605476379E-002
   5.3099999999999994E-002     6.2031974084675312E-003
   5.3400000000000003E-002    -8.7469257414340973E-002
   5.3699999999999998E-002   -0.17986330389976501     
   5.4000000000000006E-002   -0.26778605580329895     
   5.4300000000000001E-002   -0.34777209162712097     
   5.4599999999999996E-002   -0.41640919446945190     
   5.4900000000000004E-002   -0.47077286243438721     
   5.5199999999999999E-002   -0.50848960876464844     
   5.5499999999999994E-002   -0.52805244922637939     
   5.5800000000000002E-002   -0.52897381782531738     
   5.6099999999999997E-002   -0.51182335615158081     
   5.6400000000000006E-002   -0.47836634516716003     
   5.6700000000000000E-002   -0.43127396702766418     
   5.6999999999999995E-002   -0.37391972541809082     
   5.7300000000000004E-002   -0.31025877594947815     
   5.7599999999999998E-002   -0.24431490898132324     
   5.7900000000000007E-002   -0.18001295626163483     
   5.8200000000000002E-002   -0.12087635695934296     
   5.8499999999999996E-002    -6.9666013121604919E-002
   5.8800000000000005E-002    -2.8420237824320793E-002
   5.9100000000000000E-002     1.7899263184517622E-003
   5.9400000000000008E-002     2.0854525268077850E-002
   5.9700000000000003E-002     2.9203999787569046E-002
   6.0000000000000012E-002     2.8034420683979988E-002
   6.0300000000000006E-002     1.9082434475421906E-002
   6.0600000000000001E-002     4.1543263942003250E-003
   6.0900000000000010E-002    -1.4718449674546719E-002
   6.1200000000000004E-002    -3.5560548305511475E-002
   6.1500000000000013E-002    -5.6641772389411926E-002
   6.1800000000000008E-002    -7.6320163905620575E-002
   6.2100000000000002E-002    -9.3238905072212219E-002
   6.2399999999999997E-002   -0.10629155486822128     
   6.2700000000000006E-002   -0.11446594446897507     
   6.3000000000000000E-002   -0.11730799823999405     
   6.3300000000000009E-002   -0.11442083865404129     
   6.3600000000000004E-002   -0.10568242520093918     
   6.3899999999999998E-002    -9.1671936213970184E-002
   6.4199999999999993E-002    -7.3051832616329193E-002
   6.4500000000000002E-002    -5.1179092377424240E-002
   6.4800000000000010E-002    -2.8106778860092163E-002
   6.5100000000000005E-002    -6.1509739607572556E-003
   6.5400000000000000E-002     1.1679414659738541E-002
   6.5700000000000008E-002     2.2112425416707993E-002
   6.5999999999999989E-002     2.1846689283847809E-002
   6.6299999999999998E-002     7.4317529797554016E-003
   6.6600000000000006E-002    -2.3824093863368034E-002
   6.6900000000000001E-002    -7.3944412171840668E-002
   6.7199999999999996E-002   -0.14398480951786041     
   6.7500000000000004E-002   -0.23334681987762451     
   6.7800000000000013E-002   -0.33993121981620789     
   6.8099999999999994E-002   -0.46002542972564697     
   6.8400000000000002E-002   -0.58797770738601685     
   6.8700000000000011E-002   -0.71685922145843506     
   6.8999999999999992E-002   -0.83853697776794434     
   6.9300000000000000E-002   -0.94393616914749146     
   6.9600000000000009E-002    -1.0241519212722778     
   6.9900000000000004E-002    -1.0705884695053101     
   7.0199999999999999E-002    -1.0757104158401489     
   7.0500000000000007E-002    -1.0340950489044189     
   7.0800000000000016E-002   -0.94222223758697510     
   7.1099999999999997E-002   -0.79941397905349731     
   7.1400000000000005E-002   -0.60815894603729248     
   7.1700000000000000E-002   -0.37341836094856262     
   7.1999999999999995E-002   -0.10341637581586838     
   7.2300000000000003E-002    0.19126754999160767     
   7.2600000000000012E-002    0.49831569194793701     
   7.2900000000000006E-002    0.80365872383117676     
   7.3200000000000001E-002     1.0929367542266846     
   7.3499999999999996E-002     1.3519331216812134     
   7.3800000000000004E-002     1.5670047998428345     
   7.4099999999999999E-002     1.7267191410064697     
   7.4400000000000008E-002     1.8218969106674194     
   7.4700000000000003E-002     1.8461475372314453     
   7.5000000000000011E-002     1.7968348264694214     
   7.5299999999999992E-002     1.6748487949371338     
   7.5600000000000001E-002     1.4850091934204102     
   7.5900000000000009E-002     1.2359260320663452     
   7.6200000000000004E-002    0.93926346302032471     
   7.6499999999999999E-002    0.60961568355560303     
   7.6800000000000007E-002    0.26355165243148804     
   7.7099999999999988E-002    -8.1790946424007416E-002
   7.7399999999999997E-002   -0.40901106595993042     
   7.7700000000000005E-002   -0.70208132266998291     
   7.8000000000000014E-002   -0.94752866029739380     
   7.8299999999999995E-002    -1.1346449851989746     
   7.8600000000000003E-002    -1.2567788362503052     
   7.8900000000000012E-002    -1.3113459348678589     
   7.9199999999999993E-002    -1.2996532917022705     
   7.9500000000000001E-002    -1.2270443439483643     
   7.9800000000000010E-002    -1.1017153263092041     
   8.0100000000000018E-002   -0.93414294719696045     
   8.0399999999999999E-002   -0.73623353242874146     
   8.0700000000000008E-002   -0.51956385374069214     
   8.1000000000000003E-002   -0.29532417654991150     
   8.1299999999999997E-002    -7.3145456612110138E-002
   8.1600000000000006E-002    0.13970887660980225     
   8.1900000000000014E-002    0.33781218528747559     
   8.2199999999999995E-002    0.51807785034179688     
   8.2500000000000004E-002    0.67963945865631104     
   8.2799999999999999E-002    0.82259362936019897     
   8.3100000000000007E-002    0.94779264926910400     
   8.3400000000000002E-002     1.0563369989395142     
   8.3700000000000011E-002     1.1487410068511963     
   8.4000000000000005E-002     1.2246464490890503     
   8.4300000000000000E-002     1.2821691036224365     
   8.4599999999999995E-002     1.3181060552597046     
   8.4900000000000003E-002     1.3282221555709839     
   8.5199999999999998E-002     1.3071115016937256     
   8.5500000000000007E-002     1.2490689754486084     
   8.5800000000000001E-002     1.1488511562347412     
   8.6100000000000010E-002     1.0015102624893188     
   8.6399999999999991E-002    0.80409240722656250     
   8.6699999999999999E-002    0.55602425336837769     
   8.7000000000000008E-002    0.25917798280715942     
   8.7300000000000003E-002    -8.1296861171722412E-002
   8.7599999999999997E-002   -0.45715102553367615     
   8.7900000000000006E-002   -0.85663145780563354     
   8.8200000000000014E-002    -1.2648955583572388     
   8.8499999999999995E-002    -1.6651612520217896     
   8.8800000000000004E-002    -2.0385482311248779     
   8.9100000000000013E-002    -2.3653640747070312     
   8.9399999999999993E-002    -2.6264026165008545     
   8.9700000000000002E-002    -2.8037641048431396     
   9.0000000000000011E-002    -2.8822515010833740     
   9.0299999999999991E-002    -2.8499445915222168     
   9.0600000000000000E-002    -2.6996045112609863     
   9.0900000000000009E-002    -2.4295296669006348     
   9.1200000000000017E-002    -2.0435743331909180     
   9.1499999999999998E-002    -1.5512292385101318     
   9.1800000000000007E-002   -0.96789664030075073     
   9.2100000000000001E-002   -0.31457772850990295     
   9.2399999999999996E-002    0.38341015577316284     
   9.2700000000000005E-002     1.0975328683853149     
   9.3000000000000013E-002     1.7972431182861328     
   9.3300000000000008E-002     2.4510359764099121     
   9.3600000000000003E-002     3.0281567573547363     
   9.3899999999999997E-002     3.5010166168212891     
   9.4200000000000006E-002     3.8457927703857422     
   9.4500000000000001E-002     4.0438127517700195     
   9.4800000000000009E-002     4.0831036567687988     
   9.5100000000000004E-002     3.9584236145019531     
   9.5399999999999999E-002     3.6723728179931641     
   9.5699999999999993E-002     3.2350394725799561     
   9.6000000000000002E-002     2.6629276275634766     
   9.6300000000000011E-002     1.9787912368774414     
   9.6600000000000005E-002     1.2106878757476807     
   9.6900000000000000E-002    0.39002424478530884     
   9.7200000000000009E-002   -0.44988039135932922     
   9.7499999999999989E-002    -1.2752141952514648     
   9.7799999999999998E-002    -2.0529143810272217     
   9.8100000000000007E-002    -2.7523789405822754     
   9.8400000000000015E-002    -3.3470225334167480     
   9.8699999999999996E-002    -3.8147187232971191     
   9.9000000000000005E-002    -4.1385412216186523     
   9.9300000000000013E-002    -4.3079752922058105     
   9.9599999999999994E-002    -4.3182244300842285     
   9.9900000000000003E-002    -4.1708364486694336     
  0.10020000000000001         -3.8738048076629639     
  0.10049999999999999         -3.4401776790618896     
  0.10080000000000000         -2.8881266117095947     
  0.10110000000000001         -2.2406110763549805     
  0.10140000000000000         -1.5237970352172852     
  0.10170000000000000        -0.76651036739349365     
  0.10200000000000001          9.2673674225807190E-004
  0.10230000000000002         0.74795252084732056     
  0.10260000000000000          1.4448450803756714     
  0.10290000000000001          2.0642354488372803     
  0.10320000000000000          2.5819082260131836     
  0.10350000000000001          2.9780406951904297     
  0.10380000000000000          3.2386362552642822     
  0.10410000000000001          3.3557422161102295     
  0.10440000000000001          3.3279588222503662     
  0.10470000000000000          3.1610500812530518     
  0.10500000000000000          2.8670129776000977     
  0.10530000000000000          2.4639816284179688     
  0.10560000000000000          1.9751054048538208     
  0.10590000000000001          1.4271546602249146     
  0.10620000000000000         0.84918832778930664     
  0.10650000000000001         0.27069294452667236     
  0.10679999999999999        -0.28003484010696411     
  0.10710000000000000        -0.77722382545471191     
  0.10740000000000001         -1.1993817090988159     
  0.10770000000000000         -1.5304105281829834     
  0.10800000000000000         -1.7600287199020386     
  0.10830000000000001         -1.8842428922653198     
  0.10859999999999999         -1.9052549600601196     
  0.10890000000000000         -1.8312230110168457     
  0.10920000000000001         -1.6752004623413086     
  0.10950000000000001         -1.4534732103347778     
  0.10979999999999999         -1.1846868991851807     
  0.11009999999999999        -0.88858741521835327     
  0.11040000000000001        -0.58398586511611938     
  0.11070000000000001        -0.28749442100524902     
  0.11100000000000000         -1.2876236811280251E-002
  0.11130000000000000         0.22974079847335815     
  0.11160000000000002         0.43485572934150696     
  0.11190000000000001         0.60081428289413452     
  0.11220000000000001         0.72920966148376465     
  0.11250000000000000         0.82438170909881592     
  0.11280000000000000         0.89223247766494751     
  0.11309999999999999         0.93893331289291382     
  0.11340000000000001         0.96964067220687866     
  0.11369999999999998         0.98779487609863281     
  0.11400000000000000         0.99408435821533203     
  0.11430000000000000         0.98630547523498535     
  0.11460000000000002         0.95989423990249634     
  0.11489999999999999         0.90792614221572876     
  0.11520000000000001         0.82254302501678467     
  0.11550000000000001         0.69619750976562500     
  0.11580000000000000         0.52254277467727661     
  0.11609999999999999         0.29843756556510925     
  0.11640000000000002          2.4641769006848335E-002
  0.11670000000000001        -0.29338118433952332     
  0.11700000000000001        -0.64517766237258911     
  0.11730000000000000         -1.0153465270996094     
  0.11760000000000000         -1.3841018676757812     
  0.11789999999999999         -1.7287895679473877     
  0.11820000000000001         -2.0251660346984863     
  0.11850000000000001         -2.2493114471435547     
  0.11880000000000000         -2.3796930313110352     
  0.11910000000000000         -2.3987264633178711     
  0.11940000000000002         -2.2946372032165527     
  0.11970000000000001         -2.0628604888916016     
  0.12000000000000001         -1.7071069478988647     
  0.12030000000000000         -1.2393512725830078     
  0.12060000000000000        -0.67940586805343628     
  0.12089999999999999         -5.4521545767784119E-002
  0.12119999999999999         0.60245859622955322     
  0.12150000000000001          1.2553746700286865     
  0.12180000000000001          1.8668453693389893     
  0.12210000000000000          2.4005122184753418     
  0.12239999999999999          2.8238978385925293     
  0.12270000000000002          3.1113266944885254     
  0.12300000000000001          3.2447836399078369     
  0.12330000000000001          3.2152261734008789     
  0.12360000000000000          3.0242242813110352     
  0.12390000000000000          2.6832759380340576     
  0.12419999999999999          2.2128868103027344     
  0.12450000000000001          1.6411670446395874     
  0.12480000000000001          1.0021116733551025     
  0.12509999999999999         0.33362275362014771     
  0.12540000000000001        -0.32557684183120728     
  0.12570000000000003        -0.93797731399536133     
  0.12600000000000000         -1.4695426225662231     
  0.12630000000000002         -1.8917150497436523     
  0.12659999999999999         -2.1821205615997314     
  0.12690000000000001         -2.3266510963439941     
  0.12719999999999998         -2.3199157714843750     
  0.12750000000000000         -2.1643521785736084     
  0.12780000000000002         -1.8701221942901611     
  0.12809999999999999         -1.4553309679031372     
  0.12840000000000001        -0.94462299346923828     
  0.12869999999999998        -0.36701256036758423     
  0.12900000000000000         0.24477544426918030     
  0.12930000000000003         0.85545808076858521     
  0.12959999999999999          1.4296931028366089     
  0.12990000000000002          1.9338243007659912     
  0.13019999999999998          2.3374748229980469     
  0.13050000000000000          2.6149470806121826     
  0.13080000000000003          2.7470393180847168     
  0.13109999999999999          2.7221729755401611     
  0.13140000000000002          2.5367898941040039     
  0.13169999999999998          2.1960885524749756     
  0.13200000000000001          1.7134591341018677     
  0.13229999999999997          1.1098625659942627     
  0.13260000000000000         0.41229498386383057     
  0.13290000000000002        -0.34739434719085693     
  0.13319999999999999         -1.1343631744384766     
  0.13350000000000001         -1.9134947061538696     
  0.13380000000000003         -2.6507813930511475     
  0.13410000000000000         -3.3147869110107422     
  0.13440000000000002         -3.8789181709289551     
  0.13469999999999999         -4.3220915794372559     
  0.13500000000000001         -4.6300201416015625     
  0.13529999999999998         -4.7952852249145508     
  0.13560000000000000         -4.8172941207885742     
  0.13590000000000002         -4.7020368576049805     
  0.13619999999999999         -4.4609165191650391     
  0.13650000000000001         -4.1103310585021973     
  0.13680000000000003         -3.6698994636535645     
  0.13710000000000000         -3.1597061157226562     
  0.13740000000000002         -2.5997505187988281     
  0.13769999999999999         -2.0084574222564697     
  0.13800000000000001         -1.4000649452209473     
  0.13829999999999998        -0.78323024511337280     
  0.13860000000000000        -0.16110642254352570     
  0.13890000000000002         0.46819475293159485     
  0.13919999999999999          1.1125115156173706     
  0.13950000000000001          1.7831135988235474     
  0.13979999999999998          2.4920225143432617     
  0.14010000000000000          3.2502105236053467     
  0.14040000000000002          4.0640492439270020     
  0.14069999999999999          4.9325709342956543     
  0.14100000000000001          5.8452396392822266     
  0.14130000000000004          6.7800416946411133     
  0.14160000000000000          7.7028746604919434     
  0.14189999999999997          8.5689067840576172     
  0.14219999999999999          9.3242969512939453     
  0.14250000000000002          9.9097671508789062     
  0.14279999999999998          10.265021324157715     
  0.14310000000000000          10.333210945129395     
  0.14339999999999997          10.067406654357910     
  0.14369999999999999          9.4344224929809570     
  0.14400000000000002          8.4180727005004883     
  0.14429999999999998          7.0242328643798828     
  0.14460000000000001          5.2802300453186035     
  0.14490000000000003          3.2341885566711426     
  0.14520000000000000         0.95427793264389038     
  0.14550000000000002         -1.4761166572570801     
  0.14579999999999999         -3.9633054733276367     
  0.14610000000000001         -6.4083576202392578     
  0.14640000000000003         -8.7144145965576172     
  0.14670000000000000         -10.791077613830566     
  0.14699999999999996         -12.559834480285645     
  0.14729999999999999         -13.959389686584473     
  0.14760000000000001         -14.945241928100586     
  0.14789999999999998         -15.493467330932617     
  0.14820000000000000         -15.599902153015137     