  -1.4999999999999999E-002     0.0000000000000000     
  -1.4700000000000000E-002     0.0000000000000000     
  -1.4400000000000000E-002     0.0000000000000000     
  -1.4100000000000000E-002     0.0000000000000000     
  -1.3800000000000000E-002     0.0000000000000000     
  -1.3500000000000000E-002     0.0000000000000000     
  -1.3200000000000000E-002     0.0000000000000000     
  -1.2899999999999998E-002     0.0000000000000000     
  -1.2600000000000000E-002     0.0000000000000000     
  -1.2299999999999998E-002     0.0000000000000000     
  -1.2000000000000000E-002     0.0000000000000000     
  -1.1699999999999999E-002     0.0000000000000000     
  -1.1399999999999999E-002     0.0000000000000000     
  -1.1099999999999999E-002     0.0000000000000000     
  -1.0799999999999999E-002     0.0000000000000000     
  -1.0499999999999999E-002     0.0000000000000000     
  -1.0199999999999999E-002     0.0000000000000000     
  -9.8999999999999991E-003     0.0000000000000000     
  -9.5999999999999992E-003     0.0000000000000000     
  -9.2999999999999992E-003     0.0000000000000000     
  -8.9999999999999993E-003     0.0000000000000000     
  -8.6999999999999994E-003     0.0000000000000000     
  -8.3999999999999995E-003     0.0000000000000000     
  -8.0999999999999996E-003     0.0000000000000000     
  -7.7999999999999988E-003     0.0000000000000000     
  -7.4999999999999997E-003     0.0000000000000000     
  -7.1999999999999998E-003     0.0000000000000000     
  -6.8999999999999981E-003     0.0000000000000000     
  -6.5999999999999982E-003     0.0000000000000000     
  -6.3000000000000000E-003     0.0000000000000000     
  -6.0000000000000001E-003     0.0000000000000000     
  -5.6999999999999985E-003     0.0000000000000000     
  -5.3999999999999986E-003     0.0000000000000000     
  -5.1000000000000004E-003     0.0000000000000000     
  -4.7999999999999987E-003     0.0000000000000000     
  -4.5000000000000005E-003     0.0000000000000000     
  -4.1999999999999989E-003     0.0000000000000000     
  -3.8999999999999990E-003     0.0000000000000000     
  -3.5999999999999990E-003     0.0000000000000000     
  -3.2999999999999991E-003     0.0000000000000000     
  -2.9999999999999992E-003     0.0000000000000000     
  -2.6999999999999993E-003     0.0000000000000000     
  -2.3999999999999994E-003     0.0000000000000000     
  -2.0999999999999977E-003     0.0000000000000000     
  -1.7999999999999995E-003     0.0000000000000000     
  -1.4999999999999979E-003     0.0000000000000000     
  -1.1999999999999997E-003     0.0000000000000000     
  -8.9999999999999976E-004     0.0000000000000000     
  -5.9999999999999810E-004     0.0000000000000000     
  -2.9999999999999992E-004     0.0000000000000000     
   0.0000000000000000          0.0000000000000000     
   3.0000000000000165E-004     0.0000000000000000     
   5.9999999999999984E-004    -8.6845989055339258E-039
   9.0000000000000149E-004     1.1981522259516483E-037
   1.2000000000000031E-003     1.2647018782499389E-037
   1.5000000000000013E-003    -6.2250347733857595E-036
   1.8000000000000030E-003     2.2726946946478403E-035
   2.1000000000000012E-003     3.9323645585870932E-035
   2.3999999999999994E-003    -1.5307759564128164E-034
   2.7000000000000010E-003    -2.2871638813939630E-034
   2.9999999999999992E-003     6.9930404849596638E-034
   3.3000000000000008E-003     2.7532221821450828E-035
   3.6000000000000025E-003    -6.4106889801354717E-033
   3.9000000000000007E-003     3.4051710617406088E-032
   4.2000000000000023E-003    -9.6587620414464832E-032
   4.5000000000000005E-003    -2.8382193928698474E-031
   4.7999999999999987E-003     6.2625259402593645E-030
   5.1000000000000004E-003    -4.3490192652689359E-029
   5.4000000000000020E-003     1.3975653246604849E-028
   5.7000000000000037E-003     2.5008244748254643E-028
   5.9999999999999984E-003    -5.5707865708315140E-027
   6.3000000000000000E-003     3.1953847522098486E-026
   6.6000000000000017E-003    -8.7770049515743009E-026
   6.9000000000000034E-003    -5.7367202296369765E-026
   7.2000000000000015E-003     1.7122539776924892E-024
   7.5000000000000032E-003    -8.1537655069568540E-024
   7.8000000000000014E-003     1.9219170074436567E-023
   8.0999999999999996E-003    -2.2170399435311398E-024
   8.4000000000000012E-003    -1.6275475011415966E-022
   8.7000000000000029E-003     6.1125287876682278E-022
   9.0000000000000011E-003    -7.0226662516752348E-022
   9.2999999999999992E-003    -3.6455271196482616E-021
   9.6000000000000009E-003     2.5158406847625504E-020
   9.8999999999999991E-003    -9.0545895150669283E-020
   1.0200000000000001E-002     2.4261167600763257E-019
   1.0500000000000002E-002    -5.7177141862024578E-019
   1.0800000000000004E-002     1.5171669855741305E-018
   1.1099999999999999E-002    -5.5250732600639942E-018
   1.1400000000000000E-002     2.4455561336738626E-017
   1.1700000000000002E-002    -1.1102453306855607E-016
   1.2000000000000004E-002     4.9555953223145459E-016
   1.2300000000000002E-002    -2.1955821800878251E-015
   1.2600000000000000E-002     9.6700430598443229E-015
   1.2900000000000002E-002    -4.1420969583618922E-014
   1.3200000000000000E-002     1.6603745214660287E-013
   1.3500000000000002E-002    -5.9307329029639422E-013
   1.3800000000000003E-002     1.7608792808996525E-012
   1.4100000000000001E-002    -3.7356305100554783E-012
   1.4400000000000000E-002     2.1882778482413304E-012
   1.4700000000000001E-002     2.3726265008684454E-011
   1.4999999999999999E-002    -1.2208748234947406E-010
   1.5300000000000001E-002     2.9682835802610700E-010
   1.5600000000000003E-002    -1.8639633995725495E-010
   1.5899999999999997E-002    -1.2608316780697163E-009
   1.6199999999999999E-002     4.1823729309964548E-009
   1.6500000000000001E-002    -2.1554673965365437E-009
   1.6800000000000002E-002    -1.6203937158204407E-008
   1.7100000000000004E-002     2.9669941508015976E-008
   1.7400000000000006E-002     3.9950020753680603E-008
   1.7700000000000000E-002    -1.4037736421963650E-007
   1.8000000000000002E-002    -1.3381162700361284E-007
   1.8300000000000004E-002     4.2912663741821215E-007
   1.8600000000000005E-002     5.2466455865843069E-007
   1.8900000000000000E-002    -9.6343102357022634E-007
   1.9200000000000002E-002    -1.8527012642014308E-006
   1.9500000000000003E-002     2.1293553765823887E-006
   1.9799999999999998E-002     1.0944206093138739E-005
   2.0100000000000000E-002     1.9176854195981832E-005
   2.0400000000000001E-002     2.5090705648551925E-005
   2.0700000000000003E-002     3.6722015017341203E-005
   2.0999999999999998E-002     6.3714897523487911E-005
   2.1299999999999999E-002     1.0712113644013692E-004
   2.1600000000000001E-002     1.6496181397130001E-004
   2.1900000000000003E-002     2.4652897396321323E-004
   2.2200000000000004E-002     3.7350303469273899E-004
   2.2500000000000006E-002     5.6704421673098651E-004
   2.2800000000000001E-002     8.4406659862335670E-004
   2.3100000000000002E-002     1.2314196242401917E-003
   2.3400000000000004E-002     1.7759922071006115E-003
   2.3699999999999999E-002     2.5358011991645640E-003
   2.4000000000000000E-002     3.5701412017512119E-003
   2.4300000000000002E-002     4.9472679324129853E-003
   2.4599999999999997E-002     6.7566598904512387E-003
   2.4900000000000005E-002     9.1030600708904563E-003
   2.5200000000000000E-002     1.2087923019175051E-002
   2.5499999999999995E-002     1.5803615525505688E-002
   2.5800000000000003E-002     2.0338288459706533E-002
   2.6099999999999998E-002     2.5766522525625390E-002
   2.6400000000000007E-002     3.2120461462122885E-002
   2.6700000000000002E-002     3.9363022600572783E-002
   2.6999999999999996E-002     4.7378718743931625E-002
   2.7300000000000005E-002     5.5967447315103724E-002
   2.7600000000000000E-002     6.4819590802612126E-002
   2.7900000000000008E-002     7.3490358200970274E-002
   2.8200000000000003E-002     8.1397434795154933E-002
   2.8499999999999998E-002     8.7844010083337309E-002
   2.8800000000000006E-002     9.2044564851391009E-002
   2.9100000000000001E-002     9.3151272817056707E-002
   2.9400000000000003E-002     9.0301929669488690E-002
   2.9700000000000004E-002     8.2698252528824234E-002
   3.0000000000000006E-002     6.9693300605108588E-002
   3.0300000000000001E-002     5.0868275140786068E-002
   3.0600000000000002E-002     2.6116216192855368E-002
   3.0900000000000004E-002    -4.2835999334503508E-003
   3.1199999999999999E-002    -3.9623214454198363E-002
   3.1500000000000007E-002    -7.8738172174050991E-002
   3.1800000000000002E-002   -0.12003014606452300     
   3.2099999999999997E-002   -0.16155186456672599     
   3.2400000000000005E-002   -0.20109976093150372     
   3.2700000000000000E-002   -0.23634151896493449     
   3.3000000000000002E-002   -0.26501401317832851     
   3.3300000000000003E-002   -0.28512783916432127     
   3.3599999999999998E-002   -0.29514150775905179     
   3.3900000000000000E-002   -0.29409707744552271     
   3.4200000000000001E-002   -0.28175580757946506     
   3.4500000000000003E-002   -0.25870357532175792     
   3.4799999999999998E-002   -0.22634003686681314     
   3.5099999999999999E-002   -0.18676760402080550     
   3.5400000000000001E-002   -0.14269281644987863     
   3.5699999999999996E-002    -9.7241875359338703E-002
   3.6000000000000004E-002    -5.3711872196087196E-002
   3.6299999999999999E-002    -1.5346668560437760E-002
   3.6600000000000008E-002     1.4939267621685792E-002
   3.6900000000000002E-002     3.4833020897536704E-002
   3.7199999999999997E-002     4.2728195304952532E-002
   3.7500000000000006E-002     3.7863001247106620E-002
   3.7800000000000000E-002     2.0419400090754936E-002
   3.8100000000000009E-002    -8.4497935623200626E-003
   3.8400000000000004E-002    -4.6676674235069049E-002
   3.8699999999999998E-002    -9.1479762103513718E-002
   3.9000000000000007E-002   -0.13952238054583344     
   3.9300000000000002E-002   -0.18705644635135421     
   3.9600000000000003E-002   -0.23015165883976607     
   3.9900000000000005E-002   -0.26497168369835578     
   4.0200000000000000E-002   -0.28803616082962158     
   4.0500000000000001E-002   -0.29641419161307248     
   4.0800000000000003E-002   -0.28782970248059137     
   4.1100000000000005E-002   -0.26085929451935286     
   4.1399999999999999E-002   -0.21511987847101999     
   4.1700000000000008E-002   -0.15120735909718563     
   4.2000000000000003E-002    -7.0614115564886309E-002
   4.2299999999999997E-002     2.4302848536011612E-002
   4.2600000000000006E-002    0.13038407186327872     
   4.2900000000000001E-002    0.24389534185553874     
   4.3200000000000002E-002    0.36086389229847882     
   4.3500000000000004E-002    0.47724630634033716     
   4.3799999999999999E-002    0.58906732204458478     
   4.4100000000000000E-002    0.69261978636863830     
   4.4400000000000002E-002    0.78470927052584827     
   4.4700000000000004E-002    0.86274479688154670     
   4.4999999999999998E-002    0.92469063696433906     
   4.5300000000000000E-002    0.96901811712486818     
   4.5600000000000002E-002    0.99469919445741439     
   4.5899999999999996E-002     1.0011205744461549     
   4.6200000000000005E-002    0.98798768230503953     
   4.6500000000000000E-002    0.95512839150170237     
   4.6799999999999994E-002    0.90251519233603972     
   4.7100000000000003E-002    0.83033507602501189     
   4.7399999999999998E-002    0.73896861297014027     
   4.7700000000000006E-002    0.62905123287089282     
   4.8000000000000001E-002    0.50166774145834481     
   4.8300000000000010E-002    0.35857534768785460     
   4.8600000000000004E-002    0.20233710671870564     
   4.8899999999999999E-002     3.6363000591779215E-002
   4.9200000000000008E-002   -0.13499740904651958     
   4.9500000000000002E-002   -0.30647565394376208     
   4.9800000000000011E-002   -0.47209037078810390     
   5.0100000000000006E-002   -0.62533463268663070     
   5.0400000000000000E-002   -0.75962180757700182     
   5.0700000000000009E-002   -0.86873744307842671     
   5.1000000000000004E-002   -0.94721007830326798     
   5.1299999999999998E-002   -0.99078377299510834     
   5.1600000000000007E-002   -0.99686345533743292     
   5.1900000000000002E-002   -0.96478608206406946     
   5.2200000000000010E-002   -0.89592096318082426     
   5.2500000000000005E-002   -0.79367521665642116     
   5.2800000000000000E-002   -0.66339677838998412     
   5.3099999999999994E-002   -0.51201394656669841     
   5.3400000000000003E-002   -0.34755864103820766     
   5.3699999999999998E-002   -0.17870276944783875     
   5.4000000000000006E-002    -1.4231960219877493E-002
   5.4300000000000001E-002    0.13753245388662583     
   5.4599999999999996E-002    0.26913629441540898     
   5.4900000000000004E-002    0.37440093058595636     
   5.5199999999999999E-002    0.44871360753109535     
   5.5499999999999994E-002    0.48915778229240559     
   5.5800000000000002E-002    0.49464562840058512     
   5.6099999999999997E-002    0.46582324249232876     
   5.6400000000000006E-002    0.40497075605823696     
   5.6700000000000000E-002    0.31585318554591524     
   5.6999999999999995E-002    0.20361803614038054     
   5.7300000000000004E-002     7.4562213078749107E-002
   5.7599999999999998E-002    -6.4299408803441871E-002
   5.7900000000000007E-002   -0.20556852669131498     
   5.8200000000000002E-002   -0.34163783072066778     
   5.8499999999999996E-002   -0.46519016585324025     
   5.8800000000000005E-002   -0.56970112532129846     
   5.9100000000000000E-002   -0.64988612578455829     
   5.9400000000000008E-002   -0.70216632395084844     
   5.9700000000000003E-002   -0.72492138401776529     
   6.0000000000000012E-002   -0.71867733894115915     
   6.0300000000000006E-002   -0.68633443574064756     
   6.0600000000000001E-002   -0.63293412959837170     
   6.0900000000000010E-002   -0.56530040160322059     
   6.1200000000000004E-002   -0.49146142713166086     
   6.1500000000000013E-002   -0.41989022304205115     
   6.1800000000000008E-002   -0.35886249050935426     
   6.2100000000000002E-002   -0.31543113028551772     
   6.2399999999999997E-002   -0.29453776649850916     
   6.2700000000000006E-002   -0.29853031884997883     
   6.3000000000000000E-002   -0.32677732753109012     
   6.3300000000000009E-002   -0.37544164823889403     
   6.3600000000000004E-002   -0.43764669989965732     
   6.3899999999999998E-002   -0.50400161130565202     
   6.4199999999999993E-002   -0.56344173356196947     
   6.4500000000000002E-002   -0.60409934027895673     
   6.4800000000000010E-002   -0.61432169439536111     
   6.5100000000000005E-002   -0.58402232562999679     
   6.5400000000000000E-002   -0.50558600272462861     
   6.5700000000000008E-002   -0.37463404580410131     
   6.5999999999999989E-002   -0.19073687163720177     
   6.6299999999999998E-002     4.2292732793124177E-002
   6.6600000000000006E-002    0.31632547876848882     
   6.6900000000000001E-002    0.61934897867317673     
   6.7199999999999996E-002    0.93619075836344479     
   6.7500000000000004E-002     1.2492259495531499     
   6.7800000000000013E-002     1.5395361940863737     
   6.8099999999999994E-002     1.7881757406751078     
   6.8400000000000002E-002     1.9773608283246773     
   6.8700000000000011E-002     2.0916989251125386     
   6.8999999999999992E-002     2.1193684854628998     
   6.9300000000000000E-002     2.0530251438673162     
   6.9600000000000009E-002     1.8903960754582698     
   6.9900000000000004E-002     1.6347142967982649     
   7.0199999999999999E-002     1.2947565481858661     
   7.0500000000000007E-002    0.88450920787904508     
   7.0800000000000016E-002    0.42251201431931484     
   7.1099999999999997E-002    -6.9289875244867849E-002
   7.1400000000000005E-002   -0.56676073669537530     
   7.1700000000000000E-002    -1.0449321863034946     
   7.1999999999999995E-002    -1.4795020166139139     
   7.2300000000000003E-002    -1.8482775521210684     
   7.2600000000000012E-002    -2.1326494990195926     
   7.2900000000000006E-002    -2.3184454343893606     
   7.3200000000000001E-002    -2.3965529353128403     
   7.3499999999999996E-002    -2.3634557889402146     
   7.3800000000000004E-002    -2.2211715856150676     
   7.4099999999999999E-002    -1.9767152074357242     
   7.4400000000000008E-002    -1.6414762051500489     
   7.4700000000000003E-002    -1.2305485948021264     
   7.5000000000000011E-002   -0.76175536880937333     
   7.5299999999999992E-002   -0.25450872599406793     
   7.5600000000000001E-002    0.27103203387356167     
   7.5900000000000009E-002    0.79472311660915551     
   7.6200000000000004E-002     1.2971164542960807     
   7.6499999999999999E-002     1.7600947777345581     
   7.6800000000000007E-002     2.1672726230682429     
   7.7099999999999988E-002     2.5041289916025562     
   7.7399999999999997E-002     2.7583930990174821     
   7.7700000000000005E-002     2.9202710373056107     
   7.8000000000000014E-002     2.9824728375495511     
   7.8299999999999995E-002     2.9404153509594124     
   7.8600000000000003E-002     2.7923906275333366     
   7.8900000000000012E-002     2.5396890898500644     
   7.9199999999999993E-002     2.1867328983568726     
   7.9500000000000001E-002     1.7413229418066578     
   7.9800000000000010E-002     1.2148228879714296     
   8.0100000000000018E-002    0.62190533444243457     
   8.0399999999999999E-002    -1.9508924088678548E-002
   8.0700000000000008E-002   -0.68823535667123537     
   8.1000000000000003E-002    -1.3602319439941155     
   8.1299999999999997E-002    -2.0094457108567241     
   8.1600000000000006E-002    -2.6087107494257680     
   8.1900000000000014E-002    -3.1305282236027239     
   8.2199999999999995E-002    -3.5485025408674176     
   8.2500000000000004E-002    -3.8387101626057358     
   8.2799999999999999E-002    -3.9812610603866716     
   8.3100000000000007E-002    -3.9616580128664509     
   8.3400000000000002E-002    -3.7719879085668140     
   8.3700000000000011E-002    -3.4122972575531918     
   8.4000000000000005E-002    -2.8910432026831927     
   8.4300000000000000E-002    -2.2250429169048829     
   8.4599999999999995E-002    -1.4394345840118703     
   8.4900000000000003E-002   -0.56679631063094149     
   8.5199999999999998E-002    0.35423964175174216     
   8.5500000000000007E-002     1.2810018674322237     
   8.5800000000000001E-002     2.1691755200463092     
   8.6100000000000010E-002     2.9749699760375989     
   8.6399999999999991E-002     3.6576676953814626     
   8.6699999999999999E-002     4.1821502914895348     
   8.7000000000000008E-002     4.5212614239114259     
   8.7300000000000003E-002     4.6573506402041289     
   8.7599999999999997E-002     4.5831848078889124     
   8.7900000000000006E-002     4.3026982156216746     
   8.8200000000000014E-002     3.8310127752324803     
   8.8499999999999995E-002     3.1932526397746841     
   8.8800000000000004E-002     2.4227807650170554     
   8.9100000000000013E-002     1.5593898080143038     
   8.9399999999999993E-002    0.64686971478118949     
   8.9700000000000002E-002   -0.26992460253146988     
   9.0000000000000011E-002    -1.1476050933708528     
   9.0299999999999991E-002    -1.9470296533546403     
   9.0600000000000000E-002    -2.6353474665703231     
   9.0900000000000009E-002    -3.1872187171273794     
   9.1200000000000017E-002    -3.5862178781191858     
   9.1499999999999998E-002    -3.8250623592854964     
   9.1800000000000007E-002    -3.9051297442910169     
   9.2100000000000001E-002    -3.8354079702795190     
   9.2399999999999996E-002    -3.6310961152847057     
   9.2700000000000005E-002    -3.3121562641333782     
   9.3000000000000013E-002    -2.9012313577472213     
   9.3300000000000008E-002    -2.4218122790207914     
   9.3600000000000003E-002    -1.8968154333722893     
   9.3899999999999997E-002    -1.3473249030820114     
   9.4200000000000006E-002   -0.79215811273010983     
   9.4500000000000001E-002   -0.24729035262103594     
   9.4800000000000009E-002    0.27430436425884874     
   9.5100000000000004E-002    0.76207905149371058     
   9.5399999999999999E-002     1.2071001193048261     
   9.5699999999999993E-002     1.6014937904525937     
   9.6000000000000002E-002     1.9382804038221764     
   9.6300000000000011E-002     2.2107529187183417     
   9.6600000000000005E-002     2.4122268495234636     
   9.6900000000000000E-002     2.5365251471009600     
   9.7200000000000009E-002     2.5784446912812058     
   9.7499999999999989E-002     2.5345301645126170     
   9.7799999999999998E-002     2.4036673309887107     
   9.8100000000000007E-002     2.1880376594616635     
   9.8400000000000015E-002     1.8936151925858695     
   9.8699999999999996E-002     1.5304695653941991     
   9.9000000000000005E-002     1.1129092307034387     
   9.9300000000000013E-002    0.65855126266102459     
   9.9599999999999994E-002    0.18732058701510468     
   9.9900000000000003E-002   -0.27926331560601270     
  0.10020000000000001        -0.71974451244747684     
  0.10049999999999999         -1.1144624708094923     
  0.10080000000000000         -1.4467471573421591     
  0.10110000000000001         -1.7036899272600579     
  0.10140000000000000         -1.8769817797639021     
  0.10170000000000000         -1.9634441612344560     
  0.10200000000000001         -1.9645832909476795     
  0.10230000000000002         -1.8862115330373115     
  0.10260000000000000         -1.7376108960150773     
  0.10290000000000001         -1.5305475147402632     
  0.10320000000000000         -1.2785925946578374     
  0.10350000000000001        -0.99661755717687583     
  0.10380000000000000        -0.69998932488777399     
  0.10410000000000001        -0.40386099632920480     
  0.10440000000000001        -0.12337412061454689     
  0.10470000000000000         0.12627587797475126     
  0.10500000000000000         0.33064078592078694     
  0.10530000000000000         0.47626646870379297     
  0.10560000000000000         0.55092416555232493     
  0.10590000000000001         0.54488450052822790     
  0.10620000000000000         0.45215637229637284     
  0.10650000000000001         0.27130323905562470     
  0.10679999999999999          6.3863583731409435E-003
  0.10710000000000000        -0.33150416886707568     
  0.10740000000000001        -0.72390881879314506     
  0.10770000000000000         -1.1456886046574297     
  0.10800000000000000         -1.5656671029801430     
  0.10830000000000001         -1.9482046921969811     
  0.10859999999999999         -2.2555337118967032     
  0.10890000000000000         -2.4508506295251280     
  0.10920000000000001         -2.5013035723707731     
  0.10950000000000001         -2.3809536453984705     
  0.10979999999999999         -2.0737098522668966     
  0.11009999999999999         -1.5752120432263155     
  0.11040000000000001        -0.89404159825635787     
  0.11070000000000001         -5.1892656782033697E-002
  0.11100000000000000         0.91758438861682734     
  0.11130000000000000          1.9705596379358070     
  0.11160000000000002          3.0560409928170458     
  0.11190000000000001          4.1190888906487260     
  0.11220000000000001          5.1046543452667379     
  0.11250000000000000          5.9613718834947917     
  0.11280000000000000          6.6442677489141317     
  0.11309999999999999          7.1178035758647411     
  0.11340000000000001          7.3577354670034936     
  0.11369999999999998          7.3520947804502441     
  0.11400000000000000          7.1011958351072622     
  0.11430000000000000          6.6167057504708282     
  0.11460000000000002          5.9206839694341795     
  0.11489999999999999          5.0435340263536901     
  0.11520000000000001          4.0212170627339354     
  0.11550000000000001          2.8933777436913495     
  0.11580000000000000          1.7012586366161031     
  0.11609999999999999         0.48524517047387050     
  0.11640000000000002        -0.71777527931558982     
  0.11670000000000001         -1.8750106543789897     
  0.11700000000000001         -2.9588758287016645     
  0.11730000000000000         -3.9487546144710848     
  0.11760000000000000         -4.8312401930455451     
  0.11789999999999999         -5.5993751767818196     
  0.11820000000000001         -6.2526830454350772     
  0.11850000000000001         -6.7964059506689978     
  0.11880000000000000         -7.2400548716186393     
  0.11910000000000000         -7.5956299499604540     
  0.11940000000000002         -7.8753183263092978     
  0.11970000000000001         -8.0896245176686818     
  0.12000000000000001         -8.2451284237102413     
  0.12030000000000000         -8.3420376758332964     
  0.12060000000000000         -8.3727550201741394     
  0.12089999999999999         -8.3212641504602800     
  0.12119999999999999         -8.1633362809185144     
  0.12150000000000001         -7.8676091892722582     
  0.12180000000000001         -7.3982642404037051     
  0.12210000000000000         -6.7187465784678224     
  0.12239999999999999         -5.7958540672672951     
  0.12270000000000002         -4.6051010609769918     
  0.12300000000000001         -3.1354677553358528     
  0.12330000000000001         -1.3940758099233079     
  0.12360000000000000         0.59145618059204175     
  0.12390000000000000          2.7713298612392805     
  0.12419999999999999          5.0729357082141746     
  0.12450000000000001          7.4051537964944885     
  0.12480000000000001          9.6627636127817595     
  0.12509999999999999          11.732433432396363     
  0.12540000000000001          13.501798503400892     
  0.12570000000000003          14.867203278170280     
  0.12600000000000000          15.742036970925369     
  0.12630000000000002          16.065165778756011     
  0.12659999999999999          15.805357784891953     
  0.12690000000000001          14.963554563218338     
  0.12719999999999998          13.574417788217772     
  0.12750000000000000          11.703569240902254     
  0.12780000000000002          9.4421770952957012     
  0.12809999999999999          6.9003635113466970     
  0.12840000000000001          4.1986141607967795     
  0.12869999999999998          1.4595074353690904     
  0.12900000000000000         -1.2001703996494859     
  0.12930000000000003         -3.6767352896155643     
  0.12959999999999999         -5.8843235180427769     
  0.12990000000000002         -7.7584887743829256     
  0.13019999999999998         -9.2561272681148239     
  0.13050000000000000         -10.354210307660480     
  0.13080000000000003         -11.048686436510309     
  0.13109999999999999         -11.351297378653555     
  0.13140000000000002         -11.283918152137232     
  0.13169999999999998         -10.876261156669386     
  0.13200000000000001         -10.164658227519084     
  0.13229999999999997         -9.1889696317087726     
  0.13260000000000000         -7.9912801622972296     
  0.13290000000000002         -6.6167920206513511     
  0.13319999999999999         -5.1147757238280320     
  0.13350000000000001         -3.5382459025481268     
  0.13380000000000003         -1.9435641241445154     
  0.13410000000000000        -0.39092100796445806     
  0.13440000000000002          1.0573639980522689     
  0.13469999999999999          2.3405764209235613     
  0.13500000000000001          3.4013921388266510     
  0.13529999999999998          4.1902520724688657     
  0.13560000000000000          4.6704054154445629     
  0.13590000000000002          4.8199740062048448     
  0.13619999999999999          4.6351802267080267     
  0.13650000000000001          4.1324879894779869     
  0.13680000000000003          3.3481187904973382     
  0.13710000000000000          2.3371286297628160     
  0.13740000000000002          1.1693722745991835     
  0.13769999999999999         -7.4556436314249908E-002
  0.13800000000000001         -1.3082538212685932     
  0.13829999999999998         -2.4464370457124929     
  0.13860000000000000         -3.4096583197168684     
  0.13890000000000002         -4.1307580510837312     
  0.13919999999999999         -4.5606161773894769     
  0.13950000000000001         -4.6694406909412365     
  0.13979999999999998         -4.4491043185020267     
  0.14010000000000000         -3.9144522931015757     
  0.14040000000000002         -3.1017433272871244     
  0.14069999999999999         -2.0649139739680322     
  0.14100000000000001        -0.87156101691912369     
  0.14130000000000004         0.40080738222514611     
  0.14160000000000000          1.6708554388506798     
  0.14189999999999997          2.8600263017665526     
  0.14219999999999999          3.8972856398170705     
  0.14250000000000002          4.7226687768288400     
  0.14279999999999998          5.2925443313514791     
  0.14310000000000000          5.5823433661898321     
  0.14339999999999997          5.5858285669764740     
  0.14369999999999999          5.3165463108674587     
  0.14400000000000002          4.8062698635624201     
  0.14429999999999998          4.1012888706639856     
  0.14460000000000001          3.2596317352093873     
  0.14490000000000003          2.3460313240945219     
  0.14520000000000000          1.4279553981908322     
  0.14550000000000002         0.56970732145236980     
  0.14579999999999999        -0.17218891888546928     
  0.14610000000000001        -0.75107258723592984     
  0.14640000000000003         -1.1355635334602230     
  0.14670000000000000         -1.3108029032706483     
  0.14699999999999996         -1.2780364762289445     
  0.14729999999999999         -1.0554372721264969     
  0.14760000000000001        -0.67597493851394930     
  0.14789999999999998        -0.18377779990110810     
  0.14820000000000000         0.36946426982890268     