  -1.4999999999999999E-002     0.0000000000000000     
  -1.4700000000000000E-002     0.0000000000000000     
  -1.4400000000000000E-002     0.0000000000000000     
  -1.4100000000000000E-002     0.0000000000000000     
  -1.3800000000000000E-002     0.0000000000000000     
  -1.3500000000000000E-002     0.0000000000000000     
  -1.3200000000000000E-002     0.0000000000000000     
  -1.2899999999999998E-002     0.0000000000000000     
  -1.2600000000000000E-002     0.0000000000000000     
  -1.2299999999999998E-002     0.0000000000000000     
  -1.2000000000000000E-002     0.0000000000000000     
  -1.1699999999999999E-002     0.0000000000000000     
  -1.1399999999999999E-002     0.0000000000000000     
  -1.1099999999999999E-002     0.0000000000000000     
  -1.0799999999999999E-002     0.0000000000000000     
  -1.0499999999999999E-002     0.0000000000000000     
  -1.0199999999999999E-002     0.0000000000000000     
  -9.8999999999999991E-003     0.0000000000000000     
  -9.5999999999999992E-003     0.0000000000000000     
  -9.2999999999999992E-003     1.6559482506635344E-037
  -8.9999999999999993E-003    -4.8728976109354464E-036
  -8.6999999999999994E-003    -8.0053131144587411E-036
  -8.3999999999999995E-003     4.7422752781807574E-034
  -8.0999999999999996E-003    -3.8735360046036347E-033
  -7.7999999999999988E-003     8.6530982390989635E-033
  -7.4999999999999997E-003     5.0272837099357099E-033
  -7.1999999999999998E-003    -7.7076753160394604E-032
  -6.8999999999999981E-003     1.9104767781018910E-031
  -6.5999999999999982E-003     6.2096511762272553E-032
  -6.3000000000000000E-003    -4.2944626641189633E-030
  -6.0000000000000001E-003     4.4973690134098806E-029
  -5.6999999999999985E-003    -3.7507172703325455E-028
  -5.3999999999999986E-003     2.5822175359564079E-027
  -5.1000000000000004E-003    -1.4443973841118728E-026
  -4.7999999999999987E-003     6.4971903030828449E-026
  -4.5000000000000005E-003    -2.3369945152604583E-025
  -4.1999999999999989E-003     6.6998252503259991E-025
  -3.8999999999999990E-003    -1.5345097849910533E-024
  -3.5999999999999990E-003     2.8868773062081379E-024
  -3.2999999999999991E-003    -5.0200102448216299E-024
  -2.9999999999999992E-003     1.0463632484859701E-023
  -2.6999999999999993E-003    -2.8863234075235370E-023
  -2.3999999999999994E-003     8.4138705082297183E-023
  -2.0999999999999977E-003    -2.2098707636754501E-022
  -1.7999999999999995E-003     5.1249236018429225E-022
  -1.4999999999999979E-003    -1.0991666250535738E-021
  -1.1999999999999997E-003     2.3548695069939221E-021
  -8.9999999999999976E-004    -5.3410195891368034E-021
  -5.9999999999999810E-004     1.2640962811925432E-020
  -2.9999999999999992E-004    -2.9209098060091341E-020
   0.0000000000000000          6.1710032453671348E-020
   3.0000000000000165E-004    -1.1282057253808820E-019
   5.9999999999999984E-004     1.6474194995561162E-019
   9.0000000000000149E-004    -1.4580839319503516E-019
   1.2000000000000031E-003    -1.2097557817618657E-019
   1.5000000000000013E-003     9.7526331299288324E-019
   1.8000000000000030E-003    -2.9491561369220477E-018
   2.1000000000000012E-003     6.7205430376116057E-018
   2.3999999999999994E-003    -1.2999187994023908E-017
   2.7000000000000010E-003     2.2782258061772241E-017
   2.9999999999999992E-003    -4.0310764489697633E-017
   3.3000000000000008E-003     8.7731146344288539E-017
   3.6000000000000025E-003    -2.5942099251381138E-016
   3.9000000000000007E-003     8.8451643157134888E-016
   4.2000000000000023E-003    -2.9126727139655757E-015
   4.5000000000000005E-003     8.5460305011050147E-015
   4.7999999999999987E-003    -2.1373299248614482E-014
   5.1000000000000004E-003     4.2472928928234677E-014
   5.4000000000000020E-003    -5.2008117728879685E-014
   5.7000000000000037E-003    -4.4853531967151833E-014
   5.9999999999999984E-003     5.2344906837850647E-013
   6.3000000000000000E-003    -1.8912662234915611E-012
   6.6000000000000017E-003     4.2173261410871632E-012
   6.9000000000000034E-003    -3.4647918215058304E-012
   7.2000000000000015E-003    -1.9219108943202556E-011
   7.5000000000000032E-003     1.0976720227207082E-010
   7.8000000000000014E-003    -2.9004101897989187E-010
   8.0999999999999996E-003     2.4666652054250449E-010
   8.4000000000000012E-003     1.2953724759512397E-009
   8.7000000000000029E-003    -5.8908624644971042E-009
   9.0000000000000011E-003     8.7151219574366223E-009
   9.2999999999999992E-003     1.1889205175918960E-008
   9.6000000000000009E-003    -6.7841291695458494E-008
   9.8999999999999991E-003     5.3194039395521031E-008
   1.0200000000000001E-002     2.1755498380571225E-007
   1.0500000000000002E-002    -3.8079747355368454E-007
   1.0800000000000004E-002    -6.5784439584604115E-007
   1.1099999999999999E-002     1.1904949133167975E-006
   1.1400000000000000E-002     2.2250919755606446E-006
   1.1700000000000002E-002    -2.4816517907311209E-006
   1.2000000000000004E-002    -7.1851850407256279E-006
   1.2300000000000002E-002     4.0750064727035351E-006
   1.2600000000000000E-002     3.2472566090291366E-005
   1.2900000000000002E-002     5.5621057981625199E-005
   1.3200000000000000E-002     6.3621882873121649E-005
   1.3500000000000002E-002     8.5006271547172219E-005
   1.3800000000000003E-002     1.5393254579976201E-004
   1.4100000000000001E-002     2.6759743923321366E-004
   1.4400000000000000E-002     4.0592069854028523E-004
   1.4700000000000001E-002     5.9069273993372917E-004
   1.4999999999999999E-002     8.8868412422016263E-004
   1.5300000000000001E-002     1.3531123986467719E-003
   1.5600000000000003E-002     2.0076597575098276E-003
   1.5899999999999997E-002     2.9026600532233715E-003
   1.6199999999999999E-002     4.1525852866470814E-003
   1.6500000000000001E-002     5.8954423293471336E-003
   1.6800000000000002E-002     8.2439351826906204E-003
   1.7100000000000004E-002     1.1319700628519058E-002
   1.7400000000000006E-002     1.5307608991861343E-002
   1.7700000000000000E-002     2.0418317988514900E-002
   1.8000000000000002E-002     2.6816252619028091E-002
   1.8300000000000004E-002     3.4614302217960358E-002
   1.8600000000000005E-002     4.3912541121244431E-002
   1.8900000000000000E-002     5.4766844958066940E-002
   1.9200000000000002E-002     6.7075401544570923E-002
   1.9500000000000003E-002     8.0529056489467621E-002
   1.9799999999999998E-002     9.4638638198375702E-002
   2.0100000000000000E-002    0.10872206091880798     
   2.0400000000000001E-002    0.12182483077049255     
   2.0700000000000003E-002    0.13265731930732727     
   2.0999999999999998E-002    0.13965708017349243     
   2.1299999999999999E-002    0.14112314581871033     
   2.1600000000000001E-002    0.13525317609310150     
   2.1900000000000003E-002    0.12018346786499023     
   2.2200000000000004E-002     9.4192288815975189E-002
   2.2500000000000006E-002     5.5969033390283585E-002
   2.2800000000000001E-002     4.7868704423308372E-003
   2.3100000000000002E-002    -5.9373341500759125E-002
   2.3400000000000004E-002   -0.13563992083072662     
   2.3699999999999999E-002   -0.22206236422061920     
   2.4000000000000000E-002   -0.31553587317466736     
   2.4300000000000002E-002   -0.41192391514778137     
   2.4599999999999997E-002   -0.50627517700195312     
   2.4900000000000005E-002   -0.59301799535751343     
   2.5200000000000000E-002   -0.66620367765426636     
   2.5499999999999995E-002   -0.72007417678833008     
   2.5800000000000003E-002   -0.74960470199584961     
   2.6099999999999998E-002   -0.75087094306945801     
   2.6400000000000007E-002   -0.72153538465499878     
   2.6700000000000002E-002   -0.66102534532546997     
   2.6999999999999996E-002   -0.57085329294204712     
   2.7300000000000005E-002   -0.45456767082214355     
   2.7600000000000000E-002   -0.31759580969810486     
   2.7900000000000008E-002   -0.16691049933433533     
   2.8200000000000003E-002    -1.0571138933300972E-002
   2.8499999999999998E-002    0.14302033185958862     
   2.8800000000000006E-002    0.28566369414329529     
   2.9100000000000001E-002    0.40988767147064209     
   2.9400000000000003E-002    0.50970035791397095     
   2.9700000000000004E-002    0.58088475465774536     
   3.0000000000000006E-002    0.62138110399246216     
   3.0300000000000001E-002    0.63143229484558105     
   3.0600000000000002E-002    0.61336976289749146     
   3.0900000000000004E-002    0.57167285680770874     
   3.1199999999999999E-002    0.51242333650588989     
   3.1500000000000007E-002    0.44277811050415039     
   3.1800000000000002E-002    0.37066200375556946     
   3.2099999999999997E-002    0.30404707789421082     
   3.2400000000000005E-002    0.25051727890968323     
   3.2700000000000000E-002    0.21653665602207184     
   3.3000000000000002E-002    0.20694054663181305     
   3.3300000000000003E-002    0.22475528717041016     
   3.3599999999999998E-002    0.27080166339874268     
   3.3900000000000000E-002    0.34328684210777283     
   3.4200000000000001E-002    0.43780943751335144     
   3.4500000000000003E-002    0.54765856266021729     
   3.4799999999999998E-002    0.66406255960464478     
   3.5099999999999999E-002    0.77647143602371216     
   3.5400000000000001E-002    0.87328606843948364     
   3.5699999999999996E-002    0.94298261404037476     
   3.6000000000000004E-002    0.97493880987167358     
   3.6299999999999999E-002    0.96004563570022583     
   3.6600000000000008E-002    0.89206922054290771     
   3.6900000000000002E-002    0.76857203245162964     
   3.7199999999999997E-002    0.59117817878723145     
   3.7500000000000006E-002    0.36622977256774902     
   3.7800000000000000E-002    0.10449548065662384     
   3.8100000000000009E-002   -0.17923568189144135     
   3.8400000000000004E-002   -0.46681603789329529     
   3.8699999999999998E-002   -0.73816168308258057     
   3.9000000000000007E-002   -0.97250330448150635     
   3.9300000000000002E-002    -1.1503081321716309     
   3.9600000000000003E-002    -1.2548418045043945     
   3.9900000000000005E-002    -1.2734271287918091     
   4.0200000000000000E-002    -1.1991322040557861     
   4.0500000000000001E-002    -1.0315542221069336     
   4.0800000000000003E-002   -0.77714997529983521     
   4.1100000000000005E-002   -0.44918140769004822     
   4.1399999999999999E-002    -6.6755078732967377E-002
   4.1700000000000008E-002    0.34586846828460693     
   4.2000000000000003E-002    0.76068514585494995     
   4.2299999999999997E-002     1.1482125520706177     
   4.2600000000000006E-002     1.4793232679367065     
   4.2900000000000001E-002     1.7271202802658081     
   4.3200000000000002E-002     1.8685152530670166     
   4.3500000000000004E-002     1.8859624862670898     
   4.3799999999999999E-002     1.7689838409423828     
   4.4100000000000000E-002     1.5148513317108154     
   4.4400000000000002E-002     1.1285756826400757     
   4.4700000000000004E-002    0.62310659885406494     
   4.4999999999999998E-002     1.9335307180881500E-002
   4.5300000000000000E-002   -0.65549826622009277     
   4.5600000000000002E-002    -1.3685739040374756     
   4.5899999999999996E-002    -2.0835585594177246     
   4.6200000000000005E-002    -2.7621908187866211     
   4.6500000000000000E-002    -3.3660690784454346     
   4.6799999999999994E-002    -3.8592898845672607     
   4.7100000000000003E-002    -4.2099552154541016     
   4.7399999999999998E-002    -4.3926792144775391     
   4.7700000000000006E-002    -4.3899188041687012     
   4.8000000000000001E-002    -4.1929283142089844     
   4.8300000000000010E-002    -3.8032910823822021     
   4.8600000000000004E-002    -3.2322828769683838     
   4.8899999999999999E-002    -2.5008037090301514     
   4.9200000000000008E-002    -1.6383006572723389     
   4.9500000000000002E-002   -0.68143993616104126     
   4.9800000000000011E-002    0.32777133584022522     
   5.0100000000000006E-002     1.3447737693786621     
   5.0400000000000000E-002     2.3239560127258301     
   5.0700000000000009E-002     3.2211968898773193     
   5.1000000000000004E-002     3.9959890842437744     
   5.1299999999999998E-002     4.6131558418273926     
   5.1600000000000007E-002     5.0445289611816406     
   5.1900000000000002E-002     5.2693910598754883     
   5.2200000000000010E-002     5.2756123542785645     
   5.2500000000000005E-002     5.0606589317321777     
   5.2800000000000000E-002     4.6308217048645020     
   5.3099999999999994E-002     4.0013985633850098     
   5.3400000000000003E-002     3.1961202621459961     
   5.3699999999999998E-002     2.2469675540924072     
   5.4000000000000006E-002     1.1930361986160278     
   5.4300000000000001E-002     7.8679680824279785E-002
   5.4599999999999996E-002    -1.0475584268569946     
   5.4900000000000004E-002    -2.1354126930236816     
   5.5199999999999999E-002    -3.1352961063385010     
   5.5499999999999994E-002    -4.0006089210510254     
   5.5800000000000002E-002    -4.6913223266601562     
   5.6099999999999997E-002    -5.1757230758666992     
   5.6400000000000006E-002    -5.4333715438842773     
   5.6700000000000000E-002    -5.4564876556396484     
   5.6999999999999995E-002    -5.2506766319274902     
   5.7300000000000004E-002    -4.8356266021728516     
   5.7599999999999998E-002    -4.2430353164672852     
   5.7900000000000007E-002    -3.5148499011993408     
   5.8200000000000002E-002    -2.7004764080047607     
   5.8499999999999996E-002    -1.8526698350906372     
   5.8800000000000005E-002    -1.0246707201004028     
   5.9100000000000000E-002   -0.26507556438446045     
   5.9400000000000008E-002    0.38530316948890686     
   5.9700000000000003E-002    0.89562273025512695     
   6.0000000000000012E-002     1.2480159997940063     
   6.0300000000000006E-002     1.4383281469345093     
   6.0600000000000001E-002     1.4756072759628296     
   6.0900000000000010E-002     1.3818364143371582     
   6.1200000000000004E-002     1.1893351078033447     
   6.1500000000000013E-002    0.93803501129150391     
   6.1800000000000008E-002    0.67406916618347168     
   6.2100000000000002E-002    0.44486853480339050     
   6.2399999999999997E-002    0.29530251026153564     
   6.2700000000000006E-002    0.26682561635971069     
   6.3000000000000000E-002    0.39332726597785950     
   6.3300000000000009E-002    0.69818013906478882     
   6.3600000000000004E-002     1.1935917139053345     
   6.3899999999999998E-002     1.8780615329742432     
   6.4199999999999993E-002     2.7369596958160400     
   6.4500000000000002E-002     3.7419099807739258     
   6.4800000000000010E-002     4.8512902259826660     
   6.5100000000000005E-002     6.0133814811706543     
   6.5400000000000000E-002     7.1670484542846680     
   6.5700000000000008E-002     8.2453641891479492     
   6.5999999999999989E-002     9.1802453994750977     
   6.6299999999999998E-002     9.9043350219726562     
   6.6600000000000006E-002     10.356259346008301     
   6.6900000000000001E-002     10.484729766845703     
   6.7199999999999996E-002     10.251253128051758     
   6.7500000000000004E-002     9.6331062316894531     
   6.7800000000000013E-002     8.6249380111694336     
   6.8099999999999994E-002     7.2403531074523926     
   6.8400000000000002E-002     5.5111575126647949     
   6.8700000000000011E-002     3.4848785400390625     
   6.8999999999999992E-002     1.2236616611480713     
   6.9300000000000000E-002    -1.1979902982711792     
   6.9600000000000009E-002    -3.6989049911499023     
   6.9900000000000004E-002    -6.1943893432617188     
   7.0199999999999999E-002    -8.5988588333129883     
   7.0500000000000007E-002    -10.829791069030762     
   7.0800000000000016E-002    -12.811044692993164     
   7.1099999999999997E-002    -14.475701332092285     
   7.1400000000000005E-002    -15.766855239868164     
   7.1700000000000000E-002    -16.639232635498047     
   7.1999999999999995E-002    -17.060737609863281     
   7.2300000000000003E-002    -17.011642456054688     
   7.2600000000000012E-002    -16.486391067504883     
   7.2900000000000006E-002    -15.492552757263184     
   7.3200000000000001E-002    -14.051535606384277     
   7.3499999999999996E-002    -12.198992729187012     
   7.3800000000000004E-002    -9.9845237731933594     
   7.4099999999999999E-002    -7.4703927040100098     
   7.4400000000000008E-002    -4.7316088676452637     
   7.4700000000000003E-002    -1.8539313077926636     
   7.5000000000000011E-002     1.0665292739868164     
   7.5299999999999992E-002     3.9293739795684814     
   7.5600000000000001E-002     6.6329045295715332     
   7.5900000000000009E-002     9.0749683380126953     
   7.6200000000000004E-002     11.161975860595703     
   7.6499999999999999E-002     12.812924385070801     
   7.6800000000000007E-002     13.962679862976074     
   7.7099999999999988E-002     14.567227363586426     
   7.7399999999999997E-002     14.604872703552246     
   7.7700000000000005E-002     14.081076622009277     
   7.8000000000000014E-002     13.027361869812012     
   7.8299999999999995E-002     11.497570037841797     
   7.8600000000000003E-002     9.5711154937744141     
   7.8900000000000012E-002     7.3450708389282227     
   7.9199999999999993E-002     4.9284877777099609     
   7.9500000000000001E-002     2.4407305717468262     
   7.9800000000000010E-002     1.7061159014701843E-003
   8.0100000000000018E-002    -2.2731606960296631     
   8.0399999999999999E-002    -4.2787694931030273     
   8.0700000000000008E-002    -5.9279866218566895     
   8.1000000000000003E-002    -7.1527299880981445     
   8.1299999999999997E-002    -7.9110331535339355     
   8.1600000000000006E-002    -8.1884021759033203     
   8.1900000000000014E-002    -7.9965262413024902     
   8.2199999999999995E-002    -7.3748378753662109     
   8.2500000000000004E-002    -6.3862104415893555     
   8.2799999999999999E-002    -5.1125178337097168     
   8.3100000000000007E-002    -3.6509025096893311     
   8.3400000000000002E-002    -2.1050317287445068     
   8.3700000000000011E-002   -0.57812881469726562     
   8.4000000000000005E-002    0.83196818828582764     
   8.4300000000000000E-002     2.0403606891632080     
   8.4599999999999995E-002     2.9812722206115723     
   8.4900000000000003E-002     3.6112947463989258     
   8.5199999999999998E-002     3.9118845462799072     
   8.5500000000000007E-002     3.8885047435760498     
   8.5800000000000001E-002     3.5700719356536865     
   8.6100000000000010E-002     3.0074515342712402     
   8.6399999999999991E-002     2.2646708488464355     
   8.6699999999999999E-002     1.4158017635345459     
   8.7000000000000008E-002    0.54010248184204102     
   8.7300000000000003E-002   -0.28785994648933411     
   8.7599999999999997E-002    -1.0014704465866089     
   8.7900000000000006E-002    -1.5471737384796143     
   8.8200000000000014E-002    -1.8887150287628174     
   8.8499999999999995E-002    -2.0076081752777100     
   8.8800000000000004E-002    -1.9061076641082764     
   8.9100000000000013E-002    -1.6032179594039917     
   8.9399999999999993E-002    -1.1329447031021118     
   8.9700000000000002E-002   -0.54212707281112671     
   9.0000000000000011E-002    0.11712883412837982     
   9.0299999999999991E-002    0.79027634859085083     
   9.0600000000000000E-002     1.4246642589569092     
   9.0900000000000009E-002     1.9757324457168579     
   9.1200000000000017E-002     2.4090883731842041     
   9.1499999999999998E-002     2.7020580768585205     
   9.1800000000000007E-002     2.8455791473388672     
   9.2100000000000001E-002     2.8440570831298828     
   9.2399999999999996E-002     2.7129518985748291     
   9.2700000000000005E-002     2.4764955043792725     
   9.3000000000000013E-002     2.1652646064758301     
   9.3300000000000008E-002     1.8127712011337280     
   9.3600000000000003E-002     1.4512110948562622     
   9.3899999999999997E-002     1.1082762479782104     
   9.4200000000000006E-002    0.80747336149215698     
   9.4500000000000001E-002    0.56413191556930542     
   9.4800000000000009E-002    0.38398760557174683     
   9.5100000000000004E-002    0.26642653346061707     
   9.5399999999999999E-002    0.20311614871025085     
   9.5699999999999993E-002    0.17943301796913147     
   9.6000000000000002E-002    0.17847035825252533     
   9.6300000000000011E-002    0.18180052936077118     
   9.6600000000000005E-002    0.17117589712142944     
   9.6900000000000000E-002    0.13083751499652863     
   9.7200000000000009E-002     5.0407130271196365E-002
   9.7499999999999989E-002    -7.6067365705966949E-002
   9.7799999999999998E-002   -0.25098165869712830     
   9.8100000000000007E-002   -0.47042858600616455     
   9.8400000000000015E-002   -0.72596931457519531     
   9.8699999999999996E-002    -1.0081543922424316     
   9.9000000000000005E-002    -1.3058753013610840     
   9.9300000000000013E-002    -1.6069840192794800     
   9.9599999999999994E-002    -1.9004836082458496     
   9.9900000000000003E-002    -2.1784105300903320     
  0.10020000000000001         -2.4342148303985596     
  0.10049999999999999         -2.6624143123626709     
  0.10080000000000000         -2.8611145019531250     
  0.10110000000000001         -3.0292429924011230     
  0.10140000000000000         -3.1657412052154541     
  0.10170000000000000         -3.2704544067382812     
  0.10200000000000001         -3.3437097072601318     
  0.10230000000000002         -3.3855721950531006     
  0.10260000000000000         -3.3962566852569580     
  0.10290000000000001         -3.3767790794372559     
  0.10320000000000000         -3.3296017646789551     
  0.10350000000000001         -3.2573921680450439     
  0.10380000000000000         -3.1631624698638916     
  0.10410000000000001         -3.0503950119018555     
  0.10440000000000001         -2.9222102165222168     
  0.10470000000000000         -2.7795422077178955     
  0.10500000000000000         -2.6220684051513672     
  0.10530000000000000         -2.4463977813720703     
  0.10560000000000000         -2.2470469474792480     
  0.10590000000000001         -2.0186717510223389     
  0.10620000000000000         -1.7545238733291626     
  0.10650000000000001         -1.4501233100891113     
  0.10679999999999999         -1.1044199466705322     
  0.10710000000000000        -0.71926385164260864     
  0.10740000000000001        -0.30222973227500916     
  0.10770000000000000         0.13608478009700775     
  0.10800000000000000         0.58340162038803101     
  0.10830000000000001          1.0267405509948730     
  0.10859999999999999          1.4572461843490601     
  0.10890000000000000          1.8709983825683594     
  0.10920000000000001          2.2714359760284424     
  0.10950000000000001          2.6695742607116699     
  0.10979999999999999          3.0821542739868164     
  0.11009999999999999          3.5302095413208008     
  0.11040000000000001          4.0337567329406738     
  0.11070000000000001          4.6077060699462891     
  0.11100000000000000          5.2578902244567871     
  0.11130000000000000          5.9763216972351074     
  0.11160000000000002          6.7406492233276367     
  0.11190000000000001          7.5151228904724121     
  0.11220000000000001          8.2525129318237305     
  0.11250000000000000          8.9001636505126953     
  0.11280000000000000          9.4079141616821289     
  0.11309999999999999          9.7332572937011719     
  0.11340000000000001          9.8485164642333984     
  0.11369999999999998          9.7473688125610352     
  0.11400000000000000          9.4441280364990234     
  0.11430000000000000          8.9732227325439453     
  0.11460000000000002          8.3829889297485352     
  0.11489999999999999          7.7297239303588867     
  0.11520000000000001          7.0669503211975098     
  0.11550000000000001          6.4314174652099609     
  0.11580000000000000          5.8367853164672852     
  0.11609999999999999          5.2654900550842285     
  0.11640000000000002          4.6643724441528320     
  0.11670000000000001          3.9470412731170654     
  0.11700000000000001          2.9993398189544678     
  0.11730000000000000          1.6940151453018188     
  0.11760000000000000         -9.4925075769424438E-002
  0.11789999999999999         -2.4725437164306641     
  0.11820000000000001         -5.5024051666259766     
  0.11850000000000001         -9.1910419464111328     
  0.11880000000000000         -13.470977783203125     
  0.11910000000000000         -18.195533752441406     
  0.11940000000000002         -23.141038894653320     
  0.11970000000000001         -28.010379791259766     
  0.12000000000000001         -32.457939147949219     
  0.12030000000000000         -36.111606597900391     
  0.12060000000000000         -38.603809356689453     
  0.12089999999999999         -39.608192443847656     
  0.12119999999999999         -38.869029998779297     
  0.12150000000000001         -36.233356475830078     
  0.12180000000000001         -31.670999526977539     
  0.12210000000000000         -25.284652709960938     
  0.12239999999999999         -17.315721511840820     
  0.12270000000000002         -8.1267280578613281     
  0.12300000000000001          1.8236044645309448     
  0.12330000000000001          12.003822326660156     
  0.12360000000000000          21.854543685913086     
  0.12390000000000000          30.830715179443359     
  0.12419999999999999          38.437835693359375     
  0.12450000000000001          44.268108367919922     
  0.12480000000000001          48.028228759765625     
  0.12509999999999999          49.559314727783203     
  0.12540000000000001          48.840545654296875     
  0.12570000000000003          45.984920501708984     
  0.12600000000000000          41.228195190429688     
  0.12630000000000002          34.905593872070312     
  0.12659999999999999          27.421543121337891     
  0.12690000000000001          19.222978591918945     
  0.12719999999999998          10.765703201293945     
  0.12750000000000000          2.4862980842590332     
  0.12780000000000002         -5.2213368415832520     
  0.12809999999999999         -12.029005050659180     
  0.12840000000000001         -17.684860229492188     
  0.12869999999999998         -22.020879745483398     
  0.12900000000000000         -24.958158493041992     
  0.12930000000000003         -26.497383117675781     
  0.12959999999999999         -26.713796615600586     
  0.12990000000000002         -25.747894287109375     
  0.13019999999999998         -23.783765792846680     
  0.13050000000000000         -21.040460586547852     
  0.13080000000000003         -17.753452301025391     
  0.13109999999999999         -14.156576156616211     
  0.13140000000000002         -10.474345207214355     
  0.13169999999999998         -6.9038162231445312     
  0.13200000000000001         -3.6070156097412109     
  0.13229999999999997        -0.71248471736907959     
  0.13260000000000000          1.6984229087829590     
  0.13290000000000002          3.5847609043121338     
  0.13319999999999999          4.9385681152343750     
  0.13350000000000001          5.7881360054016113     
  0.13380000000000003          6.1846036911010742     
  0.13410000000000000          6.1953682899475098     
  0.13440000000000002          5.8983492851257324     
  0.13469999999999999          5.3717079162597656     
  0.13500000000000001          4.6928882598876953     
  0.13529999999999998          3.9317584037780762     
  0.13560000000000000          3.1442611217498779     
  0.13590000000000002          2.3809244632720947     
  0.13619999999999999          1.6783572435379028     
  0.13650000000000001          1.0590831041336060     
  0.13680000000000003         0.54174363613128662     
  0.13710000000000000         0.13461127877235413     
  0.13740000000000002        -0.16393664479255676     
  0.13769999999999999        -0.35732269287109375     
  0.13800000000000001        -0.45645040273666382     
  0.13829999999999998        -0.47410514950752258     
  0.13860000000000000        -0.42528927326202393     
  0.13890000000000002        -0.32999318838119507     
  0.13919999999999999        -0.20264838635921478     
  0.13950000000000001         -6.1021208763122559E-002
  0.13979999999999998          7.8257910907268524E-002
  0.14010000000000000         0.20781604945659637     
  0.14040000000000002         0.31554406881332397     
  0.14069999999999999         0.39490553736686707     
  0.14100000000000001         0.44841584563255310     
  0.14130000000000004         0.47421070933341980     
  0.14160000000000000         0.47498348355293274     
  0.14189999999999997         0.45568600296974182     
  0.14219999999999999         0.42084163427352905     
  0.14250000000000002         0.37679421901702881     
  0.14279999999999998         0.32474750280380249     
  0.14310000000000000         0.26821982860565186     
  0.14339999999999997         0.21327334642410278     
  0.14369999999999999         0.15753045678138733     
  0.14400000000000002         0.10269165784120560     
  0.14429999999999998          5.3418956696987152E-002
  0.14460000000000001          6.7542912438511848E-003
  0.14490000000000003         -3.5637516528367996E-002
  0.14520000000000000         -7.0862397551536560E-002
  0.14550000000000002        -0.10008884966373444     
  0.14579999999999999        -0.12185193598270416     
  0.14610000000000001        -0.13709728419780731     
  0.14640000000000003        -0.14494079351425171     
  0.14670000000000000        -0.14410176873207092     
  0.14699999999999996        -0.13947728276252747     
  0.14729999999999999        -0.12974408268928528     
  0.14760000000000001        -0.11409121751785278     
  0.14789999999999998         -9.7681649029254913E-002
  0.14820000000000000         -7.9573847353458405E-002