  -1.4999999999999999E-002     0.0000000000000000     
  -1.4700000000000000E-002     0.0000000000000000     
  -1.4400000000000000E-002     0.0000000000000000     
  -1.4100000000000000E-002     0.0000000000000000     
  -1.3800000000000000E-002     0.0000000000000000     
  -1.3500000000000000E-002     0.0000000000000000     
  -1.3200000000000000E-002     0.0000000000000000     
  -1.2899999999999998E-002     0.0000000000000000     
  -1.2600000000000000E-002     0.0000000000000000     
  -1.2299999999999998E-002     0.0000000000000000     
  -1.2000000000000000E-002     0.0000000000000000     
  -1.1699999999999999E-002     0.0000000000000000     
  -1.1399999999999999E-002     0.0000000000000000     
  -1.1099999999999999E-002     0.0000000000000000     
  -1.0799999999999999E-002     0.0000000000000000     
  -1.0499999999999999E-002     0.0000000000000000     
  -1.0199999999999999E-002     0.0000000000000000     
  -9.8999999999999991E-003     0.0000000000000000     
  -9.5999999999999992E-003     0.0000000000000000     
  -9.2999999999999992E-003     0.0000000000000000     
  -8.9999999999999993E-003     0.0000000000000000     
  -8.6999999999999994E-003     0.0000000000000000     
  -8.3999999999999995E-003     0.0000000000000000     
  -8.0999999999999996E-003     0.0000000000000000     
  -7.7999999999999988E-003     0.0000000000000000     
  -7.4999999999999997E-003     0.0000000000000000     
  -7.1999999999999998E-003     0.0000000000000000     
  -6.8999999999999981E-003     0.0000000000000000     
  -6.5999999999999982E-003     0.0000000000000000     
  -6.3000000000000000E-003     0.0000000000000000     
  -6.0000000000000001E-003     0.0000000000000000     
  -5.6999999999999985E-003     0.0000000000000000     
  -5.3999999999999986E-003     0.0000000000000000     
  -5.1000000000000004E-003     0.0000000000000000     
  -4.7999999999999987E-003     0.0000000000000000     
  -4.5000000000000005E-003     0.0000000000000000     
  -4.1999999999999989E-003     0.0000000000000000     
  -3.8999999999999990E-003     0.0000000000000000     
  -3.5999999999999990E-003     0.0000000000000000     
  -3.2999999999999991E-003     0.0000000000000000     
  -2.9999999999999992E-003     0.0000000000000000     
  -2.6999999999999993E-003     0.0000000000000000     
  -2.3999999999999994E-003     0.0000000000000000     
  -2.0999999999999977E-003     0.0000000000000000     
  -1.7999999999999995E-003     0.0000000000000000     
  -1.4999999999999979E-003     0.0000000000000000     
  -1.1999999999999997E-003     0.0000000000000000     
  -8.9999999999999976E-004     0.0000000000000000     
  -5.9999999999999810E-004     0.0000000000000000     
  -2.9999999999999992E-004     0.0000000000000000     
   0.0000000000000000          0.0000000000000000     
   3.0000000000000165E-004     0.0000000000000000     
   5.9999999999999984E-004     0.0000000000000000     
   9.0000000000000149E-004     0.0000000000000000     
   1.2000000000000031E-003     0.0000000000000000     
   1.5000000000000013E-003     0.0000000000000000     
   1.8000000000000030E-003     0.0000000000000000     
   2.1000000000000012E-003    -6.9033707676344221E-039
   2.3999999999999994E-003     5.2356626941414120E-038
   2.7000000000000010E-003     1.6422524359147015E-038
   2.9999999999999992E-003    -3.2653102790804678E-038
   3.3000000000000008E-003     4.2765766304798276E-037
   3.6000000000000025E-003    -1.4011556657943747E-035
   3.9000000000000007E-003    -6.4719311458149219E-036
   4.2000000000000023E-003     1.5375007429204210E-035
   4.5000000000000005E-003    -4.0893808689608002E-034
   4.7999999999999987E-003     4.9907125000622840E-033
   5.1000000000000004E-003    -2.6013036835480193E-032
   5.4000000000000020E-003    -2.9059378650809018E-032
   5.7000000000000037E-003     1.4085982265518984E-030
   5.9999999999999984E-003    -1.0235931442885951E-029
   6.3000000000000000E-003     2.9037560272332205E-029
   6.6000000000000017E-003     9.8212284547204766E-029
   6.9000000000000034E-003    -1.3850278591969962E-027
   7.2000000000000015E-003     6.4859852660459173E-027
   7.5000000000000032E-003    -1.2493920058298344E-026
   7.8000000000000014E-003    -3.5058736062319378E-026
   8.0999999999999996E-003     3.8460082550974830E-025
   8.4000000000000012E-003    -1.7200979196586862E-024
   8.7000000000000029E-003     4.9770116155732107E-024
   9.0000000000000011E-003    -7.4164310099481659E-024
   9.2999999999999992E-003    -1.8398542265827536E-023
   9.6000000000000009E-003     1.9460430527885248E-022
   9.8999999999999991E-003    -8.7383260955294800E-022
   1.0200000000000001E-002     2.6783553613139876E-021
   1.0500000000000002E-002    -5.9693586099007038E-021
   1.0800000000000004E-002     1.0357871187591283E-020
   1.1099999999999999E-002    -2.3267272185446763E-020
   1.1400000000000000E-002     1.1324586896032611E-019
   1.1700000000000002E-002    -5.8272112756383403E-019
   1.2000000000000004E-002     2.2460973487515257E-018
   1.2300000000000002E-002    -5.8904466163033228E-018
   1.2600000000000000E-002     5.9853597275491093E-018
   1.2900000000000002E-002     3.7398635117328491E-017
   1.3200000000000000E-002    -2.6766468247301192E-016
   1.3500000000000002E-002     8.4688857137919481E-016
   1.3800000000000003E-002     2.9778165568750054E-016
   1.4100000000000001E-002    -2.4044748028734575E-014
   1.4400000000000000E-002     1.9545153281232225E-013
   1.4700000000000001E-002    -1.0777621537190170E-012
   1.4999999999999999E-002     4.6004944707301883E-012
   1.5300000000000001E-002    -1.5208024291283124E-011
   1.5600000000000003E-002     3.5198390799977440E-011
   1.5899999999999997E-002    -3.0782432690286697E-011
   1.6199999999999999E-002    -1.6433006885647625E-010
   1.6500000000000001E-002     8.9583432608007364E-010
   1.6800000000000002E-002    -2.0091939463098544E-009
   1.7100000000000004E-002     5.1013272046095125E-010
   1.7400000000000006E-002     1.0198691225091900E-008
   1.7700000000000000E-002    -2.5519896594525728E-008
   1.8000000000000002E-002    -1.0088249365039814E-009
   1.8300000000000004E-002     1.1040204784841779E-007
   1.8600000000000005E-002    -1.1615780706934213E-007
   1.8900000000000000E-002    -3.2132511073397907E-007
   1.9200000000000002E-002     4.7155038751755024E-007
   1.9500000000000003E-002     9.9935821174602198E-007
   1.9799999999999998E-002    -1.0876921251428952E-006
   2.0100000000000000E-002    -3.6991843611194287E-006
   2.0400000000000001E-002     9.7337191106375631E-007
   2.0700000000000003E-002     1.9850306266609480E-005
   2.0999999999999998E-002     5.2381808484621914E-005
   2.1299999999999999E-002     9.4267963412646844E-005
   2.1600000000000001E-002     1.4674326801333067E-004
   2.1900000000000003E-002     2.2103251908586752E-004
   2.2200000000000004E-002     3.3834464850570484E-004
   2.2500000000000006E-002     5.2646436372886726E-004
   2.2800000000000001E-002     8.1734130380177114E-004
   2.3100000000000002E-002     1.2523190349958691E-003
   2.3400000000000004E-002     1.8891663839221209E-003
   2.3699999999999999E-002     2.8082011447605748E-003
   2.4000000000000000E-002     4.1192119231326929E-003
   2.4300000000000002E-002     5.9648734109777335E-003
   2.4599999999999997E-002     8.5224165887992642E-003
   2.4900000000000005E-002     1.2005458411141146E-002
   2.5200000000000000E-002     1.6665924641471097E-002
   2.5499999999999995E-002     2.2793752848883519E-002
   2.5800000000000003E-002     3.0703572570029314E-002
   2.6099999999999998E-002     4.0713698652967034E-002
   2.6400000000000007E-002     5.3121302526516256E-002
   2.6700000000000002E-002     6.8162157942616375E-002
   2.6999999999999996E-002     8.5956924027443371E-002
   2.7300000000000005E-002    0.10644492738218192     
   2.7600000000000000E-002    0.12930521088971147     
   2.7900000000000008E-002    0.15387985945261562     
   2.8200000000000003E-002    0.17909595597999228     
   2.8499999999999998E-002    0.20339836829844238     
   2.8800000000000006E-002    0.22471686824639292     
   2.9100000000000001E-002    0.24046386791803620     
   2.9400000000000003E-002    0.24758780695449900     
   2.9700000000000004E-002    0.24268125511128158     
   3.0000000000000006E-002    0.22217447773797794     
   3.0300000000000001E-002    0.18261599235825088     
   3.0600000000000002E-002    0.12099721756554405     
   3.0900000000000004E-002     3.5163327827999469E-002
   3.1199999999999999E-002    -7.5820582508776102E-002
   3.1500000000000007E-002   -0.21124318157321742     
   3.1800000000000002E-002   -0.36843444378127010     
   3.2099999999999997E-002   -0.54254191488301728     
   3.2400000000000005E-002   -0.72644701452895788     
   3.2700000000000000E-002   -0.91094563606195322     
   3.3000000000000002E-002    -1.0850785423438225     
   3.3300000000000003E-002    -1.2367250225241975     
   3.3599999999999998E-002    -1.3533943294829527     
   3.3900000000000000E-002    -1.4231090628956338     
   3.4200000000000001E-002    -1.4354852490840955     
   3.4500000000000003E-002    -1.3826490005350820     
   3.4799999999999998E-002    -1.2601751882817638     
   3.5099999999999999E-002    -1.0677929924348142     
   3.5400000000000001E-002   -0.80962012243159265     
   3.5699999999999996E-002   -0.49437654082391180     
   3.6000000000000004E-002   -0.13488109303956897     
   3.6299999999999999E-002    0.25260845087038941     
   3.6600000000000008E-002    0.64943982739711359     
   3.6900000000000002E-002     1.0358397111049911     
   3.7199999999999997E-002     1.3923200712116000     
   3.7500000000000006E-002     1.7009471715533238     
   3.7800000000000000E-002     1.9467349635887317     
   3.8100000000000009E-002     2.1185532666456623     
   3.8400000000000004E-002     2.2097196011167881     
   3.8699999999999998E-002     2.2184723003444873     
   3.9000000000000007E-002     2.1476197184455117     
   3.9300000000000002E-002     2.0042759580742597     
   3.9600000000000003E-002     1.7990650999805240     
   3.9900000000000005E-002     1.5450702528629421     
   4.0200000000000000E-002     1.2569277598206554     
   4.0500000000000001E-002    0.94960248435610950     
   4.0800000000000003E-002    0.63742421602248100     
   4.1100000000000005E-002    0.33335741723984302     
   4.1399999999999999E-002     4.8210361855138828E-002
   4.1700000000000008E-002   -0.20954944715412260     
   4.2000000000000003E-002   -0.43393322962902658     
   4.2299999999999997E-002   -0.62163364342582028     
   4.2600000000000006E-002   -0.77133254853587729     
   4.2900000000000001E-002   -0.88377971694037072     
   4.3200000000000002E-002   -0.96105468499464308     
   4.3500000000000004E-002    -1.0061679997268982     
   4.3799999999999999E-002    -1.0228375549513231     
   4.4100000000000000E-002    -1.0147954149606306     
   4.4400000000000002E-002   -0.98586980236891009     
   4.4700000000000004E-002   -0.93962434697965946     
   4.4999999999999998E-002   -0.87918763447458659     
   4.5300000000000000E-002   -0.80762097824324286     
   4.5600000000000002E-002   -0.72762509087671745     
   4.5899999999999996E-002   -0.64183956537010545     
   4.6200000000000005E-002   -0.55317455367587343     
   4.6500000000000000E-002   -0.46452325129059346     
   4.6799999999999994E-002   -0.37932536801022820     
   4.7100000000000003E-002   -0.30135564845919838     
   4.7399999999999998E-002   -0.23468894182388045     
   4.7700000000000006E-002   -0.18400345104709270     
   4.8000000000000001E-002   -0.15370667543061067     
   4.8300000000000010E-002   -0.14812907148137633     
   4.8600000000000004E-002   -0.17087587210320176     
   4.8899999999999999E-002   -0.22407115547615586     
   4.9200000000000008E-002   -0.30842130879976715     
   4.9500000000000002E-002   -0.42199462481333150     
   4.9800000000000011E-002   -0.56023191359274094     
   5.0100000000000006E-002   -0.71565171250999171     
   5.0400000000000000E-002   -0.87744150264434140     
   5.0700000000000009E-002    -1.0323538147937867     
   5.1000000000000004E-002    -1.1647044828785553     
   5.1299999999999998E-002    -1.2576766941752950     
   5.1600000000000007E-002    -1.2946722217107052     
   5.1900000000000002E-002    -1.2603270317330413     
   5.2200000000000010E-002    -1.1426288171684220     
   5.2500000000000005E-002   -0.93408509965656705     
   5.2800000000000000E-002   -0.63307723574013863     
   5.3099999999999994E-002   -0.24487292879471312     
   5.3400000000000003E-002    0.21825276277764338     
   5.3699999999999998E-002    0.73694766657511934     
   5.4000000000000006E-002     1.2859682991278589     
   5.4300000000000001E-002     1.8357467119195263     
   5.4599999999999996E-002     2.3540345492037744     
   5.4900000000000004E-002     2.8088295635477181     
   5.5199999999999999E-002     3.1703547613319216     
   5.5499999999999994E-002     3.4135748153576913     
   5.5800000000000002E-002     3.5204193460927655     
   5.6099999999999997E-002     3.4808172923102489     
   5.6400000000000006E-002     3.2939237545327416     
   5.6700000000000000E-002     2.9678417604822727     
   5.6999999999999995E-002     2.5189169628995955     
   5.7300000000000004E-002     1.9707254627661328     
   5.7599999999999998E-002     1.3517366633016970     
   5.7900000000000007E-002    0.69334597106109741     
   5.8200000000000002E-002     2.7776480653878721E-002
   5.8499999999999996E-002   -0.61444924649865840     
   5.8800000000000005E-002    -1.2061099361189420     
   5.9100000000000000E-002    -1.7248790229966744     
   5.9400000000000008E-002    -2.1544670445863261     
   5.9700000000000003E-002    -2.4845491523224723     
   6.0000000000000012E-002    -2.7114494507325730     
   6.0300000000000006E-002    -2.8368685084313086     
   6.0600000000000001E-002    -2.8674774332734501     
   6.0900000000000010E-002    -2.8139992047226912     
   6.1200000000000004E-002    -2.6895685216168914     
   6.1500000000000013E-002    -2.5092878721390832     
   6.1800000000000008E-002    -2.2886587906152869     
   6.2100000000000002E-002    -2.0429204554027436     
   6.2399999999999997E-002    -1.7863612607429999     
   6.2700000000000006E-002    -1.5314536329474890     
   6.3000000000000000E-002    -1.2888373948716421     
   6.3300000000000009E-002    -1.0664486150461236     
   6.3600000000000004E-002   -0.86950901734310193     
   6.3899999999999998E-002   -0.70029487438567983     
   6.4199999999999993E-002   -0.55775217902075269     
   6.4500000000000002E-002   -0.43783524765988524     
   6.4800000000000010E-002   -0.33333903916042296     
   6.5100000000000005E-002   -0.23440030183582161     
   6.5400000000000000E-002   -0.12923850904722123     
   6.5700000000000008E-002    -4.8155208617753908E-003
   6.5999999999999989E-002    0.15148999486238957     
   6.6299999999999998E-002    0.35084645243005852     
   6.6600000000000006E-002    0.60107909315608765     
   6.6900000000000001E-002    0.90548959227544756     
   6.7199999999999996E-002     1.2616076792300888     
   6.7500000000000004E-002     1.6602226074704447     
   6.7800000000000013E-002     2.0853022403723287     
   6.8099999999999994E-002     2.5144558165625028     
   6.8400000000000002E-002     2.9200982086314440     
   6.8700000000000011E-002     3.2715328294266897     
   6.8999999999999992E-002     3.5373185146491295     
   6.9300000000000000E-002     3.6880194265594923     
   6.9600000000000009E-002     3.6993477252839000     
   6.9900000000000004E-002     3.5543197214383042     
   7.0199999999999999E-002     3.2457833693713383     
   7.0500000000000007E-002     2.7776308937801346     
   7.0800000000000016E-002     2.1648957580990356     
   7.1099999999999997E-002     1.4336776146513550     
   7.1400000000000005E-002    0.61869989943806480     
   7.1700000000000000E-002   -0.23858987316522562     
   7.1999999999999995E-002    -1.0933848822719625     
   7.2300000000000003E-002    -1.9010597993964211     
   7.2600000000000012E-002    -2.6202673818579569     
   7.2900000000000006E-002    -3.2163276857830709     
   7.3200000000000001E-002    -3.6632908662102608     
   7.3499999999999996E-002    -3.9456034339688273     
   7.3800000000000004E-002    -4.0586911737795504     
   7.4099999999999999E-002    -4.0084517060692946     
   7.4400000000000008E-002    -3.8097396302195250     
   7.4700000000000003E-002    -3.4845022032846487     
   7.5000000000000011E-002    -3.0592984706441086     
   7.5299999999999992E-002    -2.5621841201946793     
   7.5600000000000001E-002    -2.0206859183773389     
   7.5900000000000009E-002    -1.4590579543137814     
   7.6200000000000004E-002   -0.89703593715324281     
   7.6499999999999999E-002   -0.34913237942742370     
   7.6800000000000007E-002    0.17583733854787642     
   7.7099999999999988E-002    0.67338925507500491     
   7.7399999999999997E-002     1.1427979359387876     
   7.7700000000000005E-002     1.5848161110395864     
   7.8000000000000014E-002     2.0000460459420140     
   7.8299999999999995E-002     2.3874444052142110     
   7.8600000000000003E-002     2.7423443522231707     
   7.8900000000000012E-002     3.0564397441107332     
   7.9199999999999993E-002     3.3171718495305953     
   7.9500000000000001E-002     3.5085973793773491     
   7.9800000000000010E-002     3.6131277582050529     
   8.0100000000000018E-002     3.6128564334508013     
   8.0399999999999999E-002     3.4924491086334228     
   8.0700000000000008E-002     3.2409582805016157     
   8.1000000000000003E-002     2.8541052591339380     
   8.1299999999999997E-002     2.3361695565527967     
   8.1600000000000006E-002     1.7002722682778924     
   8.1900000000000014E-002    0.96904016116670277     
   8.2199999999999995E-002    0.17322446353105647     
   8.2500000000000004E-002   -0.65013109171365535     
   8.2799999999999999E-002    -1.4597406521993221     
   8.3100000000000007E-002    -2.2138451979102740     
   8.3400000000000002E-002    -2.8726334769247757     
   8.3700000000000011E-002    -3.4015337084546502     
   8.4000000000000005E-002    -3.7741424163516228     
   8.4300000000000000E-002    -3.9734526361352920     
   8.4599999999999995E-002    -3.9935245417059519     
   8.4900000000000003E-002    -3.8390588722078860     
   8.5199999999999998E-002    -3.5249446975504100     
   8.5500000000000007E-002    -3.0748562413293712     
   8.5800000000000001E-002    -2.5184891485751493     
   8.6100000000000010E-002    -1.8900558469192248     
   8.6399999999999991E-002    -1.2253444305903194     
   8.6699999999999999E-002   -0.55943249835583586     
   8.7000000000000008E-002     7.4629359694424746E-002
   8.7300000000000003E-002    0.64801458661727551     
   8.7599999999999997E-002     1.1364253487308531     
   8.7900000000000006E-002     1.5209062925666714     
   8.8200000000000014E-002     1.7884453756070471     
   8.8499999999999995E-002     1.9309899476357231     
   8.8800000000000004E-002     1.9468927499715249     
   8.9100000000000013E-002     1.8395208511995946     
   8.9399999999999993E-002     1.6177059553486011     
   8.9700000000000002E-002     1.2962851146455261     
   9.0000000000000011E-002    0.89469571067284903     
   9.0299999999999991E-002    0.43829839004161286     
   9.0600000000000000E-002    -4.3867731210181837E-002
   9.0900000000000009E-002   -0.51959360787805053     
   9.1200000000000017E-002   -0.95438907249665306     
   9.1499999999999998E-002    -1.3154292297992569     
   9.1800000000000007E-002    -1.5717843435245769     
   9.2100000000000001E-002    -1.6985403139381248     
   9.2399999999999996E-002    -1.6789646244112149     
   9.2700000000000005E-002    -1.5057674344407168     
   9.3000000000000013E-002    -1.1842530092999293     
   9.3300000000000008E-002   -0.73125699649032327     
   9.3600000000000003E-002   -0.17566527812528143     
   9.3899999999999997E-002    0.44321889863239505     
   9.4200000000000006E-002     1.0792283444393327     
   9.4500000000000001E-002     1.6812540059627352     
   9.4800000000000009E-002     2.1985239960340408     
   9.5100000000000004E-002     2.5844748627643241     
   9.5399999999999999E-002     2.8001333298361146     
   9.5699999999999993E-002     2.8189353270642101     
   9.6000000000000002E-002     2.6283173193775937     
   9.6300000000000011E-002     2.2318026122898509     
   9.6600000000000005E-002     1.6495819059539243     
   9.6900000000000000E-002    0.91648096641629451     
   9.7200000000000009E-002     8.0969886259902424E-002
   9.7499999999999989E-002   -0.79876871261125615     
   9.7799999999999998E-002    -1.6591277468068526     
   9.8100000000000007E-002    -2.4349890406687109     
   9.8400000000000015E-002    -3.0656949573318428     
   9.8699999999999996E-002    -3.4987977791567886     
   9.9000000000000005E-002    -3.6945043033512661     
   9.9300000000000013E-002    -3.6298017321838358     
   9.9599999999999994E-002    -3.2993935133924452     
   9.9900000000000003E-002    -2.7179988035162168     
  0.10020000000000001         -1.9188895991441406     
  0.10049999999999999        -0.95181821688692025     
  0.10080000000000000         0.11909791679141613     
  0.10110000000000001          1.2217402858174999     
  0.10140000000000000          2.2796936124123661     
  0.10170000000000000          3.2189299161094453     
  0.10200000000000001          3.9737038901942583     
  0.10230000000000002          4.4906756164287458     
  0.10260000000000000          4.7348498113701680     
  0.10290000000000001          4.6909119646115585     
  0.10320000000000000          4.3649622320641583     
  0.10350000000000001          3.7843472308201953     
  0.10380000000000000          2.9942743517860251     
  0.10410000000000001          2.0550476003480096     
  0.10440000000000001          1.0362357826620823     
  0.10470000000000000          1.0787123597507886E-002
  0.10500000000000000        -0.95034731528886240     
  0.10530000000000000         -1.7844740126042069     
  0.10560000000000000         -2.4417656341553879     
  0.10590000000000001         -2.8884394342298094     
  0.10620000000000000         -3.1092479156602337     
  0.10650000000000001         -3.1071744084489268     
  0.10679999999999999         -2.9018984292687549     
  0.10710000000000000         -2.5279101424725710     
  0.10740000000000001         -2.0290433693530332     
  0.10770000000000000         -1.4550229416308635     
  0.10800000000000000        -0.85633965535655765     
  0.10830000000000001        -0.27917886898914190     
  0.10859999999999999         0.23694730222644855     
  0.10890000000000000         0.66384403452486396     
  0.10920000000000001         0.98437097817454955     
  0.10950000000000001          1.1931979571831945     
  0.10979999999999999          1.2963272671551849     
  0.11009999999999999          1.3073027220281261     
  0.11040000000000001          1.2463941428082421     
  0.11070000000000001          1.1357577625302149     
  0.11100000000000000         0.99669595226232133     
  0.11130000000000000         0.84786362895457401     
  0.11160000000000002         0.70179927685417809     
  0.11190000000000001         0.56505066292747586     
  0.11220000000000001         0.43777969131641115     
  0.11250000000000000         0.31470576237534242     
  0.11280000000000000         0.18757757890585136     
  0.11309999999999999          4.6840090866226536E-002
  0.11340000000000001        -0.11573507113755266     
  0.11369999999999998        -0.30391676662299894     
  0.11400000000000000        -0.51642000699284019     
  0.11430000000000000        -0.74522058931520618     
  0.11460000000000002        -0.97563900077514631     
  0.11489999999999999         -1.1886841402209711     
  0.11520000000000001         -1.3617387686053632     
  0.11550000000000001         -1.4728269000940699     
  0.11580000000000000         -1.5033690635026389     
  0.11609999999999999         -1.4405212867883925     
  0.11640000000000002         -1.2813992708324449     
  0.11670000000000001         -1.0326350850986739     
  0.11700000000000001        -0.71204880049071928     
  0.11730000000000000        -0.34748135610637654     
  0.11760000000000000          2.6640526069102499E-002
  0.11789999999999999         0.37079576490712185     
  0.11820000000000001         0.64633629035619578     
  0.11850000000000001         0.81831696819801003     
  0.11880000000000000         0.85930836718251236     
  0.11910000000000000         0.75349865510887781     
  0.11940000000000002         0.49674098303506398     
  0.11970000000000001          9.8461671379753923E-002
  0.12000000000000001        -0.41988859615332075     
  0.12030000000000000         -1.0273843214514322     
  0.12060000000000000         -1.6856302875016667     
  0.12089999999999999         -2.3532780237831901     
  0.12119999999999999         -2.9890426402512986     
  0.12150000000000001         -3.5547458871708670     
  0.12180000000000001         -4.0186597590512463     
  0.12210000000000000         -4.3560539943620995     
  0.12239999999999999         -4.5504268313918601     
  0.12270000000000002         -4.5937996541758537     
  0.12300000000000001         -4.4845029476914249     
  0.12330000000000001         -4.2273844928738953     
  0.12360000000000000         -3.8314730521850890     
  0.12390000000000000         -3.3084442631772575     
  0.12419999999999999         -2.6728402339147310     
  0.12450000000000001         -1.9390255895127737     
  0.12480000000000001         -1.1228585693402238     
  0.12509999999999999        -0.24024867252564874     
  0.12540000000000001         0.69321872608804114     
  0.12570000000000003          1.6606349614404081     
  0.12600000000000000          2.6460295628411217     
  0.12630000000000002          3.6324430069072093     
  0.12659999999999999          4.6028575788239152     
  0.12690000000000001          5.5414616996542634     
  0.12719999999999998          6.4316710153506165     
  0.12750000000000000          7.2585266482245459     
  0.12780000000000002          8.0072734606116853     
  0.12809999999999999          8.6630159638276041     
  0.12840000000000001          9.2119523266069336     
  0.12869999999999998          9.6386789548164415     
  0.12900000000000000          9.9274745904331212     
  0.12930000000000003          10.061033419922637     
  0.12959999999999999          10.020483310042152     
  0.12990000000000002          9.7872791373578707     
  0.13019999999999998          9.3420770913035085     
  0.13050000000000000          8.6681836699711710     
  0.13080000000000003          7.7530709057218274     
  0.13109999999999999          6.5901576523753196     
  0.13140000000000002          5.1823771221410269     
  0.13169999999999998          3.5426648137897416     
  0.13200000000000001          1.6976736458210553     
  0.13229999999999997        -0.31396690184227793     
  0.13260000000000000         -2.4401824265341645     
  0.13290000000000002         -4.6170463554126826     
  0.13319999999999999         -6.7726771550741489     
  0.13350000000000001         -8.8284227071357577     
  0.13380000000000003         -10.705756455541916     
  0.13410000000000000         -12.328256481277208     
  0.13440000000000002         -13.627811375385193     
  0.13469999999999999         -14.547780788460784     
  0.13500000000000001         -15.046230276217500     
  0.13529999999999998         -15.099673820928331     
  0.13560000000000000         -14.702290740574597     
  0.13590000000000002         -13.867530042745727     
  0.13619999999999999         -12.626838687491698     
  0.13650000000000001         -11.027041615039082     
  0.13680000000000003         -9.1292679083908617     
  0.13710000000000000         -7.0041916048107140     
  0.13740000000000002         -4.7300332204301156     
  0.13769999999999999         -2.3894393206249731     
  0.13800000000000001         -6.4733960700898763E-002
  0.13829999999999998          2.1625222739063616     
  0.13860000000000000          4.2159665819482655     
  0.13890000000000002          6.0268160703781462     
  0.13919999999999999          7.5343979524331530     
  0.13950000000000001          8.6907695765278277     
  0.13979999999999998          9.4598556478429714     
  0.14010000000000000          9.8206253210287002     
  0.14040000000000002          9.7686936914880107     
  0.14069999999999999          9.3144911072186716     
  0.14100000000000001          8.4873105502870132     
  0.14130000000000004          7.3318082033525371     
  0.14160000000000000          5.9074252900501776     
  0.14189999999999997          4.2877499792681846     
  0.14219999999999999          2.5549186870442639     
  0.14250000000000002         0.79820408860014425     
  0.14279999999999998        -0.89168208563184459     
  0.14310000000000000         -2.4271466992027513     
  0.14339999999999997         -3.7271898602364075     
  0.14369999999999999         -4.7243508433991508     
  0.14400000000000002         -5.3663232687312927     
  0.14429999999999998         -5.6200577174056008     
  0.14460000000000001         -5.4747789903084723     
  0.14490000000000003         -4.9411470736780032     
  0.14520000000000000         -4.0529034253149376     
  0.14550000000000002         -2.8639062342360972     
  0.14579999999999999         -1.4457562365773668     
  0.14610000000000001         0.11576312492084995     
  0.14640000000000003          1.7264325173088579     
  0.14670000000000000          3.2878603314834010     
  0.14699999999999996          4.7040492958027755     
  0.14729999999999999          5.8873007753085460     
  0.14760000000000001          6.7631274744458381     
  0.14789999999999998          7.2759203099343210     
  0.14820000000000000          7.3917908029893056     