  -1.4999999999999999E-002     0.0000000000000000     
  -1.4700000000000000E-002     0.0000000000000000     
  -1.4400000000000000E-002     0.0000000000000000     
  -1.4100000000000000E-002     0.0000000000000000     
  -1.3800000000000000E-002     0.0000000000000000     
  -1.3500000000000000E-002     0.0000000000000000     
  -1.3200000000000000E-002     0.0000000000000000     
  -1.2899999999999998E-002     0.0000000000000000     
  -1.2600000000000000E-002     0.0000000000000000     
  -1.2299999999999998E-002     0.0000000000000000     
  -1.2000000000000000E-002     0.0000000000000000     
  -1.1699999999999999E-002     0.0000000000000000     
  -1.1399999999999999E-002     0.0000000000000000     
  -1.1099999999999999E-002     0.0000000000000000     
  -1.0799999999999999E-002     0.0000000000000000     
  -1.0499999999999999E-002     0.0000000000000000     
  -1.0199999999999999E-002     0.0000000000000000     
  -9.8999999999999991E-003     0.0000000000000000     
  -9.5999999999999992E-003     0.0000000000000000     
  -9.2999999999999992E-003     0.0000000000000000     
  -8.9999999999999993E-003     0.0000000000000000     
  -8.6999999999999994E-003     0.0000000000000000     
  -8.3999999999999995E-003     0.0000000000000000     
  -8.0999999999999996E-003     0.0000000000000000     
  -7.7999999999999988E-003     0.0000000000000000     
  -7.4999999999999997E-003     0.0000000000000000     
  -7.1999999999999998E-003     0.0000000000000000     
  -6.8999999999999981E-003     0.0000000000000000     
  -6.5999999999999982E-003     0.0000000000000000     
  -6.3000000000000000E-003     0.0000000000000000     
  -6.0000000000000001E-003     0.0000000000000000     
  -5.6999999999999985E-003     0.0000000000000000     
  -5.3999999999999986E-003     0.0000000000000000     
  -5.1000000000000004E-003     0.0000000000000000     
  -4.7999999999999987E-003     0.0000000000000000     
  -4.5000000000000005E-003     0.0000000000000000     
  -4.1999999999999989E-003     0.0000000000000000     
  -3.8999999999999990E-003     0.0000000000000000     
  -3.5999999999999990E-003     0.0000000000000000     
  -3.2999999999999991E-003     0.0000000000000000     
  -2.9999999999999992E-003     0.0000000000000000     
  -2.6999999999999993E-003     0.0000000000000000     
  -2.3999999999999994E-003     0.0000000000000000     
  -2.0999999999999977E-003     0.0000000000000000     
  -1.7999999999999995E-003     0.0000000000000000     
  -1.4999999999999979E-003     0.0000000000000000     
  -1.1999999999999997E-003     0.0000000000000000     
  -8.9999999999999976E-004     0.0000000000000000     
  -5.9999999999999810E-004     0.0000000000000000     
  -2.9999999999999992E-004     0.0000000000000000     
   0.0000000000000000          0.0000000000000000     
   3.0000000000000165E-004     0.0000000000000000     
   5.9999999999999984E-004     0.0000000000000000     
   9.0000000000000149E-004     0.0000000000000000     
   1.2000000000000031E-003     0.0000000000000000     
   1.5000000000000013E-003     0.0000000000000000     
   1.8000000000000030E-003     0.0000000000000000     
   2.1000000000000012E-003     0.0000000000000000     
   2.3999999999999994E-003     0.0000000000000000     
   2.7000000000000010E-003     0.0000000000000000     
   2.9999999999999992E-003     0.0000000000000000     
   3.3000000000000008E-003     0.0000000000000000     
   3.6000000000000025E-003     0.0000000000000000     
   3.9000000000000007E-003     0.0000000000000000     
   4.2000000000000023E-003     0.0000000000000000     
   4.5000000000000005E-003     0.0000000000000000     
   4.7999999999999987E-003     0.0000000000000000     
   5.1000000000000004E-003     0.0000000000000000     
   5.4000000000000020E-003     0.0000000000000000     
   5.7000000000000037E-003     0.0000000000000000     
   5.9999999999999984E-003     0.0000000000000000     
   6.3000000000000000E-003    -8.9845021754341025E-038
   6.6000000000000017E-003    -5.7993735902858664E-036
   6.9000000000000034E-003     7.6647216845496954E-035
   7.2000000000000015E-003     7.1939896771624265E-036
   7.5000000000000032E-003    -6.3715782371281587E-033
   7.8000000000000014E-003     5.0952551396674841E-032
   8.0999999999999996E-003    -9.6352382495403141E-032
   8.4000000000000012E-003    -1.6462102755208951E-030
   8.7000000000000029E-003     1.5321876645066444E-029
   9.0000000000000011E-003    -4.0843877010295604E-029
   9.2999999999999992E-003    -2.1584122786881077E-028
   9.6000000000000009E-003     2.3287121696659211E-027
   9.8999999999999991E-003    -8.0442655502703998E-027
   1.0200000000000001E-002    -4.1154046977787060E-027
   1.0500000000000002E-002     1.6949310979229791E-025
   1.0800000000000004E-002    -8.0405012804627029E-025
   1.1099999999999999E-002     1.4915909036591880E-024
   1.1400000000000000E-002     3.6237223042903338E-024
   1.1700000000000002E-002    -3.5156965385081560E-023
   1.2000000000000004E-002     1.1781405973567793E-022
   1.2300000000000002E-002    -1.5249879471271576E-022
   1.2600000000000000E-002    -4.6620155393354847E-022
   1.2900000000000002E-002     3.2069616987056362E-021
   1.3200000000000000E-002    -8.8623107100249658E-021
   1.3500000000000002E-002     1.0379076235107638E-020
   1.3800000000000003E-002     1.7180922513929609E-020
   1.4100000000000001E-002    -8.5584575927887751E-020
   1.4400000000000000E-002    -4.5420720978234127E-020
   1.4700000000000001E-002     1.7159241968152793E-018
   1.4999999999999999E-002    -9.4652679334110017E-018
   1.5300000000000001E-002     3.5046490942050385E-017
   1.5600000000000003E-002    -1.0615067759456789E-016
   1.5899999999999997E-002     3.1427111838575321E-016
   1.6199999999999999E-002    -1.1815806789642702E-015
   1.6500000000000001E-002     6.0334785601890291E-015
   1.6800000000000002E-002    -3.3452402506247695E-014
   1.7100000000000004E-002     1.7028490173233992E-013
   1.7400000000000006E-002    -7.4690807019807336E-013
   1.7700000000000000E-002     2.7188681871263974E-012
   1.8000000000000002E-002    -7.7200135835870645E-012
   1.8300000000000004E-002     1.4261085921722895E-011
   1.8600000000000005E-002    -4.7338900162474842E-013
   1.8900000000000000E-002    -1.0868544395697161E-010
   1.9200000000000002E-002     4.0487052890610363E-010
   1.9500000000000003E-002    -6.1108833688505521E-010
   1.9799999999999998E-002    -6.6792273734106857E-010
   2.0100000000000000E-002     4.8915305267476586E-009
   2.0400000000000001E-002    -6.2400010696191056E-009
   2.0700000000000003E-002    -1.2908230485278582E-008
   2.0999999999999998E-002     4.2235651877508107E-008
   2.1299999999999999E-002     1.6094384128183245E-008
   2.1600000000000001E-002    -1.7279117080302007E-007
   2.1900000000000003E-002    -4.5208274329787995E-008
   2.2200000000000004E-002     5.2904081600329345E-007
   2.2500000000000006E-002     2.9724024047969821E-007
   2.2800000000000001E-002    -1.3110773593146733E-006
   2.3100000000000002E-002    -1.4234930025586274E-006
   2.3400000000000004E-002     3.4772260433321649E-006
   2.3699999999999999E-002     1.1485772304425994E-005
   2.4000000000000000E-002     1.7047981983639546E-005
   2.4300000000000002E-002     2.0952151531963923E-005
   2.4599999999999997E-002     3.2648004308806163E-005
   2.4900000000000005E-002     5.9173221098193611E-005
   2.5200000000000000E-002     9.8114128517186750E-005
   2.5499999999999995E-002     1.4767887857522650E-004
   2.5800000000000003E-002     2.1963842113212773E-004
   2.6099999999999998E-002     3.3473112001406943E-004
   2.6400000000000007E-002     5.0849149357023657E-004
   2.6700000000000002E-002     7.5285852410160795E-004
   2.6999999999999996E-002     1.0930301044890720E-003
   2.7300000000000005E-002     1.5728313398010174E-003
   2.7600000000000000E-002     2.2412527008778549E-003
   2.7900000000000008E-002     3.1452778558806183E-003
   2.8200000000000003E-002     4.3430799602269116E-003
   2.8499999999999998E-002     5.9146263296227519E-003
   2.8800000000000006E-002     7.9489033744434001E-003
   2.9100000000000001E-002     1.0526862362546185E-002
   2.9400000000000003E-002     1.3724100556181285E-002
   2.9700000000000004E-002     1.7618004861409187E-002
   3.0000000000000006E-002     2.2272634700048810E-002
   3.0300000000000001E-002     2.7709175855822332E-002
   3.0600000000000002E-002     3.3892147101373227E-002
   3.0900000000000004E-002     4.0731081906714373E-002
   3.1199999999999999E-002     4.8066400671973986E-002
   3.1500000000000007E-002     5.5642244781225703E-002
   3.1800000000000002E-002     6.3092261592691434E-002
   3.2099999999999997E-002     6.9952711857226291E-002
   3.2400000000000005E-002     7.5675716326573994E-002
   3.2700000000000000E-002     7.9638310795405065E-002
   3.3000000000000002E-002     8.1166310875255387E-002
   3.3300000000000003E-002     7.9585574836764206E-002
   3.3599999999999998E-002     7.4291818713582369E-002
   3.3900000000000000E-002     6.4800457448075388E-002
   3.4200000000000001E-002     5.0800632929652423E-002
   3.4500000000000003E-002     3.2224879345825519E-002
   3.4799999999999998E-002     9.3132271307397874E-003
   3.5099999999999999E-002    -1.7349272600330271E-002
   3.5400000000000001E-002    -4.6847412973097247E-002
   3.5699999999999996E-002    -7.7962588309761660E-002
   3.6000000000000004E-002   -0.10920136555896409     
   3.6299999999999999E-002   -0.13888316756183139     
   3.6600000000000008E-002   -0.16527049792603599     
   3.6900000000000002E-002   -0.18671223141010440     
   3.7199999999999997E-002   -0.20176896842876602     
   3.7500000000000006E-002   -0.20934458715226079     
   3.7800000000000000E-002   -0.20880600453737586     
   3.8100000000000009E-002   -0.20008655334657810     
   3.8400000000000004E-002   -0.18373405706407997     
   3.8699999999999998E-002   -0.16085988920400851     
   3.9000000000000007E-002   -0.13309972537689152     
   3.9300000000000002E-002   -0.10254021053263074     
   3.9600000000000003E-002    -7.1538760456444361E-002
   3.9900000000000005E-002    -4.2554403960350928E-002
   4.0200000000000000E-002    -1.7943434650197765E-002
   4.0500000000000001E-002     2.0281260442922555E-004
   4.0800000000000003E-002     1.0206127195960452E-002
   4.1100000000000005E-002     1.0961088130454932E-002
   4.1399999999999999E-002     2.0457783327910428E-003
   4.1700000000000008E-002    -1.6257925577911045E-002
   4.2000000000000003E-002    -4.2964315087360982E-002
   4.2299999999999997E-002    -7.6463598375004826E-002
   4.2600000000000006E-002   -0.11459347326437896     
   4.2900000000000001E-002   -0.15472904381771269     
   4.3200000000000002E-002   -0.19399301574062289     
   4.3500000000000004E-002   -0.22944313197123289     
   4.3799999999999999E-002   -0.25824748501007466     
   4.4100000000000000E-002   -0.27782660805570636     
   4.4400000000000002E-002   -0.28602013446156249     
   4.4700000000000004E-002   -0.28127253905879535     
   4.4999999999999998E-002   -0.26273229618712257     
   4.5300000000000000E-002   -0.23025820983094647     
   4.5600000000000002E-002   -0.18446514516693302     
   4.5899999999999996E-002   -0.12672818919976603     
   4.6200000000000005E-002    -5.9055597728503884E-002
   4.6500000000000000E-002     1.6067553885181995E-002
   4.6799999999999994E-002     9.5757665866532005E-002
   4.7100000000000003E-002    0.17699270288621927     
   4.7399999999999998E-002    0.25680583361474429     
   4.7700000000000006E-002    0.33237851712988942     
   4.8000000000000001E-002    0.40131018459659451     
   4.8300000000000010E-002    0.46169806143752012     
   4.8600000000000004E-002    0.51219353299685721     
   4.8899999999999999E-002    0.55206116672615835     
   4.9200000000000008E-002    0.58103952432918859     
   4.9500000000000002E-002    0.59942386570292072     
   4.9800000000000011E-002    0.60790828829859933     
   5.0100000000000006E-002    0.60732913786984000     
   5.0400000000000000E-002    0.59865810806208941     
   5.0700000000000009E-002    0.58281050583952876     
   5.1000000000000004E-002    0.56057959852253703     
   5.1299999999999998E-002    0.53259044407677436     
   5.1600000000000007E-002    0.49913493832516487     
   5.1900000000000002E-002    0.46026897805103317     
   5.2200000000000010E-002    0.41595269624789744     
   5.2500000000000005E-002    0.36604190995196006     
   5.2800000000000000E-002    0.31040845260862859     
   5.3099999999999994E-002    0.24911008391851652     
   5.3400000000000003E-002    0.18250280500880134     
   5.3699999999999998E-002    0.11140032845863246     
   5.4000000000000006E-002     3.7030530877105838E-002
   5.4300000000000001E-002    -3.8901502642335051E-002
   5.4599999999999996E-002   -0.11415787124418308     
   5.4900000000000004E-002   -0.18622872641227506     
   5.5199999999999999E-002   -0.25243736869351174     
   5.5499999999999994E-002   -0.31005800702235220     
   5.5800000000000002E-002   -0.35668647218086846     
   5.6099999999999997E-002   -0.39036543718426131     
   5.6400000000000006E-002   -0.40979306572123342     
   5.6700000000000000E-002   -0.41455644993836316     
   5.6999999999999995E-002   -0.40509992307447185     
   5.7300000000000004E-002   -0.38280715318132508     
   5.7599999999999998E-002   -0.34990770836071583     
   5.7900000000000007E-002   -0.30922229093926568     
   5.8200000000000002E-002   -0.26403617446738892     
   5.8499999999999996E-002   -0.21773180422246519     
   5.8800000000000005E-002   -0.17351735188610906     
   5.9100000000000000E-002   -0.13422620355282877     
   5.9400000000000008E-002   -0.10200414795180457     
   5.9700000000000003E-002    -7.8248031275191643E-002
   6.0000000000000012E-002    -6.3491355342033318E-002
   6.0300000000000006E-002    -5.7340957042509855E-002
   6.0600000000000001E-002    -5.8740700288041792E-002
   6.0900000000000010E-002    -6.6081332407462501E-002
   6.1200000000000004E-002    -7.7288812221025793E-002
   6.1500000000000013E-002    -9.0161230920028146E-002
   6.1800000000000008E-002   -0.10256604161290728     
   6.2100000000000002E-002   -0.11255267324822826     
   6.2399999999999997E-002   -0.11855636141456793     
   6.2700000000000006E-002   -0.11947512538587146     
   6.3000000000000000E-002   -0.11468333836368050     
   6.3300000000000009E-002   -0.10406993493384897     
   6.3600000000000004E-002    -8.7907110257690046E-002
   6.3899999999999998E-002    -6.6857325483005159E-002
   6.4199999999999993E-002    -4.1930615103441315E-002
   6.4500000000000002E-002    -1.4291523949092166E-002
   6.4800000000000010E-002     1.4650753764000934E-002
   6.5100000000000005E-002     4.3391561177001270E-002
   6.5400000000000000E-002     7.0397247104615257E-002
   6.5700000000000008E-002     9.3980123722744668E-002
   6.5999999999999989E-002    0.11240932728771424     
   6.6299999999999998E-002    0.12384033908029535     
   6.6600000000000006E-002    0.12634085671803286     
   6.6900000000000001E-002    0.11805240561891495     
   6.7199999999999996E-002     9.7152917949515416E-002
   6.7500000000000004E-002     6.1952913485787020E-002
   6.7800000000000013E-002     1.1146439328167168E-002
   6.8099999999999994E-002    -5.6052233982770372E-002
   6.8400000000000002E-002   -0.13967184990567283     
   6.8700000000000011E-002   -0.23875541199135419     
   6.8999999999999992E-002   -0.35131081181419699     
   6.9300000000000000E-002   -0.47405324386569347     
   6.9600000000000009E-002   -0.60238532754014606     
   6.9900000000000004E-002   -0.73057382343058563     
   7.0199999999999999E-002   -0.85182009500890032     
   7.0500000000000007E-002   -0.95867447751840018     
   7.0800000000000016E-002    -1.0434307359379638     
   7.1099999999999997E-002    -1.0985253491146025     
   7.1400000000000005E-002    -1.1172543202341529     
   7.1700000000000000E-002    -1.0941762314027557     
   7.1999999999999995E-002    -1.0256311143313468     
   7.2300000000000003E-002   -0.91023722936986573     
   7.2600000000000012E-002   -0.74902622597270607     
   7.2900000000000006E-002   -0.54555784521503270     
   7.3200000000000001E-002   -0.30590670648639140     
   7.3499999999999996E-002    -3.8491514641921132E-002
   7.3800000000000004E-002    0.24636273419337318     
   7.4099999999999999E-002    0.53700888181762441     
   7.4400000000000008E-002    0.82091133172231068     
   7.4700000000000003E-002     1.0852754762434493     
   7.5000000000000011E-002     1.3178389163168376     
   7.5299999999999992E-002     1.5073717404910383     
   7.5600000000000001E-002     1.6443362885055635     
   7.5900000000000009E-002     1.7214930666610755     
   7.6200000000000004E-002     1.7342676817449600     
   7.6499999999999999E-002     1.6810333010649856     
   7.6800000000000007E-002     1.5634236266126393     
   7.7099999999999988E-002     1.3864261218218417     
   7.7399999999999997E-002     1.1581149225484140     
   7.7700000000000005E-002    0.88928691035267349     
   7.8000000000000014E-002    0.59313977687505925     
   7.8299999999999995E-002    0.28448285984016941     
   7.8600000000000003E-002    -2.1284684371152718E-002
   7.8900000000000012E-002   -0.30903713399515631     
   7.9199999999999993E-002   -0.56474716174612194     
   7.9500000000000001E-002   -0.77657044358394067     
   7.9800000000000010E-002   -0.93572108119457909     
   8.0100000000000018E-002    -1.0369031696590874     
   8.0399999999999999E-002    -1.0786196393510536     
   8.0700000000000008E-002    -1.0631002730000461     
   8.1000000000000003E-002   -0.99595569950167828     
   8.1299999999999997E-002   -0.88559190795098175     
   8.1600000000000006E-002   -0.74237894015881878     
   8.1900000000000014E-002   -0.57751717810863212     
   8.2199999999999995E-002   -0.40199891555784362     
   8.2500000000000004E-002   -0.22584362511866551     
   8.2799999999999999E-002    -5.7347906103004220E-002
   8.3100000000000007E-002     9.7740884364408309E-002
   8.3400000000000002E-002    0.23620619511207441     
   8.3700000000000011E-002    0.35706542933283902     
   8.4000000000000005E-002    0.46140405501241943     
   8.4300000000000000E-002    0.55198481274219091     
   8.4599999999999995E-002    0.63238306142227252     
   8.4900000000000003E-002    0.70593512444416362     
   8.5199999999999998E-002    0.77518841927079407     
   8.5500000000000007E-002    0.84148646532756999     
   8.5800000000000001E-002    0.90447800433601344     
   8.6100000000000010E-002    0.96174971560374445     
   8.6399999999999991E-002     1.0088952615143043     
   8.6699999999999999E-002     1.0399341006735412     
   8.7000000000000008E-002     1.0478741169001395     
   8.7300000000000003E-002     1.0251756646374091     
   8.7599999999999997E-002    0.96444140179116644     
   8.7900000000000006E-002    0.85944334034574865     
   8.8200000000000014E-002    0.70583620903599709     
   8.8499999999999995E-002    0.50168631399086827     
   8.8800000000000004E-002    0.24807203782492504     
   8.9100000000000013E-002    -5.0564812612253540E-002
   8.9399999999999993E-002   -0.38621878978373125     
   8.9700000000000002E-002   -0.74759363096212095     
   9.0000000000000011E-002    -1.1205136976321235     
   9.0299999999999991E-002    -1.4883799077642941     
   9.0600000000000000E-002    -1.8330809955069896     
   9.0900000000000009E-002    -2.1359253050712468     
   9.1200000000000017E-002    -2.3786528634308937     
   9.1499999999999998E-002    -2.5446259839861796     
   9.1800000000000007E-002    -2.6197979724407361     
   9.2100000000000001E-002    -2.5936771391387765     
   9.2399999999999996E-002    -2.4601010909328664     
   9.2700000000000005E-002    -2.2177857374468033     
   9.3000000000000013E-002    -1.8705542084025666     
   9.3300000000000008E-002    -1.4275018922642246     
   9.3600000000000003E-002   -0.90277785583495529     
   9.3899999999999997E-002   -0.31491374929661831     
   9.4200000000000006E-002    0.31375689126824113     
   9.4500000000000001E-002    0.95812295215371190     
   9.4800000000000009E-002     1.5913929630459265     
   9.5100000000000004E-002     2.1862762141848506     
   9.5399999999999999E-002     2.7165310247303154     
   9.5699999999999993E-002     3.1579133792300240     
   9.6000000000000002E-002     3.4893887178329095     
   9.6300000000000011E-002     3.6943912682188795     
   9.6600000000000005E-002     3.7616281239264850     
   9.6900000000000000E-002     3.6857684047126895     
   9.7200000000000009E-002     3.4673539510926616     
   9.7499999999999989E-002     3.1128975281334306     
   9.7799999999999998E-002     2.6348994055972810     
   9.8100000000000007E-002     2.0509990084560528     
   9.8400000000000015E-002     1.3831463861222915     
   9.8699999999999996E-002    0.65654553988018982     
   9.9000000000000005E-002   -0.10155193755798564     
   9.9300000000000013E-002   -0.86264732945326372     
   9.9599999999999994E-002    -1.5983760917060437     
   9.9900000000000003E-002    -2.2817887724214430     
  0.10020000000000001         -2.8880999065578834     
  0.10049999999999999         -3.3953984966451429     
  0.10080000000000000         -3.7853853755558760     
  0.10110000000000001         -4.0442088953968778     
  0.10140000000000000         -4.1627461019514271     
  0.10170000000000000         -4.1363281118478028     
  0.10200000000000001         -3.9654163883171378     
  0.10230000000000002         -3.6559756273899637     
  0.10260000000000000         -3.2185590615197412     
  0.10290000000000001         -2.6681429254883824     
  0.10320000000000000         -2.0244135666640943     
  0.10350000000000001         -1.3109931269029005     
  0.10380000000000000        -0.55442486089872567     
  0.10410000000000001         0.21646486610691618     
  0.10440000000000001         0.97144022941725616     
  0.10470000000000000          1.6800629130793787     
  0.10500000000000000          2.3132357082027681     
  0.10530000000000000          2.8443476804250025     
  0.10560000000000000          3.2505810310795056     
  0.10590000000000001          3.5145619748746100     
  0.10620000000000000          3.6250510735238777     
  0.10650000000000001          3.5779913820674096     
  0.10679999999999999          3.3771909881468787     
  0.10710000000000000          3.0338847953509713     
  0.10740000000000001          2.5666290849828215     
  0.10770000000000000          2.0005391917013569     
  0.10800000000000000          1.3658377177275440     
  0.10830000000000001         0.69594064636768138     
  0.10859999999999999          2.5460144392722484E-002
  0.10890000000000000        -0.61137345295978562     
  0.10920000000000001         -1.1829369299249128     
  0.10950000000000001         -1.6623234572229606     
  0.10979999999999999         -2.0287302938910159     
  0.11009999999999999         -2.2686697350136811     
  0.11040000000000001         -2.3763773069067042     
  0.11070000000000001         -2.3538750477277830     
  0.11100000000000000         -2.2108010668820270     
  0.11130000000000000         -1.9634650020621294     
  0.11160000000000002         -1.6332235696246116     
  0.11190000000000001         -1.2449485097970623     
  0.11220000000000001        -0.82541694092225626     
  0.11250000000000000        -0.40098442201119511     
  0.11280000000000000          4.0770451695828491E-003
  0.11309999999999999         0.36900118167091733     
  0.11340000000000001         0.67789982234041979     
  0.11369999999999998         0.92057605723040226     
  0.11400000000000000          1.0929760101122810     
  0.11430000000000000          1.1965855899490094     
  0.11460000000000002          1.2377374082789032     
  0.11489999999999999          1.2267385506855959     
  0.11520000000000001          1.1760897218208584     
  0.11550000000000001          1.0988932126593411     
  0.11580000000000000          1.0072968944153438     
  0.11609999999999999         0.91095491194574407     
  0.11640000000000002         0.81623156754178794     
  0.11670000000000001         0.72555555561402585     
  0.11700000000000001         0.63730685432134493     
  0.11730000000000000         0.54644005900874149     
  0.11760000000000000         0.44546689649396498     
  0.11789999999999999         0.32587151621359212     
  0.11820000000000001         0.17958978632733569     
  0.11850000000000001          4.4969414945628117E-004
  0.11880000000000000        -0.21435620006895162     
  0.11910000000000000        -0.46340191492798111     
  0.11940000000000002        -0.74044253964629725     
  0.11970000000000001         -1.0342871731613386     
  0.12000000000000001         -1.3294386344795655     
  0.12030000000000000         -1.6072185642470629     
  0.12060000000000000         -1.8470838036814072     
  0.12089999999999999         -2.0280819951372919     
  0.12119999999999999         -2.1308851524001327     
  0.12150000000000001         -2.1395044194794224     
  0.12180000000000001         -2.0427431119550761     
  0.12210000000000000         -1.8355447720167817     
  0.12239999999999999         -1.5197450771808292     
  0.12270000000000002         -1.1044639293806391     
  0.12300000000000001        -0.60585073679734869     
  0.12330000000000001         -4.6410696195434920E-002
  0.12360000000000000         0.54604191648262912     
  0.12390000000000000          1.1401807059440552     
  0.12419999999999999          1.7029958828000353     
  0.12450000000000001          2.2018622232032143     
  0.12480000000000001          2.6066532098106023     
  0.12509999999999999          2.8917313722032532     
  0.12540000000000001          3.0379932302440977     
  0.12570000000000003          3.0340933700249195     
  0.12600000000000000          2.8772047637203713     
  0.12630000000000002          2.5735270344742673     
  0.12659999999999999          2.1381460921991504     
  0.12690000000000001          1.5940397851579107     
  0.12719999999999998         0.97059871858051494     
  0.12750000000000000         0.30194990143972511     
  0.12780000000000002        -0.37517801192412747     
  0.12809999999999999         -1.0237879102243745     
  0.12840000000000001         -1.6087666818975954     
  0.12869999999999998         -2.0990223456148414     
  0.12900000000000000         -2.4693818154900029     
  0.12930000000000003         -2.7015062801517615     
  0.12959999999999999         -2.7846962077288140     
  0.12990000000000002         -2.7167205876452840     
  0.13019999999999998         -2.5033460069165727     
  0.13050000000000000         -2.1572789278848461     
  0.13080000000000003         -1.6976107062926076     
  0.13109999999999999         -1.1489472371762020     
  0.13140000000000002        -0.53968366630990161     
  0.13169999999999998          9.9856242222120528E-002
  0.13200000000000001         0.73824545596756508     
  0.13229999999999997          1.3439086108157774     
  0.13260000000000000          1.8874687250599465     
  0.13290000000000002          2.3429035991769283     
  0.13319999999999999          2.6880770769192353     
  0.13350000000000001          2.9060666993203341     
  0.13380000000000003          2.9861320404301352     
  0.13410000000000000          2.9243716834051980     
  0.13440000000000002          2.7239919318467116     
  0.13469999999999999          2.3949987968251207     
  0.13500000000000001          1.9539593217513556     
  0.13529999999999998          1.4231986916745427     
  0.13560000000000000         0.82924122679567702     
  0.13590000000000002         0.20115961458931664     
  0.13619999999999999        -0.43112757185053141     
  0.13650000000000001         -1.0383807290160512     
  0.13680000000000003         -1.5942965971054002     
  0.13710000000000000         -2.0774429435800137     
  0.13740000000000002         -2.4717218112865851     
  0.13769999999999999         -2.7669421846700502     
  0.13800000000000001         -2.9597780713573059     
  0.13829999999999998         -3.0534105229370141     
  0.13860000000000000         -3.0564528041245325     
  0.13890000000000002         -2.9818838341744680     
  0.13919999999999999         -2.8460036003914411     
  0.13950000000000001         -2.6672050406495629     
  0.13979999999999998         -2.4641386483699961     
  0.14010000000000000         -2.2539447868402078     
  0.14040000000000002         -2.0512262040708151     
  0.14069999999999999         -1.8669694426164725     
  0.14100000000000001         -1.7070242294473132     
  0.14130000000000004         -1.5715814068094005     
  0.14160000000000000         -1.4547986880923318     
  0.14189999999999997         -1.3448695886228990     
  0.14219999999999999         -1.2246091305342546     
  0.14250000000000002         -1.0720107194070998     
  0.14279999999999998        -0.86243279850743093     
  0.14310000000000000        -0.57090498017159952     
  0.14339999999999997        -0.17410734097401948     
  0.14369999999999999         0.34687153921792557     
  0.14400000000000002          1.0035646009054275     
  0.14429999999999998          1.7976320608355785     
  0.14460000000000001          2.7191592915711871     
  0.14490000000000003          3.7457648972024700     
  0.14520000000000000          4.8421040917314500     
  0.14550000000000002          5.9607310761111876     
  0.14579999999999999          7.0448004844625842     
  0.14610000000000001          8.0311719846118024     
  0.14640000000000003          8.8539907010723766     
  0.14670000000000000          9.4491852778942302     
  0.14699999999999996          9.7593963257664598     
  0.14729999999999999          9.7384873319110739     
  0.14760000000000001          9.3553603506355785     
  0.14789999999999998          8.5963072180284144     
  0.14820000000000000          7.4673072060414540     