  -1.4999999999999999E-002     0.0000000000000000     
  -1.4700000000000000E-002     0.0000000000000000     
  -1.4400000000000000E-002     0.0000000000000000     
  -1.4100000000000000E-002     0.0000000000000000     
  -1.3800000000000000E-002     0.0000000000000000     
  -1.3500000000000000E-002     0.0000000000000000     
  -1.3200000000000000E-002     0.0000000000000000     
  -1.2899999999999998E-002     0.0000000000000000     
  -1.2600000000000000E-002     0.0000000000000000     
  -1.2299999999999998E-002     0.0000000000000000     
  -1.2000000000000000E-002     0.0000000000000000     
  -1.1699999999999999E-002     0.0000000000000000     
  -1.1399999999999999E-002     0.0000000000000000     
  -1.1099999999999999E-002     0.0000000000000000     
  -1.0799999999999999E-002     0.0000000000000000     
  -1.0499999999999999E-002     0.0000000000000000     
  -1.0199999999999999E-002     0.0000000000000000     
  -9.8999999999999991E-003     0.0000000000000000     
  -9.5999999999999992E-003     0.0000000000000000     
  -9.2999999999999992E-003     0.0000000000000000     
  -8.9999999999999993E-003     0.0000000000000000     
  -8.6999999999999994E-003     0.0000000000000000     
  -8.3999999999999995E-003     0.0000000000000000     
  -8.0999999999999996E-003     0.0000000000000000     
  -7.7999999999999988E-003     0.0000000000000000     
  -7.4999999999999997E-003     0.0000000000000000     
  -7.1999999999999998E-003     0.0000000000000000     
  -6.8999999999999981E-003     0.0000000000000000     
  -6.5999999999999982E-003     0.0000000000000000     
  -6.3000000000000000E-003     0.0000000000000000     
  -6.0000000000000001E-003     0.0000000000000000     
  -5.6999999999999985E-003     0.0000000000000000     
  -5.3999999999999986E-003     0.0000000000000000     
  -5.1000000000000004E-003     0.0000000000000000     
  -4.7999999999999987E-003     0.0000000000000000     
  -4.5000000000000005E-003     0.0000000000000000     
  -4.1999999999999989E-003     0.0000000000000000     
  -3.8999999999999990E-003     0.0000000000000000     
  -3.5999999999999990E-003     0.0000000000000000     
  -3.2999999999999991E-003     0.0000000000000000     
  -2.9999999999999992E-003     0.0000000000000000     
  -2.6999999999999993E-003     0.0000000000000000     
  -2.3999999999999994E-003     0.0000000000000000     
  -2.0999999999999977E-003     0.0000000000000000     
  -1.7999999999999995E-003     0.0000000000000000     
  -1.4999999999999979E-003     0.0000000000000000     
  -1.1999999999999997E-003     0.0000000000000000     
  -8.9999999999999976E-004     0.0000000000000000     
  -5.9999999999999810E-004     0.0000000000000000     
  -2.9999999999999992E-004     0.0000000000000000     
   0.0000000000000000          0.0000000000000000     
   3.0000000000000165E-004     0.0000000000000000     
   5.9999999999999984E-004     0.0000000000000000     
   9.0000000000000149E-004     0.0000000000000000     
   1.2000000000000031E-003     0.0000000000000000     
   1.5000000000000013E-003     0.0000000000000000     
   1.8000000000000030E-003     0.0000000000000000     
   2.1000000000000012E-003     0.0000000000000000     
   2.3999999999999994E-003     0.0000000000000000     
   2.7000000000000010E-003     0.0000000000000000     
   2.9999999999999992E-003     0.0000000000000000     
   3.3000000000000008E-003     0.0000000000000000     
   3.6000000000000025E-003     0.0000000000000000     
   3.9000000000000007E-003    -1.6038699513747276E-039
   4.2000000000000023E-003     4.0089544577591364E-038
   4.5000000000000005E-003     8.7706546117656125E-038
   4.7999999999999987E-003    -2.1210921636572139E-036
   5.1000000000000004E-003     1.1614040833496004E-035
   5.4000000000000020E-003     9.2427613773338136E-035
   5.7000000000000037E-003    -1.3761476209908267E-033
   5.9999999999999984E-003     7.6723482368824125E-033
   6.3000000000000000E-003     4.1090442155944854E-033
   6.6000000000000017E-003    -3.8581289225946044E-031
   6.9000000000000034E-003     2.9003736949531956E-030
   7.2000000000000015E-003    -7.6863046060108376E-030
   7.5000000000000032E-003    -3.7666978730093512E-029
   7.8000000000000014E-003     4.5388364337683057E-028
   8.0999999999999996E-003    -1.9162970165501527E-027
   8.4000000000000012E-003     2.1136570309548694E-027
   8.7000000000000029E-003     2.1922502182814329E-026
   9.0000000000000011E-003    -1.5800863549056057E-025
   9.2999999999999992E-003     5.8147788416588902E-025
   9.6000000000000009E-003    -1.1851847356724615E-024
   9.8999999999999991E-003    -8.4491768482069037E-025
   1.0200000000000001E-002     2.0617104750052159E-023
   1.0500000000000002E-002    -1.0901942749119042E-022
   1.0800000000000004E-002     3.6751676662568505E-022
   1.1099999999999999E-002    -8.0842168466136841E-022
   1.1400000000000000E-002     7.4080588650328697E-022
   1.1700000000000002E-002     2.2973575590014560E-021
   1.2000000000000004E-002    -1.2385724628686720E-020
   1.2300000000000002E-002     3.4941100021961328E-020
   1.2600000000000000E-002    -1.3159633369861509E-019
   1.2900000000000002E-002     9.1672868954666308E-019
   1.3200000000000000E-002    -6.4083541612876486E-018
   1.3500000000000002E-002     3.7403825852810090E-017
   1.3800000000000003E-002    -1.8780014657537770E-016
   1.4100000000000001E-002     8.4578654740691689E-016
   1.4400000000000000E-002    -3.5057996268983720E-015
   1.4700000000000001E-002     1.3461069214396746E-014
   1.4999999999999999E-002    -4.7143729344560956E-014
   1.5300000000000001E-002     1.4368013627656163E-013
   1.5600000000000003E-002    -3.3624156167787081E-013
   1.5899999999999997E-002     3.0869669209276949E-013
   1.6199999999999999E-002     2.2786971207917969E-012
   1.6500000000000001E-002    -1.6841147006683244E-011
   1.6800000000000002E-002     6.6442892262406681E-011
   1.7100000000000004E-002    -1.6521368434308693E-010
   1.7400000000000006E-002     1.6356280063512009E-010
   1.7700000000000000E-002     6.0519647841269952E-010
   1.8000000000000002E-002    -3.1415457716534271E-009
   1.8300000000000004E-002     5.5198847857552638E-009
   1.8600000000000005E-002     3.5046330297971858E-009
   1.8900000000000000E-002    -3.4951517028116441E-008
   1.9200000000000002E-002     4.3720445615119188E-008
   1.9500000000000003E-002     8.5868503389306173E-008
   1.9799999999999998E-002    -2.4817148168330889E-007
   2.0100000000000000E-002    -1.6774476398521363E-007
   2.0400000000000001E-002     8.1694434625154030E-007
   2.0700000000000003E-002     6.1801862355769597E-007
   2.0999999999999998E-002    -2.1983870538777467E-006
   2.1299999999999999E-002    -3.3617232574842211E-006
   2.1600000000000001E-002     5.4937874356371993E-006
   2.1900000000000003E-002     2.8772730949347750E-005
   2.2200000000000004E-002     6.3325234553849793E-005
   2.2500000000000006E-002     1.0569651483407442E-004
   2.2800000000000001E-002     1.6046241471328118E-004
   2.3100000000000002E-002     2.4234180276607939E-004
   2.3400000000000004E-002     3.7447850614968740E-004
   2.3699999999999999E-002     5.8440953147059077E-004
   2.4000000000000000E-002     9.0435352674213265E-004
   2.4300000000000002E-002     1.3782338622447127E-003
   2.4599999999999997E-002     2.0679914493814122E-003
   2.4900000000000005E-002     3.0594413106263263E-003
   2.5200000000000000E-002     4.4680423565779670E-003
   2.5499999999999995E-002     6.4412830913456454E-003
   2.5800000000000003E-002     9.1600331361949561E-003
   2.6099999999999998E-002     1.2840355707418982E-002
   2.6400000000000007E-002     1.7736121967302787E-002
   2.6700000000000002E-002     2.4135469600443882E-002
   2.6999999999999996E-002     3.2344056354953299E-002
   2.7300000000000005E-002     4.2663607325098329E-002
   2.7600000000000000E-002     5.5366505787588061E-002
   2.7900000000000008E-002     7.0653064048809444E-002
   2.8200000000000003E-002     8.8595131780670577E-002
   2.8499999999999998E-002    0.10906715419837454     
   2.8800000000000006E-002    0.13167527649136890     
   2.9100000000000001E-002    0.15568313577661019     
   2.9400000000000003E-002    0.17993743492351832     
   2.9700000000000004E-002    0.20281485777127806     
   3.0000000000000006E-002    0.22219650630404253     
   3.0300000000000001E-002    0.23548654318383289     
   3.0600000000000002E-002    0.23967310873763203     
   3.0900000000000004E-002    0.23145900084256255     
   3.1199999999999999E-002    0.20746264884111287     
   3.1500000000000007E-002    0.16449901802678690     
   3.1800000000000002E-002     9.9936125488441663E-002
   3.2099999999999997E-002     1.2029037274140841E-002
   3.2400000000000005E-002    -9.9675296349572395E-002
   3.2700000000000000E-002   -0.23399089633238113     
   3.3000000000000002E-002   -0.38780813938628889     
   3.3300000000000003E-002   -0.55593075711954043     
   3.3599999999999998E-002   -0.73106626346526937     
   3.3900000000000000E-002   -0.90403783825723494     
   3.4200000000000001E-002    -1.0641785424969044     
   3.4500000000000003E-002    -1.1999292523763145     
   3.4799999999999998E-002    -1.2996461751091530     
   3.5099999999999999E-002    -1.3524623223809016     
   3.5400000000000001E-002    -1.3492512779394161     
   3.5699999999999996E-002    -1.2835417715818167     
   3.6000000000000004E-002    -1.1522505999820964     
   3.6299999999999999E-002   -0.95629378160901268     
   3.6600000000000008E-002   -0.70078354905030693     
   3.6900000000000002E-002   -0.39491217370224518     
   3.7199999999999997E-002    -5.1643864751333535E-002
   3.7500000000000006E-002    0.31319890319197086     
   3.7800000000000000E-002    0.68193949597491610     
   3.8100000000000009E-002     1.0361233043913671     
   3.8400000000000004E-002     1.3580490244246661     
   3.8699999999999998E-002     1.6317878482512498     
   3.9000000000000007E-002     1.8443505734157242     
   3.9300000000000002E-002     1.9866013175110666     
   3.9600000000000003E-002     2.0535626520024550     
   3.9900000000000005E-002     2.0447873583559044     
   4.0200000000000000E-002     1.9640192309313065     
   4.0500000000000001E-002     1.8186810725454450     
   4.0800000000000003E-002     1.6192452683074734     
   4.1100000000000005E-002     1.3781556509288748     
   4.1399999999999999E-002     1.1089791211859819     
   4.1700000000000008E-002    0.82537110115875834     
   4.2000000000000003E-002    0.54018506044073966     
   4.2299999999999997E-002    0.26478633483136704     
   4.2600000000000006E-002     8.5784425396606689E-003
   4.2900000000000001E-002   -0.22129851639269127     
   4.3200000000000002E-002   -0.42004346547383520     
   4.3500000000000004E-002   -0.58500576393942438     
   4.3799999999999999E-002   -0.71558251301144793     
   4.4100000000000000E-002   -0.81271296288848305     
   4.4400000000000002E-002   -0.87851405450935971     
   4.4700000000000004E-002   -0.91596603278120625     
   4.4999999999999998E-002   -0.92839864533819494     
   4.5300000000000000E-002   -0.91929437167728523     
   4.5600000000000002E-002   -0.89196379641714074     
   4.5899999999999996E-002   -0.84950742945389379     
   4.6200000000000005E-002   -0.79465801550567861     
   4.6500000000000000E-002   -0.72988739307738371     
   4.6799999999999994E-002   -0.65742085512478710     
   4.7100000000000003E-002   -0.57938345480048525     
   4.7399999999999998E-002   -0.49801919800802885     
   4.7700000000000006E-002   -0.41567617347283203     
   4.8000000000000001E-002   -0.33514252264596500     
   4.8300000000000010E-002   -0.25953973477763359     
   4.8600000000000004E-002   -0.19245421239683580     
   4.8899999999999999E-002   -0.13795209638794415     
   4.9200000000000008E-002   -0.10020599842611189     
   4.9500000000000002E-002    -8.3541054023525962E-002
   4.9800000000000011E-002    -9.1807499768822964E-002
   5.0100000000000006E-002   -0.12804379137801192     
   5.0400000000000000E-002   -0.19404670629475707     
   5.0700000000000009E-002   -0.28961485458233049     
   5.1000000000000004E-002   -0.41234002397717973     
   5.1299999999999998E-002   -0.55704255420501170     
   5.1600000000000007E-002   -0.71560118914593573     
   5.1900000000000002E-002   -0.87718495549749775     
   5.2200000000000010E-002    -1.0283264753922552     
   5.2500000000000005E-002    -1.1538303916885297     
   5.2800000000000000E-002    -1.2377064934911388     
   5.3099999999999994E-002    -1.2642874906808927     
   5.3400000000000003E-002    -1.2199056174889265     
   5.3699999999999998E-002    -1.0941704724992007     
   5.4000000000000006E-002   -0.88135128098362259     
   5.4300000000000001E-002   -0.58157917881571830     
   5.4599999999999996E-002   -0.20138058576414419     
   5.4900000000000004E-002    0.24605218789055616     
   5.5199999999999999E-002    0.74127083923567127     
   5.5499999999999994E-002     1.2597668714390053     
   5.5800000000000002E-002     1.7732306660938306     
   5.6099999999999997E-002     2.2519019247534686     
   5.6400000000000006E-002     2.6665393278494776     
   5.6700000000000000E-002     2.9906411881267871     
   5.6999999999999995E-002     3.2027247203239426     
   5.7300000000000004E-002     3.2876606337050305     
   5.7599999999999998E-002     3.2381981720690192     
   5.7900000000000007E-002     3.0551781492822698     
   5.8200000000000002E-002     2.7474937192693289     
   5.8499999999999996E-002     2.3313260407028551     
   5.8800000000000005E-002     1.8285637171455278     
   5.9100000000000000E-002     1.2652969027176333     
   5.9400000000000008E-002    0.66960805896137821     
   5.9700000000000003E-002     6.9827268400553422E-002
   6.0000000000000012E-002   -0.50754111762238452     
   6.0300000000000006E-002    -1.0392374200333805     
   6.0600000000000001E-002    -1.5064782859715038     
   6.0900000000000010E-002    -1.8956003865180264     
   6.1200000000000004E-002    -2.1982591141665040     
   6.1500000000000013E-002    -2.4114049686376546     
   6.1800000000000008E-002    -2.5365851968185638     
   6.2100000000000002E-002    -2.5791995054857182     
   6.2399999999999997E-002    -2.5478090653035821     
   6.2700000000000006E-002    -2.4529242412517931     
   6.3000000000000000E-002    -2.3063279831582832     
   6.3300000000000009E-002    -2.1204257944604237     
   6.3600000000000004E-002    -1.9074025443095266     
   6.3899999999999998E-002    -1.6789638641615241     
   6.4199999999999993E-002    -1.4460239273718116     
   6.4500000000000002E-002    -1.2181988379715492     
   6.4800000000000010E-002    -1.0038641979995155     
   6.5100000000000005E-002   -0.80966900846275536     
   6.5400000000000000E-002   -0.64036528552411554     
   6.5700000000000008E-002   -0.49866212962752954     
   6.5999999999999989E-002   -0.38443176873953178     
   6.6299999999999998E-002   -0.29505369781152613     
   6.6600000000000006E-002   -0.22489869124713824     
   6.6900000000000001E-002   -0.16544146224022294     
   6.7199999999999996E-002   -0.10617719052171992     
   6.7500000000000004E-002    -3.4276396782477070E-002
   6.7800000000000013E-002     6.3093257528805458E-002
   6.8099999999999994E-002    0.19846283906098527     
   6.8400000000000002E-002    0.38222992484469209     
   6.8700000000000011E-002    0.62039368168499820     
   6.8999999999999992E-002    0.91468837883441978     
   6.9300000000000000E-002     1.2598780126350064     
   6.9600000000000009E-002     1.6442721934986935     
   6.9900000000000004E-002     2.0498011342409583     
   7.0199999999999999E-002     2.4517994406638763     
   7.0500000000000007E-002     2.8220503601689444     
   7.0800000000000016E-002     3.1298298356153254     
   7.1099999999999997E-002     3.3447389614585887     
   7.1400000000000005E-002     3.4402297424850872     
   7.1700000000000000E-002     3.3950987806303772     
   7.1999999999999995E-002     3.1969408875630307     
   7.2300000000000003E-002     2.8434328964519580     
   7.2600000000000012E-002     2.3426077885011551     
   7.2900000000000006E-002     1.7139472680946888     
   7.3200000000000001E-002    0.98612738921658383     
   7.3499999999999996E-002    0.19553593530158864     
   7.3800000000000004E-002   -0.61600469099216504     
   7.4099999999999999E-002    -1.4056448156911898     
   7.4400000000000008E-002    -2.1313859358693321     
   7.4700000000000003E-002    -2.7561065709536763     
   7.5000000000000011E-002    -3.2505420844776864     
   7.5299999999999992E-002    -3.5939087859239720     
   7.5600000000000001E-002    -3.7766950051451005     
   7.5900000000000009E-002    -3.7994637846852584     
   7.6200000000000004E-002    -3.6725736284741828     
   7.6499999999999999E-002    -3.4152329977964229     
   7.6800000000000007E-002    -3.0517762447232712     
   7.7099999999999988E-002    -2.6108390110210138     
   7.7399999999999997E-002    -2.1214257217805752     
   7.7700000000000005E-002    -1.6105918700987161     
   7.8000000000000014E-002    -1.1020689836025213     
   7.8299999999999995E-002   -0.61353300410537792     
   7.8600000000000003E-002   -0.15676821609645319     
   7.8900000000000012E-002    0.26292027388745254     
   7.9199999999999993E-002    0.64590595472255430     
   7.9500000000000001E-002    0.99677637298801613     
   7.9800000000000010E-002     1.3228202462585230     
   8.0100000000000018E-002     1.6318487023910393     
   8.0399999999999999E-002     1.9300743865819143     
   8.0700000000000008E-002     2.2205207030527134     
   8.1000000000000003E-002     2.5018192063496940     
   8.1299999999999997E-002     2.7667038255123089     
   8.1600000000000006E-002     3.0031915642709492     
   8.1900000000000014E-002     3.1943611208458265     
   8.2199999999999995E-002     3.3201488125039731     
   8.2500000000000004E-002     3.3599554865495946     
   8.2799999999999999E-002     3.2938768665223819     
   8.3100000000000007E-002     3.1065970852935436     
   8.3400000000000002E-002     2.7886321474232147     
   8.3700000000000011E-002     2.3386100258346900     
   8.4000000000000005E-002     1.7647330045696101     
   8.4300000000000000E-002     1.0842243503490980     
   8.4599999999999995E-002    0.32391525257658138     
   8.4900000000000003E-002   -0.48235366409500102     
   8.5199999999999998E-002    -1.2954657104779130     
   8.5500000000000007E-002    -2.0738559953454541     
   8.5800000000000001E-002    -2.7772067869497050     
   8.6100000000000010E-002    -3.3689249589772317     
   8.6399999999999991E-002    -3.8191352937989649     
   8.6699999999999999E-002    -4.1068012676946068     
   8.7000000000000008E-002    -4.2210526304279199     
   8.7300000000000003E-002    -4.1613833883311742     
   8.7599999999999997E-002    -3.9374139074206056     
   8.7900000000000006E-002    -3.5671844623325057     
   8.8200000000000014E-002    -3.0756291663324333     
   8.8499999999999995E-002    -2.4920670102255471     
   8.8800000000000004E-002    -1.8477260629047834     
   8.9100000000000013E-002    -1.1744748664819125     
   8.9399999999999993E-002   -0.50180324210217719     
   8.9700000000000002E-002    0.14340584530173950     
   9.0000000000000011E-002    0.73786931845885917     
   9.0299999999999991E-002     1.2627481408599337     
   9.0600000000000000E-002     1.7023868739513617     
   9.0900000000000009E-002     2.0451590470364351     
   9.1200000000000017E-002     2.2820757083071044     
   9.1499999999999998E-002     2.4074180148865167     
   9.1800000000000007E-002     2.4185473519322329     
   9.2100000000000001E-002     2.3155038212913439     
   9.2399999999999996E-002     2.1030578422286510     
   9.2700000000000005E-002     1.7895918147412573     
   9.3000000000000013E-002     1.3887586054494161     
   9.3300000000000008E-002    0.91976820724221442     
   9.3600000000000003E-002    0.40649122293333662     
   9.3899999999999997E-002   -0.12191956050740871     
   9.4200000000000006E-002   -0.63362516881381481     
   9.4500000000000001E-002    -1.0949358304566772     
   9.4800000000000009E-002    -1.4731712345749060     
   9.5100000000000004E-002    -1.7397749163896066     
   9.5399999999999999E-002    -1.8715925517862360     
   9.5699999999999993E-002    -1.8548390271149700     
   9.6000000000000002E-002    -1.6859517677396916     
   9.6300000000000011E-002    -1.3727896725046360     
   9.6600000000000005E-002   -0.93506137849976945     
   9.6900000000000000E-002   -0.40272416654497079     
   9.7200000000000009E-002    0.18528499204990667     
   9.7499999999999989E-002    0.78429612017168537     
   9.7799999999999998E-002     1.3473003665440544     
   9.8100000000000007E-002     1.8283792560874019     
   9.8400000000000015E-002     2.1867336408755165     
   9.8699999999999996E-002     2.3898638231630116     
   9.9000000000000005E-002     2.4160963708418137     
   9.9300000000000013E-002     2.2570142409694611     
   9.9599999999999994E-002     1.9175998696641408     
   9.9900000000000003E-002     1.4166331712400861     
  0.10020000000000001         0.78575933829848310     
  0.10049999999999999          6.6715878444982835E-002
  0.10080000000000000        -0.69029551794456268     
  0.10110000000000001         -1.4309649896670251     
  0.10140000000000000         -2.0999864999298907     
  0.10170000000000000         -2.6447312482846854     
  0.10200000000000001         -3.0197116497893290     
  0.10230000000000002         -3.1889746458655566     
  0.10260000000000000         -3.1301214732998659     
  0.10290000000000001         -2.8357266805593895     
  0.10320000000000000         -2.3143923014781294     
  0.10350000000000001         -1.5918489774889384     
  0.10380000000000000        -0.70858867939170622     
  0.10410000000000001         0.28128021264795011     
  0.10440000000000001          1.3139941957761110     
  0.10470000000000000          2.3203862647485352     
  0.10500000000000000          3.2302147487459365     
  0.10530000000000000          3.9784752744784981     
  0.10560000000000000          4.5092864320812680     
  0.10590000000000001          4.7812342468461964     
  0.10620000000000000          4.7704900807179058     
  0.10650000000000001          4.4728553777779183     
  0.10679999999999999          3.9050922133084214     
  0.10710000000000000          3.1032184597970733     
  0.10740000000000001          2.1206540702536856     
  0.10770000000000000          1.0235629130490906     
  0.10800000000000000        -0.11375298775392118     
  0.10830000000000001         -1.2146426108663846     
  0.10859999999999999         -2.2064666101318267     
  0.10890000000000000         -3.0252755993638800     
  0.10920000000000001         -3.6212253564949322     
  0.10950000000000001         -3.9619959377102560     
  0.10979999999999999         -4.0348068197016573     
  0.11009999999999999         -3.8470669854324058     
  0.11040000000000001         -3.4248215244653508     
  0.11070000000000001         -2.8103376141896419     
  0.11100000000000000         -2.0578870571522891     
  0.11130000000000000         -1.2291327752807835     
  0.11160000000000002        -0.38797108034193784     
  0.11190000000000001         0.40491391987152348     
  0.11220000000000001          1.0965962894044310     
  0.11250000000000000          1.6458095939639037     
  0.11280000000000000          2.0255112720942918     
  0.11309999999999999          2.2242338217423665     
  0.11340000000000001          2.2456052971276890     
  0.11369999999999998          2.1070268797738407     
  0.11400000000000000          1.8368497322637936     
  0.11430000000000000          1.4705998794019166     
  0.11460000000000002          1.0475753432159687     
  0.11489999999999999         0.60614653615616021     
  0.11520000000000001         0.18051656179624942     
  0.11550000000000001        -0.20232372870779036     
  0.11580000000000000        -0.52450223281624986     
  0.11609999999999999        -0.77764107580149044     
  0.11640000000000002        -0.96285114806355665     
  0.11670000000000001         -1.0884564775870231     
  0.11700000000000001         -1.1681484794352954     
  0.11730000000000000         -1.2180990757089134     
  0.11760000000000000         -1.2533971037677674     
  0.11789999999999999         -1.2857306751925250     
  0.11820000000000001         -1.3212111992708202     
  0.11850000000000001         -1.3590200913585946     
  0.11880000000000000         -1.3919883705634888     
  0.11910000000000000         -1.4072142675344921     
  0.11940000000000002         -1.3881328531468284     
  0.11970000000000001         -1.3178061520155246     
  0.12000000000000001         -1.1813342512863443     
  0.12030000000000000        -0.96972145661309384     
  0.12060000000000000        -0.68167809956995384     
  0.12089999999999999        -0.32520503719354465     
  0.12119999999999999          8.1229526561275467E-002
  0.12150000000000001         0.51107713540730693     
  0.12180000000000001         0.93070110437024312     
  0.12210000000000000          1.3032681416248622     
  0.12239999999999999          1.5930078854567000     
  0.12270000000000002          1.7679122298227767     
  0.12300000000000001          1.8053558331068231     
  0.12330000000000001          1.6935582714522894     
  0.12360000000000000          1.4335209484012057     
  0.12390000000000000          1.0401908636828772     
  0.12419999999999999         0.53938517122139373     
  0.12450000000000001         -3.2743797966750421E-002
  0.12480000000000001        -0.63492480229994008     
  0.12509999999999999         -1.2245797081023113     
  0.12540000000000001         -1.7607114340742456     
  0.12570000000000003         -2.2098671183618848     
  0.12600000000000000         -2.5468405661479210     
  0.12630000000000002         -2.7574068595733650     
  0.12659999999999999         -2.8389089296614429     
  0.12690000000000001         -2.7978548242833625     
  0.12719999999999998         -2.6499813647142503     
  0.12750000000000000         -2.4159204975951809     
  0.12780000000000002         -2.1186236465070607     
  0.12809999999999999         -1.7816474205289623     
  0.12840000000000001         -1.4248486878192423     
  0.12869999999999998         -1.0645427599488748     
  0.12900000000000000        -0.71153318796822784     
  0.12930000000000003        -0.37044419445156151     
  0.12959999999999999         -4.2138530877282143E-002
  0.12990000000000002         0.27714613413862033     
  0.13019999999999998         0.59345316256420588     
  0.13050000000000000         0.91374478293145955     
  0.13080000000000003          1.2456654757350378     
  0.13109999999999999          1.5954603024830973     
  0.13140000000000002          1.9682141677330662     
  0.13169999999999998          2.3675308458572601     
  0.13200000000000001          2.7943128743813190     
  0.13229999999999997          3.2482970037697498     
  0.13260000000000000          3.7268628569887881     
  0.13290000000000002          4.2248649529596918     
  0.13319999999999999          4.7351323746283072     
  0.13350000000000001          5.2466427446183843     
  0.13380000000000003          5.7455328296209132     
  0.13410000000000000          6.2139928449867625     
  0.13440000000000002          6.6299394314841038     
  0.13469999999999999          6.9684090287254605     
  0.13500000000000001          7.2005728074797730     
  0.13529999999999998          7.2967336173019248     
  0.13560000000000000          7.2273224195653540     
  0.13590000000000002          6.9648091530844454     
  0.13619999999999999          6.4872556343053134     
  0.13650000000000001          5.7790236526756544     
  0.13680000000000003          4.8341100067332743     
  0.13710000000000000          3.6574223693143466     
  0.13740000000000002          2.2652967763508798     
  0.13769999999999999         0.68673620322950057     
  0.13800000000000001         -1.0388581782248210     
  0.13829999999999998         -2.8612769279346253     
  0.13860000000000000         -4.7237631603531440     
  0.13890000000000002         -6.5644847153311048     
  0.13919999999999999         -8.3194882381750404     
  0.13950000000000001         -9.9268019012660034     
  0.13979999999999998         -11.328703643394363     
  0.14010000000000000         -12.474635863262847     
  0.14040000000000002         -13.323406791983928     
  0.14069999999999999         -13.844536966414978     
  0.14100000000000001         -14.018829356598758     
  0.14130000000000004         -13.839533653298872     
  0.14160000000000000         -13.310885901434972     
  0.14189999999999997         -12.447917994872086     
  0.14219999999999999         -11.275535291976183     
  0.14250000000000002         -9.8253002584798708     
  0.14279999999999998         -8.1369516989107336     
  0.14310000000000000         -6.2547302917203638     
  0.14339999999999997         -4.2265849974571097     
  0.14369999999999999         -2.1046967139580630     
  0.14400000000000002          5.7898489479903503E-002
  0.14429999999999998          2.2055345071999923     
  0.14460000000000001          4.2813762129507325     
  0.14490000000000003          6.2294964502960397     
  0.14520000000000000          7.9927488015960932     
  0.14550000000000002          9.5178515631244522     
  0.14579999999999999          10.754512471843441     
  0.14610000000000001          11.657414186765720     
  0.14640000000000003          12.191716580595937     
  0.14670000000000000          12.331481345279371     
  0.14699999999999996          12.065226489369934     
  0.14729999999999999          11.397979051981167     
  0.14760000000000001          10.349819142096493     
  0.14789999999999998          8.9614898452992193     
  0.14820000000000000          7.2890649261754312     