  -1.4999999999999999E-002     0.0000000000000000     
  -1.4700000000000000E-002     0.0000000000000000     
  -1.4400000000000000E-002     0.0000000000000000     
  -1.4100000000000000E-002     0.0000000000000000     
  -1.3800000000000000E-002     0.0000000000000000     
  -1.3500000000000000E-002     0.0000000000000000     
  -1.3200000000000000E-002     0.0000000000000000     
  -1.2899999999999998E-002     0.0000000000000000     
  -1.2600000000000000E-002     0.0000000000000000     
  -1.2299999999999998E-002     0.0000000000000000     
  -1.2000000000000000E-002     0.0000000000000000     
  -1.1699999999999999E-002     0.0000000000000000     
  -1.1399999999999999E-002     0.0000000000000000     
  -1.1099999999999999E-002     0.0000000000000000     
  -1.0799999999999999E-002     0.0000000000000000     
  -1.0499999999999999E-002     0.0000000000000000     
  -1.0199999999999999E-002     0.0000000000000000     
  -9.8999999999999991E-003     0.0000000000000000     
  -9.5999999999999992E-003     0.0000000000000000     
  -9.2999999999999992E-003     0.0000000000000000     
  -8.9999999999999993E-003     0.0000000000000000     
  -8.6999999999999994E-003     0.0000000000000000     
  -8.3999999999999995E-003     0.0000000000000000     
  -8.0999999999999996E-003     0.0000000000000000     
  -7.7999999999999988E-003     0.0000000000000000     
  -7.4999999999999997E-003     0.0000000000000000     
  -7.1999999999999998E-003     0.0000000000000000     
  -6.8999999999999981E-003     0.0000000000000000     
  -6.5999999999999982E-003     0.0000000000000000     
  -6.3000000000000000E-003     0.0000000000000000     
  -6.0000000000000001E-003     0.0000000000000000     
  -5.6999999999999985E-003    -7.1436969575122890E-038
  -5.3999999999999986E-003     3.7056398230912137E-036
  -5.1000000000000004E-003    -2.6377884856321653E-035
  -4.7999999999999987E-003    -3.8058787629993080E-035
  -4.5000000000000005E-003     1.0674807646001203E-033
  -4.1999999999999989E-003    -4.4901640178467755E-033
  -3.8999999999999990E-003     4.8567443527020402E-033
  -3.5999999999999990E-003     1.9755639030257799E-032
  -3.2999999999999991E-003    -4.8598965481005542E-032
  -2.9999999999999992E-003    -1.0103282407373277E-031
  -2.6999999999999993E-003     4.9280870462188060E-031
  -2.3999999999999994E-003     2.7943410865174111E-031
  -2.0999999999999977E-003    -5.9302080310461592E-030
  -1.7999999999999995E-003     1.6958780190196641E-029
  -1.4999999999999979E-003    -1.9998560411752941E-029
  -1.1999999999999997E-003    -1.3802545359262754E-029
  -8.9999999999999976E-004     1.8225271868128774E-028
  -5.9999999999999810E-004    -9.7570242277908357E-028
  -2.9999999999999992E-004     3.7702447349317302E-027
   0.0000000000000000         -9.7382937892260199E-027
   3.0000000000000165E-004     1.3478193113531340E-026
   5.9999999999999984E-004     8.4334277482491394E-027
   9.0000000000000149E-004    -9.7063016861695724E-026
   1.2000000000000031E-003     2.6042180105813887E-025
   1.5000000000000013E-003    -3.3105163305715882E-025
   1.8000000000000030E-003    -2.6500051862001227E-025
   2.1000000000000012E-003     2.6715948094567486E-024
   2.3999999999999994E-003    -8.2477955981473333E-024
   2.7000000000000010E-003     1.6919701005632189E-023
   2.9999999999999992E-003    -2.3100505015534365E-023
   3.3000000000000008E-003     1.1972883635993759E-023
   3.6000000000000025E-003    -8.7401637178095296E-024
   3.9000000000000007E-003     5.0409749912704620E-022
   4.2000000000000023E-003    -4.4927753351900577E-021
   4.5000000000000005E-003     2.4373659111093633E-020
   4.7999999999999987E-003    -9.9181115984320941E-020
   5.1000000000000004E-003     3.2445533658204338E-019
   5.4000000000000020E-003    -8.7433100046121431E-019
   5.7000000000000037E-003     1.9344348127707953E-018
   5.9999999999999984E-003    -3.3786063015808261E-018
   6.3000000000000000E-003     4.1003878992774475E-018
   6.6000000000000017E-003    -2.0277358815593280E-018
   6.9000000000000034E-003     1.5898369037427604E-018
   7.2000000000000015E-003    -6.0513556992211440E-017
   7.5000000000000032E-003     5.1351175644040205E-016
   7.8000000000000014E-003    -2.9410339682267666E-015
   8.0999999999999996E-003     1.4074832558108511E-014
   8.4000000000000012E-003    -6.0024524894809695E-014
   8.7000000000000029E-003     2.2956376103615955E-013
   9.0000000000000011E-003    -7.6281204094406748E-013
   9.2999999999999992E-003     2.0278377234533175E-012
   9.6000000000000009E-003    -3.2881456841917851E-012
   9.8999999999999991E-003    -3.4412255780012606E-012
   1.0200000000000001E-002     4.9028481965335472E-011
   1.0500000000000002E-002    -1.9191041158528376E-010
   1.0800000000000004E-002     3.8921066840873035E-010
   1.1099999999999999E-002    -2.8444025841691013E-011
   1.1400000000000000E-002    -2.3610238225384298E-009
   1.1700000000000002E-002     6.2732661675624446E-009
   1.2000000000000004E-002    -1.0437736427288350E-009
   1.2300000000000002E-002    -2.8554060433411762E-008
   1.2600000000000000E-002     4.2309211658843676E-008
   1.2900000000000002E-002     7.8911876569552669E-008
   1.3200000000000000E-002    -2.1972318604615464E-007
   1.3500000000000002E-002    -2.6390936956398728E-007
   1.3800000000000003E-002     6.8857902574677061E-007
   1.4100000000000001E-002     9.8208600853798064E-007
   1.4400000000000000E-002    -1.5337319028766640E-006
   1.4700000000000001E-002    -3.3265693606144227E-006
   1.4999999999999999E-002     3.2380375847795118E-006
   1.5300000000000001E-002     1.8320573565329401E-005
   1.5600000000000003E-002     3.1935803576097887E-005
   1.5899999999999997E-002     4.0217621265904767E-005
   1.6199999999999999E-002     5.7193467748513837E-005
   1.6500000000000001E-002     9.9984785791978371E-005
   1.6800000000000002E-002     1.6932861573936038E-004
   1.7100000000000004E-002     2.5930272461522318E-004
   1.7400000000000006E-002     3.8387953396434166E-004
   1.7700000000000000E-002     5.7926931589523389E-004
   1.8000000000000002E-002     8.7932880633120533E-004
   1.8300000000000004E-002     1.3067031091377121E-003
   1.8600000000000005E-002     1.8987266319324542E-003
   1.8900000000000000E-002     2.7278748579536438E-003
   1.9200000000000002E-002     3.8837099214813903E-003
   1.9500000000000003E-002     5.4499907795297897E-003
   1.9799999999999998E-002     7.5195566646722167E-003
   2.0100000000000000E-002     1.0221084911409384E-002
   2.0400000000000001E-002     1.3705130864691106E-002
   2.0700000000000003E-002     1.8104235985528905E-002
   2.0999999999999998E-002     2.3525034840380155E-002
   2.1299999999999999E-002     3.0067787823210512E-002
   2.1600000000000001E-002     3.7808802000544040E-002
   2.1900000000000003E-002     4.6738697600987589E-002
   2.2200000000000004E-002     5.6721450439290999E-002
   2.2500000000000006E-002     6.7500236810160708E-002
   2.2800000000000001E-002     7.8693123409905308E-002
   2.3100000000000002E-002     8.9739359004773700E-002
   2.3400000000000004E-002     9.9853828878340600E-002
   2.3699999999999999E-002    0.10805137173815504     
   2.4000000000000000E-002    0.11321326217828265     
   2.4300000000000002E-002    0.11411583496855959     
   2.4599999999999997E-002    0.10945654478455547     
   2.4900000000000005E-002     9.7961904049917781E-002
   2.5200000000000000E-002     7.8541503771162979E-002
   2.5499999999999995E-002     5.0420248424516423E-002
   2.5800000000000003E-002     1.3235693768781864E-002
   2.6099999999999998E-002    -3.2846288604189033E-002
   2.6400000000000007E-002    -8.6984391153386742E-002
   2.6700000000000002E-002   -0.14759706004930084     
   2.6999999999999996E-002   -0.21240835122536872     
   2.7300000000000005E-002   -0.27851762397915181     
   2.7600000000000000E-002   -0.34249102791153518     
   2.7900000000000008E-002   -0.40056539265830615     
   2.8200000000000003E-002   -0.44892779353576096     
   2.8499999999999998E-002   -0.48403539459268785     
   2.8800000000000006E-002   -0.50290155096699785     
   2.9100000000000001E-002   -0.50336902388739446     
   2.9400000000000003E-002   -0.48436825113730997     
   2.9700000000000004E-002   -0.44610761128502219     
   3.0000000000000006E-002   -0.39011398806541742     
   3.0300000000000001E-002   -0.31918641741571996     
   3.0600000000000002E-002   -0.23723323389258866     
   3.0900000000000004E-002   -0.14900815669210310     
   3.1199999999999999E-002    -5.9856250136242073E-002
   3.1500000000000007E-002     2.4800155633908361E-002
   3.1800000000000002E-002     9.9912483627598192E-002
   3.2099999999999997E-002    0.16108583935049836     
   3.2400000000000005E-002    0.20495281340335403     
   3.2700000000000000E-002    0.22940242284480394     
   3.3000000000000002E-002    0.23379912775231126     
   3.3300000000000003E-002    0.21906917482530730     
   3.3599999999999998E-002    0.18758125448361795     
   3.3900000000000000E-002    0.14301124130882270     
   3.4200000000000001E-002     9.0033520828964875E-002
   3.4500000000000003E-002     3.4121346956366483E-002
   3.4799999999999998E-002    -1.8783682596452911E-002
   3.5099999999999999E-002    -6.2699811256188509E-002
   3.5400000000000001E-002    -9.2049887554713106E-002
   3.5699999999999996E-002   -0.10192372836782271     
   3.6000000000000004E-002    -8.8290449683790628E-002
   3.6299999999999999E-002    -4.8512003645834745E-002
   3.6600000000000008E-002     1.8451994118575066E-002
   3.6900000000000002E-002    0.11212880121669677     
   3.7199999999999997E-002    0.23025257007935185     
   3.7500000000000006E-002    0.36883833688809631     
   3.7800000000000000E-002    0.52235948437058255     
   3.8100000000000009E-002    0.68389321789042157     
   3.8400000000000004E-002    0.84544970155900145     
   3.8699999999999998E-002    0.99838859798345680     
   3.9000000000000007E-002     1.1338799903473102     
   3.9300000000000002E-002     1.2432065903176337     
   3.9600000000000003E-002     1.3182558795439050     
   3.9900000000000005E-002     1.3522548989330048     
   4.0200000000000000E-002     1.3400028239172599     
   4.0500000000000001E-002     1.2780741573811270     
   4.0800000000000003E-002     1.1652568194672099     
   4.1100000000000005E-002     1.0028535052783702     
   4.1399999999999999E-002    0.79468932230624389     
   4.1700000000000008E-002    0.54703830711443047     
   4.2000000000000003E-002    0.26859506922065712     
   4.2299999999999997E-002    -2.9769050087034454E-002
   4.2600000000000006E-002   -0.33539412994339735     
   4.2900000000000001E-002   -0.63430540534139723     
   4.3200000000000002E-002   -0.91192875420972896     
   4.3500000000000004E-002    -1.1539594626569922     
   4.3799999999999999E-002    -1.3470522568856396     
   4.4100000000000000E-002    -1.4795952321875916     
   4.4400000000000002E-002    -1.5426134768430160     
   4.4700000000000004E-002    -1.5307687139539325     
   4.4999999999999998E-002    -1.4427906240537709     
   4.5300000000000000E-002    -1.2816000094823110     
   4.5600000000000002E-002    -1.0544970197539243     
   4.5899999999999996E-002   -0.77308831888509211     
   4.6200000000000005E-002   -0.45258028883086909     
   4.6500000000000000E-002   -0.11093045521580258     
   4.6799999999999994E-002    0.23217289316638823     
   4.7100000000000003E-002    0.55661975173075007     
   4.7399999999999998E-002    0.84307167557550500     
   4.7700000000000006E-002     1.0740578300097070     
   4.8000000000000001E-002     1.2352769129150403     
   4.8300000000000010E-002     1.3163454812239053     
   4.8600000000000004E-002     1.3114059692271240     
   4.8899999999999999E-002     1.2193935205344175     
   4.9200000000000008E-002     1.0439210556722003     
   4.9500000000000002E-002    0.79316318813091513     
   4.9800000000000011E-002    0.47909558796118523     
   5.0100000000000006E-002    0.11664194803126282     
   5.0400000000000000E-002   -0.27697750679522315     
   5.0700000000000009E-002   -0.68350699404548010     
   5.1000000000000004E-002    -1.0846943315911801     
   5.1299999999999998E-002    -1.4631021592574172     
   5.1600000000000007E-002    -1.8029240430820082     
   5.1900000000000002E-002    -2.0905154562123442     
   5.2200000000000010E-002    -2.3151817642164474     
   5.2500000000000005E-002    -2.4692013734198497     
   5.2800000000000000E-002    -2.5475977169486299     
   5.3099999999999994E-002    -2.5483492393221354     
   5.3400000000000003E-002    -2.4720172653650394     
   5.3699999999999998E-002    -2.3210884731194596     
   5.4000000000000006E-002    -2.0996567587052013     
   5.4300000000000001E-002    -1.8133361748336085     
   5.4599999999999996E-002    -1.4688198439982330     
   5.4900000000000004E-002    -1.0734193887869221     
   5.5199999999999999E-002   -0.63514224157372379     
   5.5499999999999994E-002   -0.16309189457883200     
   5.5800000000000002E-002    0.33272711893567752     
   5.6099999999999997E-002    0.84137237765430228     
   5.6400000000000006E-002     1.3504884017940313     
   5.6700000000000000E-002     1.8460228311589049     
   5.6999999999999995E-002     2.3127634404296344     
   5.7300000000000004E-002     2.7344447871566615     
   5.7599999999999998E-002     3.0938412383201523     
   5.7900000000000007E-002     3.3734837707153673     
   5.8200000000000002E-002     3.5563618511237109     
   5.8499999999999996E-002     3.6271521882400179     
   5.8800000000000005E-002     3.5730494008377747     
   5.9100000000000000E-002     3.3847544073935438     
   5.9400000000000008E-002     3.0580468874520506     
   5.9700000000000003E-002     2.5947045407631535     
   6.0000000000000012E-002     2.0032594451113788     
   6.0300000000000006E-002     1.2997177913896376     
   6.0600000000000001E-002    0.50757498209260632     
   6.0900000000000010E-002   -0.34232198729725738     
   6.1200000000000004E-002    -1.2127680291079059     
   6.1500000000000013E-002    -2.0619518236636054     
   6.1800000000000008E-002    -2.8455393167696030     
   6.2100000000000002E-002    -3.5193472504412426     
   6.2399999999999997E-002    -4.0424249673120443     
   6.2700000000000006E-002    -4.3798525474242922     
   6.3000000000000000E-002    -4.5055787311377173     
   6.3300000000000009E-002    -4.4052736179317833     
   6.3600000000000004E-002    -4.0778326637797448     
   6.3899999999999998E-002    -3.5359763299647966     
   6.4199999999999993E-002    -2.8059391663472297     
   6.4500000000000002E-002    -1.9262443451473201     
   6.4800000000000010E-002   -0.94556479700212392     
   6.5100000000000005E-002     8.0861805593145597E-002
   6.5400000000000000E-002     1.0949220548587952     
   6.5700000000000008E-002     2.0391464132271580     
   6.5999999999999989E-002     2.8609619790139078     
   6.6299999999999998E-002     3.5160302452114252     
   6.6600000000000006E-002     3.9708672572651551     
   6.6900000000000001E-002     4.2047888220566847     
   6.7199999999999996E-002     4.2107454805180708     
   6.7500000000000004E-002     3.9954518081283652     
   6.7800000000000013E-002     3.5780289454720560     
   6.8099999999999994E-002     2.9881761887864116     
   6.8400000000000002E-002     2.2640265227409735     
   6.8700000000000011E-002     1.4494690224180369     
   6.8999999999999992E-002    0.59099606640097946     
   6.9300000000000000E-002   -0.26533331282466821     
   6.9600000000000009E-002    -1.0761112152065380     
   6.9900000000000004E-002    -1.8028103225738121     
   7.0199999999999999E-002    -2.4136948118210029     
   7.0500000000000007E-002    -2.8845405618219786     
   7.0800000000000016E-002    -3.1995021405001012     
   7.1099999999999997E-002    -3.3510619640393884     
   7.1400000000000005E-002    -3.3391831963638765     
   7.1700000000000000E-002    -3.1706486976975299     
   7.1999999999999995E-002    -2.8579756570826049     
   7.2300000000000003E-002    -2.4180574508003119     
   7.2600000000000012E-002    -1.8709075081645210     
   7.2900000000000006E-002    -1.2386399650854329     
   7.3200000000000001E-002   -0.54467389579300729     
   7.3499999999999996E-002    0.18718951338587919     
   7.3800000000000004E-002    0.93300545973431070     
   7.4099999999999999E-002     1.6687714690951978     
   7.4400000000000008E-002     2.3708239846330486     
   7.4700000000000003E-002     3.0159641985895291     
   7.5000000000000011E-002     3.5815891783141325     
   7.5299999999999992E-002     4.0463430576670305     
   7.5600000000000001E-002     4.3910452677023670     
   7.5900000000000009E-002     4.5995962160903332     
   7.6200000000000004E-002     4.6603464249016611     
   7.6499999999999999E-002     4.5674780414047405     
   7.6800000000000007E-002     4.3217875632418981     
   7.7099999999999988E-002     3.9315168109395415     
   7.7399999999999997E-002     3.4129257096609962     
   7.7700000000000005E-002     2.7899519183924326     
   7.8000000000000014E-002     2.0928890605201751     
   7.8299999999999995E-002     1.3563042482146321     
   7.8600000000000003E-002    0.61708275000898993     
   7.8900000000000012E-002    -8.7953710795606987E-002
   7.9199999999999993E-002   -0.72571613766428200     
   7.9500000000000001E-002    -1.2688820384081367     
   7.9800000000000010E-002    -1.6977137632425254     
   8.0100000000000018E-002    -2.0022634234071433     
   8.0399999999999999E-002    -2.1827780885149934     
   8.0700000000000008E-002    -2.2494470451017889     
   8.1000000000000003E-002    -2.2215122303945520     
   8.1299999999999997E-002    -2.1253355991753864     
   8.1600000000000006E-002    -1.9929157962361046     
   8.1900000000000014E-002    -1.8592828720925638     
   8.2199999999999995E-002    -1.7594622169053977     
   8.2500000000000004E-002    -1.7268005623685454     
   8.2799999999999999E-002    -1.7907751489420036     
   8.3100000000000007E-002    -1.9744743551375521     
   8.3400000000000002E-002    -2.2929730249492053     
   8.3700000000000011E-002    -2.7519813165821461     
   8.4000000000000005E-002    -3.3469847317273747     
   8.4300000000000000E-002    -4.0621294107340447     
   8.4599999999999995E-002    -4.8693800128885130     
   8.4900000000000003E-002    -5.7294829142992683     
   8.5199999999999998E-002    -6.5925964656178166     
   8.5500000000000007E-002    -7.3995012780119396     
   8.5800000000000001E-002    -8.0845891925212072     
   8.6100000000000010E-002    -8.5795226463764322     
   8.6399999999999991E-002    -8.8174266260392073     
   8.6699999999999999E-002    -8.7379380660252650     
   8.7000000000000008E-002    -8.2922578871319246     
   8.7300000000000003E-002    -7.4484929549887227     
   8.7599999999999997E-002    -6.1961260051727365     
   8.7900000000000006E-002    -4.5487462676143906     
   8.8200000000000014E-002    -2.5459652612257315     
   8.8499999999999995E-002   -0.25299406387502188     
   8.8800000000000004E-002     2.2423057664520698     
   8.9100000000000013E-002     4.8334790297061687     
   8.9399999999999993E-002     7.4018003008841902     
   8.9700000000000002E-002     9.8243256300263511     
   9.0000000000000011E-002     11.981593985301913     
   9.0299999999999991E-002     13.766098344533759     
   9.0600000000000000E-002     15.089502545353355     
   9.0900000000000009E-002     15.887904855799775     
   9.1200000000000017E-002     16.126442887560415     
   9.1499999999999998E-002     15.800586864771390     
   9.1800000000000007E-002     14.934810469158663     
   9.2100000000000001E-002     13.579810592835145     
   9.2399999999999996E-002     11.807306494684482     
   9.2700000000000005E-002     9.7039985890982301     
   9.3000000000000013E-002     7.3649659439760740     
   9.3300000000000008E-002     4.8868954009070080     
   9.3600000000000003E-002     2.3620611232744437     
   9.3899999999999997E-002   -0.12563620467325620     
   9.4200000000000006E-002    -2.5033042374927135     
   9.4500000000000001E-002    -4.7104181703389116     
   9.4800000000000009E-002    -6.6982653709915780     
   9.5100000000000004E-002    -8.4288010179771220     
   9.5399999999999999E-002    -9.8715792933939497     
   9.5699999999999993E-002    -11.001993764981592     
   9.6000000000000002E-002    -11.800236142243534     
   9.6300000000000011E-002    -12.249165179783176     
   9.6600000000000005E-002    -12.335534072317159     
   9.6900000000000000E-002    -12.051779298530590     
   9.7200000000000009E-002    -11.397478111339268     
   9.7499999999999989E-002    -10.383441693735506     
   9.7799999999999998E-002    -9.0337793235711317     
   9.8100000000000007E-002    -7.3876454423586679     
   9.8400000000000015E-002    -5.5020759404312827     
   9.8699999999999996E-002    -3.4503867541312729     
   9.9000000000000005E-002    -1.3197012168281503     
   9.9300000000000013E-002    0.79297725303717037     
   9.9599999999999994E-002     2.7871651359063279     
   9.9900000000000003E-002     4.5638158834548221     
  0.10020000000000001          6.0338278279049291     
  0.10049999999999999          7.1259780484239457     
  0.10080000000000000          7.7902805902387797     
  0.10110000000000001          8.0033284784554724     
  0.10140000000000000          7.7714636809016895     
  0.10170000000000000          7.1289816798311634     
  0.10200000000000001          6.1363247531077612     
  0.10230000000000002          4.8756723016821581     
  0.10260000000000000          3.4442954702714417     
  0.10290000000000001          1.9477636286939202     
  0.10320000000000000         0.49129401132739758     
  0.10350000000000001        -0.82698128796983283     
  0.10380000000000000         -1.9227022790189068     
  0.10410000000000001         -2.7326762051921349     
  0.10440000000000001         -3.2164865698356451     
  0.10470000000000000         -3.3583286042882854     
  0.10500000000000000         -3.1696969779119932     
  0.10530000000000000         -2.6851883210124541     
  0.10560000000000000         -1.9586373724593074     
  0.10590000000000001         -1.0598272145281769     
  0.10620000000000000         -6.8158072424054694E-002
  0.10650000000000001         0.93349083407582434     
  0.10679999999999999          1.8656966908946515     
  0.10710000000000000          2.6579626502514060     
  0.10740000000000001          3.2520958614591535     
  0.10770000000000000          3.6080566827416902     
  0.10800000000000000          3.7059353148461440     
  0.10830000000000001          3.5451041628674780     
  0.10859999999999999          3.1447076703870174     
  0.10890000000000000          2.5413073221880893     
  0.10920000000000001          1.7850224321868069     
  0.10950000000000001         0.93545366767823168     
  0.10979999999999999          5.5621998075618961E-002
  0.11009999999999999        -0.79246667888979516     
  0.11040000000000001         -1.5519505069723820     
  0.11070000000000001         -2.1771003376830649     
  0.11100000000000000         -2.6358358037624470     
  0.11130000000000000         -2.9112322497667478     
  0.11160000000000002         -3.0025034581813159     
  0.11190000000000001         -2.9239300865251963     
  0.11220000000000001         -2.7036438956435980     
  0.11250000000000000         -2.3794436586019216     
  0.11280000000000000         -1.9941481655626134     
  0.11309999999999999         -1.5931809481217911     
  0.11340000000000001         -1.2195628386439914     
  0.11369999999999998        -0.90882451741561354     
  0.11400000000000000        -0.68771050692961566     
  0.11430000000000000        -0.57192111935495760     
  0.11460000000000002        -0.56464773763258336     
  0.11489999999999999        -0.65749452326257085     
  0.11520000000000001        -0.83184343193812182     
  0.11550000000000001         -1.0616095552047504     
  0.11580000000000000         -1.3163539102222401     
  0.11609999999999999         -1.5638930423378810     
  0.11640000000000002         -1.7746679139471340     
  0.11670000000000001         -1.9237240314015764     
  0.11700000000000001         -1.9927783567454469     
  0.11730000000000000         -1.9728036169974672     
  0.11760000000000000         -1.8628255111197234     
  0.11789999999999999         -1.6697874736726259     
  0.11820000000000001         -1.4083179437929840     
  0.11850000000000001         -1.0974446105868374     
  0.11880000000000000        -0.75871934329813762     
  0.11910000000000000        -0.41414332044915625     
  0.11940000000000002         -8.3699600510559691E-002
  0.11970000000000001         0.21638212154695058     
  0.12000000000000001         0.47547127160834890     
  0.12030000000000000         0.68838366382265903     
  0.12060000000000000         0.85509764900208296     
  0.12089999999999999         0.98127529137838820     
  0.12119999999999999          1.0763366698900256     
  0.12150000000000001          1.1512378663021394     
  0.12180000000000001          1.2179204379470079     
  0.12210000000000000          1.2878271465826785     
  0.12239999999999999          1.3697246150761444     
  0.12270000000000002          1.4687011343887235     
  0.12300000000000001          1.5867677568585421     
  0.12330000000000001          1.7224204907052112     
  0.12360000000000000          1.8702418307230175     
  0.12390000000000000          2.0227429951399500     
  0.12419999999999999          2.1716872508954310     
  0.12450000000000001          2.3081128742697246     
  0.12480000000000001          2.4234572384025626     
  0.12509999999999999          2.5121511778780388     
  0.12540000000000001          2.5709647027975393     
  0.12570000000000003          2.5978723281950948     
  0.12600000000000000          2.5940077308765268     
  0.12630000000000002          2.5632732471743935     
  0.12659999999999999          2.5099839143753542     
  0.12690000000000001          2.4386007425281662     
  0.12719999999999998          2.3540885921567281     
  0.12750000000000000          2.2608127848950659     
  0.12780000000000002          2.1606817081096992     
  0.12809999999999999          2.0541396793544067     
  0.12840000000000001          1.9407924235846892     
  0.12869999999999998          1.8183747316168990     
  0.12900000000000000          1.6828850033373683     
  0.12930000000000003          1.5298308671748764     
  0.12959999999999999          1.3551573562902455     
  0.12990000000000002          1.1543717134789668     
  0.13019999999999998         0.92317506798373650     
  0.13050000000000000         0.65927663850101936     
  0.13080000000000003         0.36196712558136390     
  0.13109999999999999          3.1981596130849610E-002
  0.13140000000000002        -0.32792698136074971     
  0.13169999999999998        -0.71210352690481216     
  0.13200000000000001         -1.1123164364085092     
  0.13229999999999997         -1.5189916438190565     
  0.13260000000000000         -1.9209031671577463     
  0.13290000000000002         -2.3058584024668960     
  0.13319999999999999         -2.6624643190725408     
  0.13350000000000001         -2.9810681101032515     
  0.13380000000000003         -3.2549079282519955     
  0.13410000000000000         -3.4813573359843275     
  0.13440000000000002         -3.6623444308618787     
  0.13469999999999999         -3.8033823554881536     
  0.13500000000000001         -3.9133266677175556     
  0.13529999999999998         -4.0038901331322023     
  0.13560000000000000         -4.0867833279228591     
  0.13590000000000002         -4.1706341156994711     
  0.13619999999999999         -4.2605727550419203     
  0.13650000000000001         -4.3569269735054661     
  0.13680000000000003         -4.4532978827549812     
  0.13710000000000000         -4.5373238167501313     
  0.13740000000000002         -4.5933903174236548     
  0.13769999999999999         -4.6039629849584571     
  0.13800000000000001         -4.5515842546488585     
  0.13829999999999998         -4.4229557855391874     
  0.13860000000000000         -4.2119616340859665     
  0.13890000000000002         -3.9198259963508661     
  0.13919999999999999         -3.5555066311183481     
  0.13950000000000001         -3.1352501588681747     
  0.13979999999999998         -2.6798047503834610     
  0.14010000000000000         -2.2098786875258938     
  0.14040000000000002         -1.7426822753394191     
  0.14069999999999999         -1.2887742672454330     
  0.14100000000000001        -0.84857917203115107     
  0.14130000000000004        -0.41089798030239777     
  0.14160000000000000          4.6310919209588963E-002
  0.14189999999999997         0.55284146100351350     
  0.14219999999999999          1.1415548470085604     
  0.14250000000000002          1.8435975618921390     
  0.14279999999999998          2.6815700645974800     
  0.14310000000000000          3.6636677221328995     
  0.14339999999999997          4.7798468827491689     
  0.14369999999999999          5.9997343908066796     
  0.14400000000000002          7.2734224417275470     
  0.14429999999999998          8.5352385494601606     
  0.14460000000000001          9.7112542931367898     
  0.14490000000000003          10.726978302523889     
  0.14520000000000000          11.516461442980699     
  0.14550000000000002          12.032936605156635     
  0.14579999999999999          12.255068028809887     
  0.14610000000000001          12.189989371256843     
  0.14640000000000003          11.874536277837649     
  0.14670000000000000          11.372029552138372     
  0.14699999999999996          10.761551728262816     
  0.14729999999999999          10.125267880567719     
  0.14760000000000001          9.5368179054446500     
  0.14789999999999998          9.0459809843432026     
  0.14820000000000000          8.6648084825912690     