  -1.4999999999999999E-002     0.0000000000000000     
  -1.4700000000000000E-002     0.0000000000000000     
  -1.4400000000000000E-002     0.0000000000000000     
  -1.4100000000000000E-002     0.0000000000000000     
  -1.3800000000000000E-002     0.0000000000000000     
  -1.3500000000000000E-002     0.0000000000000000     
  -1.3200000000000000E-002     0.0000000000000000     
  -1.2899999999999998E-002     0.0000000000000000     
  -1.2600000000000000E-002     0.0000000000000000     
  -1.2299999999999998E-002     0.0000000000000000     
  -1.2000000000000000E-002     0.0000000000000000     
  -1.1699999999999999E-002     0.0000000000000000     
  -1.1399999999999999E-002     0.0000000000000000     
  -1.1099999999999999E-002     0.0000000000000000     
  -1.0799999999999999E-002     0.0000000000000000     
  -1.0499999999999999E-002     0.0000000000000000     
  -1.0199999999999999E-002     0.0000000000000000     
  -9.8999999999999991E-003     0.0000000000000000     
  -9.5999999999999992E-003     0.0000000000000000     
  -9.2999999999999992E-003     0.0000000000000000     
  -8.9999999999999993E-003     0.0000000000000000     
  -8.6999999999999994E-003     0.0000000000000000     
  -8.3999999999999995E-003     0.0000000000000000     
  -8.0999999999999996E-003     0.0000000000000000     
  -7.7999999999999988E-003     0.0000000000000000     
  -7.4999999999999997E-003     0.0000000000000000     
  -7.1999999999999998E-003     0.0000000000000000     
  -6.8999999999999981E-003     0.0000000000000000     
  -6.5999999999999982E-003     0.0000000000000000     
  -6.3000000000000000E-003     0.0000000000000000     
  -6.0000000000000001E-003     0.0000000000000000     
  -5.6999999999999985E-003     0.0000000000000000     
  -5.3999999999999986E-003     0.0000000000000000     
  -5.1000000000000004E-003     0.0000000000000000     
  -4.7999999999999987E-003     0.0000000000000000     
  -4.5000000000000005E-003     0.0000000000000000     
  -4.1999999999999989E-003     0.0000000000000000     
  -3.8999999999999990E-003     0.0000000000000000     
  -3.5999999999999990E-003     0.0000000000000000     
  -3.2999999999999991E-003    -8.8424315306285309E-038
  -2.9999999999999992E-003    -2.0361739695582866E-037
  -2.6999999999999993E-003    -3.6298115620927866E-037
  -2.3999999999999994E-003     2.3825981718498511E-035
  -2.0999999999999977E-003    -6.8891738515142028E-036
  -1.7999999999999995E-003    -2.2879527544987757E-034
  -1.4999999999999979E-003     2.3705887972640808E-034
  -1.1999999999999997E-003     4.1238934558548809E-033
  -8.9999999999999976E-004    -2.0456887596163285E-032
  -5.9999999999999810E-004     1.9918578902155247E-032
  -2.9999999999999992E-004     1.9369158588209405E-031
   0.0000000000000000         -8.1412886818072653E-031
   3.0000000000000165E-004     5.9936863017197984E-031
   5.9999999999999984E-004     4.3671040651646832E-030
   9.0000000000000149E-004    -1.4958647245215634E-029
   1.2000000000000031E-003     1.1646686710191208E-029
   1.5000000000000013E-003     6.1975236306757721E-029
   1.8000000000000030E-003    -2.5417656352230710E-028
   2.1000000000000012E-003     3.9681249628422404E-028
   2.3999999999999994E-003     7.8570868580623136E-029
   2.7000000000000010E-003    -1.3412851319544406E-027
   2.9999999999999992E-003     2.9738163142522599E-028
   3.3000000000000008E-003     1.0455566160980361E-026
   3.6000000000000025E-003    -2.3921942923043800E-027
   3.9000000000000007E-003    -3.5060546018746222E-025
   4.2000000000000023E-003     2.5215711859288533E-024
   4.5000000000000005E-003    -9.8718376227642341E-024
   4.7999999999999987E-003     1.9841444974790901E-023
   5.1000000000000004E-003     2.7682154148215061E-023
   5.4000000000000020E-003    -4.3429204761489941E-022
   5.7000000000000037E-003     2.1587698623759660E-021
   5.9999999999999984E-003    -7.2013043644068420E-021
   6.3000000000000000E-003     1.7150181141844162E-020
   6.6000000000000017E-003    -2.4510117704456626E-020
   6.9000000000000034E-003    -1.2384082741761767E-020
   7.2000000000000015E-003     2.1312228577286948E-019
   7.5000000000000032E-003    -7.9453472256571754E-019
   7.8000000000000014E-003     1.9050415724446877E-018
   8.0999999999999996E-003    -2.9738952244141798E-018
   8.4000000000000012E-003     1.5700565810807889E-018
   8.7000000000000029E-003     5.8498198759579525E-018
   9.0000000000000011E-003    -1.1310685458527428E-017
   9.2999999999999992E-003    -4.3381914525342371E-017
   9.6000000000000009E-003     2.1136803090620681E-016
   9.8999999999999991E-003     9.0680911034821701E-016
   1.0200000000000001E-002    -1.6871040181752717E-014
   1.0500000000000002E-002     1.2830132543605275E-013
   1.0800000000000004E-002    -6.9376131249017967E-013
   1.1099999999999999E-002     2.9102482319509770E-012
   1.1400000000000000E-002    -9.3720353819079908E-012
   1.1700000000000002E-002     2.0656663134751601E-011
   1.2000000000000004E-002    -1.4442575817161799E-011
   1.2300000000000002E-002    -1.0495342216698497E-010
   1.2600000000000000E-002     4.9598686258198517E-010
   1.2900000000000002E-002    -9.1737554692600392E-010
   1.3200000000000000E-002    -4.2362283611057615E-010
   1.3500000000000002E-002     6.1167342010393085E-009
   1.3800000000000003E-002    -9.7738086456879850E-009
   1.4100000000000001E-002    -1.3920458052090490E-008
   1.4400000000000000E-002     5.9459713702541854E-008
   1.4700000000000001E-002     7.6633445289911447E-009
   1.4999999999999999E-002    -2.4244579714745976E-007
   1.5300000000000001E-002    -2.2241759306110237E-008
   1.5600000000000003E-002     7.5446064185268180E-007
   1.5899999999999997E-002     3.1946274391712675E-007
   1.6199999999999999E-002    -1.9164261770044753E-006
   1.6500000000000001E-002    -1.7302730503517233E-006
   1.6800000000000002E-002     5.7538805655256413E-006
   1.7100000000000004E-002     1.7867243460342784E-005
   1.7400000000000006E-002     2.7206498428253853E-005
   1.7700000000000000E-002     3.5189679235955165E-005
   1.8000000000000002E-002     5.4854162303632787E-005
   1.8300000000000004E-002     9.6109901444364071E-005
   1.8600000000000005E-002     1.5690493435156728E-004
   1.8900000000000000E-002     2.3677131880940876E-004
   1.9200000000000002E-002     3.5355755174928082E-004
   1.9500000000000003E-002     5.3713122201407178E-004
   1.9799999999999998E-002     8.1139179262460295E-004
   2.0100000000000000E-002     1.1976311775119160E-003
   2.0400000000000001E-002     1.7366006159000302E-003
   2.0700000000000003E-002     2.4939176783884479E-003
   2.0999999999999998E-002     3.5423707694360873E-003
   2.1299999999999999E-002     4.9544631932567917E-003
   2.1600000000000001E-002     6.8198064125245261E-003
   2.1900000000000003E-002     9.2557116799013017E-003
   2.2200000000000004E-002     1.2388083662754790E-002
   2.2500000000000006E-002     1.6329997808716912E-002
   2.2800000000000001E-002     2.1183686698077686E-002
   2.3100000000000002E-002     2.7043083810307400E-002
   2.3400000000000004E-002     3.3969157250292814E-002
   2.3699999999999999E-002     4.1949642676526011E-002
   2.4000000000000000E-002     5.0878675137726592E-002
   2.4300000000000002E-002     6.0550739494426242E-002
   2.4599999999999997E-002     7.0635720893810872E-002
   2.4900000000000005E-002     8.0645034244654301E-002
   2.5200000000000000E-002     8.9920533737742225E-002
   2.5499999999999995E-002     9.7652494320016103E-002
   2.5800000000000003E-002    0.10290228915278421     
   2.6099999999999998E-002    0.10462177927001104     
   2.6400000000000007E-002    0.10171222812437408     
   2.6700000000000002E-002     9.3128847289802419E-002
   2.6999999999999996E-002     7.7972551308433502E-002
   2.7300000000000005E-002     5.5585220293833615E-002
   2.7600000000000000E-002     2.5651495613023712E-002
   2.7900000000000008E-002    -1.1688948839546631E-002
   2.8200000000000003E-002    -5.5739135718258281E-002
   2.8499999999999998E-002   -0.10522491006706991     
   2.8800000000000006E-002   -0.15829900847908629     
   2.9100000000000001E-002   -0.21258985791522722     
   2.9400000000000003E-002   -0.26532043332856947     
   2.9700000000000004E-002   -0.31346435620772262     
   3.0000000000000006E-002   -0.35396618283288817     
   3.0300000000000001E-002   -0.38398295567784402     
   3.0600000000000002E-002   -0.40113951959028782     
   3.0900000000000004E-002   -0.40376656634728469     
   3.1199999999999999E-002   -0.39108173260625101     
   3.1500000000000007E-002   -0.36329089245406543     
   3.1800000000000002E-002   -0.32169460387235382     
   3.2099999999999997E-002   -0.26862111912591935     
   3.2400000000000005E-002   -0.20728586587985909     
   3.2700000000000000E-002   -0.14155654954677122     
   3.3000000000000002E-002    -7.5704241058729860E-002
   3.3300000000000003E-002    -1.4064763003074909E-002
   3.3599999999999998E-002     3.9286299131078478E-002
   3.3900000000000000E-002     8.0839996285312576E-002
   3.4200000000000001E-002    0.10793393870724000     
   3.4500000000000003E-002    0.11902653120535600     
   3.4799999999999998E-002    0.11377472321159887     
   3.5099999999999999E-002     9.2988327193431086E-002
   3.5400000000000001E-002     5.8706698035781546E-002
   3.5699999999999996E-002     1.4090420476394749E-002
   3.6000000000000004E-002    -3.6862566386695383E-002
   3.6299999999999999E-002    -8.9575411618595613E-002
   3.6600000000000008E-002   -0.13907475239147393     
   3.6900000000000002E-002   -0.18030296897495113     
   3.7199999999999997E-002   -0.20854703103130490     
   3.7500000000000006E-002   -0.21964905845180205     
   3.7800000000000000E-002   -0.21020969460465189     
   3.8100000000000009E-002   -0.17787936292249640     
   3.8400000000000004E-002   -0.12153154377123965     
   3.8699999999999998E-002    -4.1401008293332708E-002
   3.9000000000000007E-002     6.0941004764192730E-002
   3.9300000000000002E-002    0.18267802730525995     
   3.9600000000000003E-002    0.31980795980461174     
   3.9900000000000005E-002    0.46722114903755951     
   4.0200000000000000E-002    0.61902590789606293     
   4.0500000000000001E-002    0.76896000619170479     
   4.0800000000000003E-002    0.91054224854918786     
   4.1100000000000005E-002     1.0373311901443891     
   4.1399999999999999E-002     1.1432994308360733     
   4.1700000000000008E-002     1.2231039101286356     
   4.2000000000000003E-002     1.2722652893703312     
   4.2299999999999997E-002     1.2871891316521769     
   4.2600000000000006E-002     1.2653915169194931     
   4.2900000000000001E-002     1.2056418745723718     
   4.3200000000000002E-002     1.1079319618228425     
   4.3500000000000004E-002    0.97347897685860119     
   4.3799999999999999E-002    0.80476899515217681     
   4.4100000000000000E-002    0.60565199382970647     
   4.4400000000000002E-002    0.38142247996736778     
   4.4700000000000004E-002    0.13865575031982891     
   4.4999999999999998E-002   -0.11485030908208849     
   4.5300000000000000E-002   -0.37015400130269782     
   4.5600000000000002E-002   -0.61741936457729629     
   4.5899999999999996E-002   -0.84626087428512520     
   4.6200000000000005E-002    -1.0463167091420331     
   4.6500000000000000E-002    -1.2078044245325046     
   4.6799999999999994E-002    -1.3220049528409703     
   4.7100000000000003E-002    -1.3819824943137391     
   4.7399999999999998E-002    -1.3833488798778575     
   4.7700000000000006E-002    -1.3246185633304250     
   4.8000000000000001E-002    -1.2074429706840206     
   4.8300000000000010E-002    -1.0367644225033104     
   4.8600000000000004E-002   -0.82074594819192725     
   4.8899999999999999E-002   -0.57056859298696949     
   4.9200000000000008E-002   -0.29952541284071721     
   4.9500000000000002E-002    -2.2213236918259938E-002
   4.9800000000000011E-002    0.24601785947014676     
   5.0100000000000006E-002    0.49020356241277874     
   5.0400000000000000E-002    0.69670915680061896     
   5.0700000000000009E-002    0.85405470458638533     
   5.1000000000000004E-002    0.95353847872465280     
   5.1299999999999998E-002    0.98958037194303472     
   5.1600000000000007E-002    0.96025871336613022     
   5.1900000000000002E-002    0.86734302191947776     
   5.2200000000000010E-002    0.71588963487270618     
   5.2500000000000005E-002    0.51401654108183692     
   5.2800000000000000E-002    0.27239128973704929     
   5.3099999999999994E-002     3.6961161355915095E-003
   5.3400000000000003E-002   -0.27826511278402233     
   5.3699999999999998E-002   -0.55954059976847681     
   5.4000000000000006E-002   -0.82670083426256902     
   5.4300000000000001E-002    -1.0674286081613715     
   5.4599999999999996E-002    -1.2714710019731825     
   5.4900000000000004E-002    -1.4314114046363642     
   5.5199999999999999E-002    -1.5426566840366931     
   5.5499999999999994E-002    -1.6035654519713773     
   5.5800000000000002E-002    -1.6155156413035812     
   5.6099999999999997E-002    -1.5826281052694711     
   5.6400000000000006E-002    -1.5110367688759965     
   5.6700000000000000E-002    -1.4077475546607445     
   5.6999999999999995E-002    -1.2802859914405431     
   5.7300000000000004E-002    -1.1358843268594399     
   5.7599999999999998E-002   -0.98028921899563670     
   5.7900000000000007E-002   -0.81743654354465534     
   5.8200000000000002E-002   -0.64912813063997987     
   5.8499999999999996E-002   -0.47516477658975020     
   5.8800000000000005E-002   -0.29359373957669277     
   5.9100000000000000E-002   -0.10102005344793952     
   5.9400000000000008E-002    0.10617975064810103     
   5.9700000000000003E-002    0.33116333237532003     
   6.0000000000000012E-002    0.57561345272116871     
   6.0300000000000006E-002    0.83896695544510536     
   6.0600000000000001E-002     1.1179593813844448     
   6.0900000000000010E-002     1.4060538738650870     
   6.1200000000000004E-002     1.6933652635941314     
   6.1500000000000013E-002     1.9668949955187713     
   6.1800000000000008E-002     2.2114436057634990     
   6.2100000000000002E-002     2.4103916563236680     
   6.2399999999999997E-002     2.5462791073696565     
   6.2700000000000006E-002     2.6025867658111110     
   6.3000000000000000E-002     2.5652040777286658     
   6.3300000000000009E-002     2.4233836845595107     
   6.3600000000000004E-002     2.1709861620097968     
   6.3899999999999998E-002     1.8076059907411093     
   6.4199999999999993E-002     1.3396105717026643     
   6.4500000000000002E-002    0.78018604620470811     
   6.4800000000000010E-002    0.14912257352204894     
   6.5100000000000005E-002   -0.52737976067768955     
   6.5400000000000000E-002    -1.2179516355785878     
   6.5700000000000008E-002    -1.8875926872599429     
   6.5999999999999989E-002    -2.4997580654314930     
   6.6299999999999998E-002    -3.0185925800750510     
   6.6600000000000006E-002    -3.4112298059376940     
   6.6900000000000001E-002    -3.6501053310418001     
   6.7199999999999996E-002    -3.7152204521190413     
   6.7500000000000004E-002    -3.5958989798192817     
   6.7800000000000013E-002    -3.2916130210253556     
   6.8099999999999994E-002    -2.8123723830064478     
   6.8400000000000002E-002    -2.1786676042247137     
   6.8700000000000011E-002    -1.4202526286165096     
   6.8999999999999992E-002   -0.57439570571547804     
   6.9300000000000000E-002    0.31639644235698938     
   6.9600000000000009E-002     1.2067669104208374     
   6.9900000000000004E-002     2.0510901854201329     
   7.0199999999999999E-002     2.8064647262996090     
   7.0500000000000007E-002     3.4347590313026615     
   7.0800000000000016E-002     3.9047684472007660     
   7.1099999999999997E-002     4.1937220365788477     
   7.1400000000000005E-002     4.2881367948043305     
   7.1700000000000000E-002     4.1845837987830521     
   7.1999999999999995E-002     3.8893201309133332     
   7.2300000000000003E-002     3.4175931347110406     
   7.2600000000000012E-002     2.7930057096067884     
   7.2900000000000006E-002     2.0461679863413522     
   7.3200000000000001E-002     1.2129570023747007     
   7.3499999999999996E-002    0.33262252716776786     
   7.3800000000000004E-002   -0.55383246119910723     
   7.4099999999999999E-002    -1.4053479163687337     
   7.4400000000000008E-002    -2.1829001872710840     
   7.4700000000000003E-002    -2.8515774767213387     
   7.5000000000000011E-002    -3.3818382386295838     
   7.5299999999999992E-002    -3.7505422928222174     
   7.5600000000000001E-002    -3.9425561137846046     
   7.5900000000000009E-002    -3.9512574050749123     
   7.6200000000000004E-002    -3.7787929625010577     
   7.6499999999999999E-002    -3.4357273232949552     
   7.6800000000000007E-002    -2.9401416582276880     
   7.7099999999999988E-002    -2.3173688787344560     
   7.7399999999999997E-002    -1.5981643068033335     
   7.7700000000000005E-002   -0.81643329939566200     
   7.8000000000000014E-002    -8.2147667892318310E-003
   7.8299999999999995E-002    0.79056061296993718     
   7.8600000000000003E-002     1.5456971600663927     
   7.8900000000000012E-002     2.2261942807904660     
   7.9199999999999993E-002     2.8059098565605183     
   7.9500000000000001E-002     3.2638591771888912     
   7.9800000000000010E-002     3.5851322382499120     
   8.0100000000000018E-002     3.7613508727184524     
   8.0399999999999999E-002     3.7896643692338188     
   8.0700000000000008E-002     3.6727365135499213     
   8.1000000000000003E-002     3.4188139314979793     
   8.1299999999999997E-002     3.0407587883362197     
   8.1600000000000006E-002     2.5549388971877960     
   8.1900000000000014E-002     1.9808553488260472     
   8.2199999999999995E-002     1.3408896995559942     
   8.2500000000000004E-002    0.65979315266975469     
   8.2799999999999999E-002    -3.6309930926336165E-002
   8.3100000000000007E-002   -0.72063705523650157     
   8.3400000000000002E-002    -1.3657492249742944     
   8.3700000000000011E-002    -1.9446760613089609     
   8.4000000000000005E-002    -2.4325109685768851     
   8.4300000000000000E-002    -2.8066123631078881     
   8.4599999999999995E-002    -3.0484472402475973     
   8.4900000000000003E-002    -3.1446447633507972     
   8.5199999999999998E-002    -3.0878260190275597     
   8.5500000000000007E-002    -2.8781314962143085     
   8.5800000000000001E-002    -2.5231503895171841     
   8.6100000000000010E-002    -2.0383950037735161     
   8.6399999999999991E-002    -1.4470022177521713     
   8.6699999999999999E-002   -0.77828765961895385     
   8.7000000000000008E-002    -6.7167694917105614E-002
   8.7300000000000003E-002    0.64818576317748722     
   8.7599999999999997E-002     1.3289077109208343     
   8.7900000000000006E-002     1.9368482944164178     
   8.8200000000000014E-002     2.4370894574719202     
   8.8499999999999995E-002     2.7998624760454902     
   8.8800000000000004E-002     3.0020917323010536     
   8.9100000000000013E-002     3.0290625137914873     
   8.9399999999999993E-002     2.8741906748474548     
   8.9700000000000002E-002     2.5389439708702781     
   9.0000000000000011E-002     2.0334870997181582     
   9.0299999999999991E-002     1.3754566771233385     
   9.0600000000000000E-002    0.58861559797636609     
   9.0900000000000009E-002   -0.29784774717928642     
   9.1200000000000017E-002    -1.2507148637479872     
   9.1499999999999998E-002    -2.2335152854580276     
   9.1800000000000007E-002    -3.2080882746058155     
   9.2100000000000001E-002    -4.1363410677290915     
   9.2399999999999996E-002    -4.9805356807458878     
   9.2700000000000005E-002    -5.7052614718595720     
   9.3000000000000013E-002    -6.2792913692353807     
   9.3300000000000008E-002    -6.6761773900622359     
   9.3600000000000003E-002    -6.8764381329203275     
   9.3899999999999997E-002    -6.8682676334055941     
   9.4200000000000006E-002    -6.6479663371004847     
   9.4500000000000001E-002    -6.2211109286666897     
   9.4800000000000009E-002    -5.6013449992060771     
   9.5100000000000004E-002    -4.8091454435972878     
   9.5399999999999999E-002    -3.8712329474116132     
   9.5699999999999993E-002    -2.8176256411192071     
   9.6000000000000002E-002    -1.6801160655099139     
   9.6300000000000011E-002   -0.48949247521745165     
   9.6600000000000005E-002    0.72677651236820395     
   9.6900000000000000E-002     1.9443996938563188     
   9.7200000000000009E-002     3.1436216571200291     
   9.7499999999999989E-002     4.3097459261375999     
   9.7799999999999998E-002     5.4312558215822193     
   9.8100000000000007E-002     6.4983213205394890     
   9.8400000000000015E-002     7.5008430357828360     
   9.8699999999999996E-002     8.4266739418656584     
   9.9000000000000005E-002     9.2607713230881359     
   9.9300000000000013E-002     9.9827246923323685     
   9.9599999999999994E-002     10.566681073754722     
   9.9900000000000003E-002     10.983212075453224     
  0.10020000000000001          11.200432734572871     
  0.10049999999999999          11.185683741757430     
  0.10080000000000000          10.908779090253404     
  0.10110000000000001          10.345230239907096     
  0.10140000000000000          9.4795592926639074     
  0.10170000000000000          8.3070124875687554     
  0.10200000000000001          6.8355411518628273     
  0.10230000000000002          5.0869960132724543     
  0.10260000000000000          3.0972771673421136     
  0.10290000000000001         0.91553346691489690     
  0.10320000000000000         -1.3979643124030048     
  0.10350000000000001         -3.7740474565912336     
  0.10380000000000000         -6.1367960305866234     
  0.10410000000000001         -8.4063937993091908     
  0.10440000000000001         -10.502855195735123     
  0.10470000000000000         -12.348899990919278     
  0.10500000000000000         -13.872268303547315     
  0.10530000000000000         -15.009458074666497     
  0.10560000000000000         -15.708172712186183     
  0.10590000000000001         -15.929165523774884     
  0.10620000000000000         -15.649442612738483     
  0.10650000000000001         -14.864182513297010     
  0.10679999999999999         -13.587448235843055     
  0.10710000000000000         -11.853165744202272     
  0.10740000000000001         -9.7155793641683204     
  0.10770000000000000         -7.2480646413253282     
  0.10800000000000000         -4.5401330163321347     
  0.10830000000000001         -1.6946734283477269     
  0.10859999999999999          1.1761693854226252     
  0.10890000000000000          3.9566972794360424     
  0.10920000000000001          6.5331055664353528     
  0.10950000000000001          8.7997345821396635     
  0.10979999999999999          10.664979760889736     
  0.11009999999999999          12.056425387759646     
  0.11040000000000001          12.924147875355175     
  0.11070000000000001          13.244174806127546     
  0.11100000000000000          13.019692945971542     
  0.11130000000000000          12.280132759618994     
  0.11160000000000002          11.079039540632664     
  0.11190000000000001          9.4910732905466375     
  0.11220000000000001          7.6076718799004084     
  0.11250000000000000          5.5313600367760216     
  0.11280000000000000          3.3703291153801445     
  0.11309999999999999          1.2332947233834202     
  0.11340000000000001        -0.77643253141422974     
  0.11369999999999998         -2.5660090789964016     
  0.11400000000000000         -4.0564955513590775     
  0.11430000000000000         -5.1875499630433239     
  0.11460000000000002         -5.9195947997398939     
  0.11489999999999999         -6.2351558654874140     
  0.11520000000000001         -6.1404430126109162     
  0.11550000000000001         -5.6638824031164461     
  0.11580000000000000         -4.8545666918356574     
  0.11609999999999999         -3.7801043737713798     
  0.11640000000000002         -2.5223664697991950     
  0.11670000000000001         -1.1724869940792786     
  0.11700000000000001         0.17549713463242256     
  0.11730000000000000          1.4296765438023442     
  0.11760000000000000          2.5054683511885827     
  0.11789999999999999          3.3328219556589858     
  0.11820000000000001          3.8607148553698778     
  0.11850000000000001          4.0586503790692063     
  0.11880000000000000          3.9194719313591975     
  0.11910000000000000          3.4606777160136062     
  0.11940000000000002          2.7212331872671314     
  0.11970000000000001          1.7583872032710275     
  0.12000000000000001         0.64384756670114696     
  0.12030000000000000        -0.54202532029944450     
  0.12060000000000000         -1.7162139502530209     
  0.12089999999999999         -2.8000311754999814     
  0.12119999999999999         -3.7234801500408210     
  0.12150000000000001         -4.4298906715059747     
  0.12180000000000001         -4.8815658238625588     
  0.12210000000000000         -5.0603174223902840     
  0.12239999999999999         -4.9677391097480523     
  0.12270000000000002         -4.6254599601565189     
  0.12300000000000001         -4.0720553297477977     
  0.12330000000000001         -3.3596750150484809     
  0.12360000000000000         -2.5491471274725512     
  0.12390000000000000         -1.7044362103406669     
  0.12419999999999999        -0.88871261029042792     
  0.12450000000000001        -0.15885079824256909     
  0.12480000000000001         0.43946321915319331     
  0.12509999999999999         0.87412908341367057     
  0.12540000000000001          1.1290822489290093     
  0.12570000000000003          1.2045024229065309     
  0.12600000000000000          1.1154068090616480     
  0.12630000000000002         0.89128327171373201     
  0.12659999999999999         0.57200783288926260     
  0.12690000000000001         0.20273900444726856     
  0.12719999999999998        -0.16907160496601747     
  0.12750000000000000        -0.49801371868743871     
  0.12780000000000002        -0.74508461018447747     
  0.12809999999999999        -0.88127695600625700     
  0.12840000000000001        -0.88981513887183894     
  0.12869999999999998        -0.76577271197486296     
  0.12900000000000000        -0.51720893527793521     
  0.12930000000000003        -0.16452158229694280     
  0.12959999999999999         0.26439677625903002     
  0.12990000000000002         0.73582727006542825     
  0.13019999999999998          1.2127646660445031     
  0.13050000000000000          1.6602916119355235     
  0.13080000000000003          2.0481727613305414     
  0.13109999999999999          2.3530815699235390     
  0.13140000000000002          2.5603063410090456     
  0.13169999999999998          2.6645811562464345     
  0.13200000000000001          2.6711227019265280     
  0.13229999999999997          2.5923463451559172     
  0.13260000000000000          2.4460644496618045     
  0.13290000000000002          2.2554291013753414     
  0.13319999999999999          2.0444863064639449     
  0.13350000000000001          1.8349942972847870     
  0.13380000000000003          1.6458537664452848     
  0.13410000000000000          1.4905905496817908     
  0.13440000000000002          1.3767468568330870     
  0.13469999999999999          1.3057178138549901     
  0.13500000000000001          1.2727417964450609     
  0.13529999999999998          1.2689730333544986     
  0.13560000000000000          1.2820472094059454     
  0.13590000000000002          1.2980091094189845     
  0.13619999999999999          1.3045516996188127     
  0.13650000000000001          1.2896759935185500     
  0.13680000000000003          1.2443253407625505     
  0.13710000000000000          1.1643216012495827     
  0.13740000000000002          1.0481793302499689     
  0.13769999999999999         0.89778344977256097     
  0.13800000000000001         0.71785980574449226     
  0.13829999999999998         0.51500113802390146     
  0.13860000000000000         0.29724187312961181     
  0.13890000000000002          7.1295143644154013E-002
  0.13919999999999999        -0.15672517956430809     
  0.13950000000000001        -0.38122112128815644     
  0.13979999999999998        -0.59899037253770437     
  0.14010000000000000        -0.80786759517316331     
  0.14040000000000002         -1.0072648836533720     
  0.14069999999999999         -1.1977888812566615     
  0.14100000000000001         -1.3795817257207581     
  0.14130000000000004         -1.5528113339031151     
  0.14160000000000000         -1.7180505710106644     
  0.14189999999999997         -1.8747870772131421     
  0.14219999999999999         -2.0223223065822040     
  0.14250000000000002         -2.1591868328563848     
  0.14279999999999998         -2.2832148431590298     
  0.14310000000000000         -2.3935689070001800     
  0.14339999999999997         -2.4890585111326828     
  0.14369999999999999         -2.5682679160916138     
  0.14400000000000002         -2.6309643352076648     
  0.14429999999999998         -2.6768365890742984     
  0.14460000000000001         -2.7062680116788869     
  0.14490000000000003         -2.7199736786097191     
  0.14520000000000000         -2.7178893968059299     
  0.14550000000000002         -2.7007118918812836     
  0.14579999999999999         -2.6680571635588137     
  0.14610000000000001         -2.6187967589900154     
  0.14640000000000003         -2.5519378306755698     
  0.14670000000000000         -2.4652507254288736     
  0.14699999999999996         -2.3562073875955463     
  0.14729999999999999         -2.2227262438186557     
  0.14760000000000001         -2.0618714035158376     
  0.14789999999999998         -1.8718675305056820     
  0.14820000000000000         -1.6520054604362002     