  -1.4999999999999999E-002     0.0000000000000000     
  -1.4700000000000000E-002     0.0000000000000000     
  -1.4400000000000000E-002     0.0000000000000000     
  -1.4100000000000000E-002     0.0000000000000000     
  -1.3800000000000000E-002     0.0000000000000000     
  -1.3500000000000000E-002     0.0000000000000000     
  -1.3200000000000000E-002     0.0000000000000000     
  -1.2899999999999998E-002     0.0000000000000000     
  -1.2600000000000000E-002     0.0000000000000000     
  -1.2299999999999998E-002     0.0000000000000000     
  -1.2000000000000000E-002     0.0000000000000000     
  -1.1699999999999999E-002     0.0000000000000000     
  -1.1399999999999999E-002     0.0000000000000000     
  -1.1099999999999999E-002     0.0000000000000000     
  -1.0799999999999999E-002     0.0000000000000000     
  -1.0499999999999999E-002     0.0000000000000000     
  -1.0199999999999999E-002     0.0000000000000000     
  -9.8999999999999991E-003     3.1621006868767770E-042
  -9.5999999999999992E-003    -2.0598319974431260E-040
  -9.2999999999999992E-003     5.0872884943113392E-037
  -8.9999999999999993E-003    -2.1899440950038353E-035
  -8.6999999999999994E-003     1.4444574431462282E-034
  -8.3999999999999995E-003    -2.9925515909501452E-034
  -8.0999999999999996E-003    -4.1086615974927026E-033
  -7.7999999999999988E-003     2.7520202958140476E-032
  -7.4999999999999997E-003    -8.2250740683725703E-032
  -7.1999999999999998E-003     8.2113003963948342E-032
  -6.8999999999999981E-003    -5.1082433345214652E-031
  -6.5999999999999982E-003     1.2362923536237577E-029
  -6.3000000000000000E-003    -1.2408484474657636E-028
  -6.0000000000000001E-003     8.4776005569855823E-028
  -5.6999999999999985E-003    -4.7385812762295628E-027
  -5.3999999999999986E-003     2.3513116325481767E-026
  -5.1000000000000004E-003    -1.0632708580575333E-025
  -4.7999999999999987E-003     4.3587465290744347E-025
  -4.5000000000000005E-003    -1.5947099712587843E-024
  -4.1999999999999989E-003     5.1325714475956382E-024
  -3.8999999999999990E-003    -1.4365937935375083E-023
  -3.5999999999999990E-003     3.4554102445788595E-023
  -3.2999999999999991E-003    -7.0066931582977332E-023
  -2.9999999999999992E-003     1.1491684182662791E-022
  -2.6999999999999993E-003    -1.3559669786198337E-022
  -2.3999999999999994E-003     5.8287114229284707E-023
  -2.0999999999999977E-003     1.9478750620790868E-022
  -1.7999999999999995E-003    -5.1620824152789827E-022
  -1.4999999999999979E-003     9.6545417400981853E-023
  -1.1999999999999997E-003     3.5941266462124776E-021
  -8.9999999999999976E-004    -1.6192568922858842E-020
  -5.9999999999999810E-004     4.7080263148246403E-020
  -2.9999999999999992E-004    -1.0646664752163780E-019
   0.0000000000000000          1.9533196819203318E-019
   3.0000000000000165E-004    -2.8976969639069030E-019
   5.9999999999999984E-004     3.4025707415696784E-019
   9.0000000000000149E-004    -3.4327908423693537E-019
   1.2000000000000031E-003     5.8304179041651149E-019
   1.5000000000000013E-003    -2.1393893077208610E-018
   1.8000000000000030E-003     7.6492822546983227E-018
   2.1000000000000012E-003    -2.2054345017958393E-017
   2.3999999999999994E-003     5.2698444485608451E-017
   2.7000000000000010E-003    -1.0771690859533056E-016
   2.9999999999999992E-003     1.9108650570355181E-016
   3.3000000000000008E-003    -2.9162413573107299E-016
   3.6000000000000025E-003     3.6184213475513855E-016
   3.9000000000000007E-003    -2.8482013991668301E-016
   4.2000000000000023E-003    -1.5540270299705409E-016
   4.5000000000000005E-003     1.2432955752479316E-015
   4.7999999999999987E-003    -3.1647788109518099E-015
   5.1000000000000004E-003     5.7861486571161681E-015
   5.4000000000000020E-003    -8.9068072495850581E-015
   5.7000000000000037E-003     1.3672426874796467E-014
   5.9999999999999984E-003    -2.4039296805091338E-014
   6.3000000000000000E-003     4.2631787275425765E-014
   6.6000000000000017E-003    -5.2943941019941675E-014
   6.9000000000000034E-003    -7.5144823974449917E-015
   7.2000000000000015E-003     2.3574534325847641E-013
   7.5000000000000032E-003    -5.9798415450473819E-013
   7.8000000000000014E-003     5.3258601483039616E-013
   8.0999999999999996E-003     1.1752705102507509E-012
   8.4000000000000012E-003    -4.5793208150572349E-012
   8.7000000000000029E-003     5.0821484524491005E-012
   9.0000000000000011E-003    -1.1980999571267457E-012
   9.2999999999999992E-003     3.5200071372954581E-011
   9.6000000000000009E-003    -2.0685203477763181E-010
   9.8999999999999991E-003     3.7179605475658117E-010
   1.0200000000000001E-002     6.3044916325108462E-010
   1.0500000000000002E-002    -4.4951562784233090E-009
   1.0800000000000004E-002     7.3806365026068200E-009
   1.1099999999999999E-002     8.2564776911010914E-009
   1.1400000000000000E-002    -5.0449329477466139E-008
   1.1700000000000002E-002     4.0790377052301142E-008
   1.2000000000000004E-002     1.4536795334857102E-007
   1.2300000000000002E-002    -2.7171518328270524E-007
   1.2600000000000000E-002    -3.1913028033914748E-007
   1.2900000000000002E-002     7.9188912077966653E-007
   1.3200000000000000E-002     8.3033917202143345E-007
   1.3500000000000002E-002    -1.6637403506078197E-006
   1.3800000000000003E-002    -3.1847485917951314E-006
   1.4100000000000001E-002     2.3262371702946139E-006
   1.4400000000000000E-002     1.8666040852105421E-005
   1.4700000000000001E-002     4.5657580802947911E-005
   1.4999999999999999E-002     8.3631022196532453E-005
   1.5300000000000001E-002     1.3745606404286763E-004
   1.5600000000000003E-002     2.1727542200396761E-004
   1.5899999999999997E-002     3.3917360282907416E-004
   1.6199999999999999E-002     5.2289292154479952E-004
   1.6500000000000001E-002     7.9783649865887451E-004
   1.6800000000000002E-002     1.2131155182296329E-003
   1.7100000000000004E-002     1.8327646815890883E-003
   1.7400000000000006E-002     2.7363015308890194E-003
   1.7700000000000000E-002     4.0291895873679675E-003
   1.8000000000000002E-002     5.8471754751185578E-003
   1.8300000000000004E-002     8.3646896521645722E-003
   1.8600000000000005E-002     1.1800018171546483E-002
   1.8900000000000000E-002     1.6410873778886524E-002
   1.9200000000000002E-002     2.2489196606979553E-002
   1.9500000000000003E-002     3.0352278331275462E-002
   1.9799999999999998E-002     4.0323889384262318E-002
   2.0100000000000000E-002     5.2701826778794043E-002
   2.0400000000000001E-002     6.7722165370055029E-002
   2.0700000000000003E-002     8.5517624704391032E-002
   2.0999999999999998E-002    0.10603688218497405     
   2.1299999999999999E-002    0.12894697322088539     
   2.1600000000000001E-002    0.15355911200980696     
   2.1900000000000003E-002    0.17875125765230646     
   2.2200000000000004E-002    0.20289483233645689     
   2.2500000000000006E-002    0.22381388009064626     
   2.2800000000000001E-002    0.23876698340598507     
   2.3100000000000002E-002    0.24451099434940804     
   2.3400000000000004E-002    0.23740482255332207     
   2.3699999999999999E-002    0.21360176175293216     
   2.4000000000000000E-002    0.16934230609090123     
   2.4300000000000002E-002    0.10131521853603756     
   2.4599999999999997E-002     7.1007705604286646E-003
   2.4900000000000005E-002   -0.11438881272703634     
   2.5200000000000000E-002   -0.26250579789454870     
   2.5499999999999995E-002   -0.43444910378146184     
   2.5800000000000003E-002   -0.62500540691785444     
   2.6099999999999998E-002   -0.82646287303982902     
   2.6400000000000007E-002    -1.0286977224857237     
   2.6700000000000002E-002    -1.2196381416564910     
   2.6999999999999996E-002    -1.3858575573285081     
   2.7300000000000005E-002    -1.5134185619902500     
   2.7600000000000000E-002    -1.5889229675672969     
   2.7900000000000008E-002    -1.6006329739791254     
   2.8200000000000003E-002    -1.5396623846141089     
   2.8499999999999998E-002    -1.4009730706977659     
   2.8800000000000006E-002    -1.1842210704714120     
   2.9100000000000001E-002   -0.89421570872596845     
   2.9400000000000003E-002   -0.54090767072123758     
   2.9700000000000004E-002   -0.13899330401882418     
   3.0000000000000006E-002    0.29288156039382018     
   3.0300000000000001E-002    0.73344561620715276     
   3.0600000000000002E-002     1.1602137521430178     
   3.0900000000000004E-002     1.5512557500264963     
   3.1199999999999999E-002     1.8869020822831053     
   3.1500000000000007E-002     2.1510159770685942     
   3.1800000000000002E-002     2.3325455563713189     
   3.2099999999999997E-002     2.4260215533641425     
   3.2400000000000005E-002     2.4319252986548214     
   3.2700000000000000E-002     2.3565846803461783     
   3.3000000000000002E-002     2.2111862604023118     
   3.3300000000000003E-002     2.0107520172012112     
   3.3599999999999998E-002     1.7727008407574507     
   3.3900000000000000E-002     1.5150777080798923     
   3.4200000000000001E-002     1.2549255473143539     
   3.4500000000000003E-002     1.0069110645197104     
   3.4799999999999998E-002    0.78172172544048424     
   3.5099999999999999E-002    0.58546610012591394     
   3.5400000000000001E-002    0.41917744952089397     
   3.5699999999999996E-002    0.27881006973655653     
   3.6000000000000004E-002    0.15615139656050042     
   3.6299999999999999E-002     3.9293905738289461E-002
   3.6600000000000008E-002    -8.5290853410017686E-002
   3.6900000000000002E-002   -0.23123388039350193     
   3.7199999999999997E-002   -0.41074583805231818     
   3.7500000000000006E-002   -0.63199915542914153     
   3.7800000000000000E-002   -0.89832952929796694     
   3.8100000000000009E-002    -1.2066200667610705     
   3.8400000000000004E-002    -1.5466476914692142     
   3.8699999999999998E-002    -1.9015292047124752     
   3.9000000000000007E-002    -2.2477671643203982     
   3.9300000000000002E-002    -2.5573754918675040     
   3.9600000000000003E-002    -2.7998167852044680     
   3.9900000000000005E-002    -2.9446005227067165     
   4.0200000000000000E-002    -2.9644481401680864     
   4.0500000000000001E-002    -2.8381008774001031     
   4.0800000000000003E-002    -2.5532106128326455     
   4.1100000000000005E-002    -2.1083205936746436     
   4.1399999999999999E-002    -1.5143945903239076     
   4.1700000000000008E-002   -0.79509380076590552     
   4.2000000000000003E-002     1.3971178538599763E-002
   4.2299999999999997E-002    0.86703520172851978     
   4.2600000000000006E-002     1.7112994392536853     
   4.2900000000000001E-002     2.4902045993944131     
   4.3200000000000002E-002     3.1479938978095086     
   4.3500000000000004E-002     3.6339659104008581     
   4.3799999999999999E-002     3.9060893937257495     
   4.4100000000000000E-002     3.9354795566761291     
   4.4400000000000002E-002     3.7083367651475587     
   4.4700000000000004E-002     3.2279836055720703     
   4.4999999999999998E-002     2.5153321798982420     
   4.5300000000000000E-002     1.6073119633553947     
   4.5600000000000002E-002    0.55587015105429927     
   4.5899999999999996E-002   -0.57643704427807663     
   4.6200000000000005E-002    -1.7197444853318353     
   4.6500000000000000E-002    -2.8011683854217875     
   4.6799999999999994E-002    -3.7507246800108929     
   4.7100000000000003E-002    -4.5049749401715093     
   4.7399999999999998E-002    -5.0121689202973805     
   4.7700000000000006E-002    -5.2358024324632293     
   4.8000000000000001E-002    -5.1566081290222687     
   4.8300000000000010E-002    -4.7751950863430039     
   4.8600000000000004E-002    -4.1114294036155723     
   4.8899999999999999E-002    -3.2034622163218796     
   4.9200000000000008E-002    -2.1059262822394960     
   4.9500000000000002E-002   -0.88584961415930019     
   4.9800000000000011E-002    0.38160294329581723     
   5.0100000000000006E-002     1.6179245351432237     
   5.0400000000000000E-002     2.7471422621302461     
   5.0700000000000009E-002     3.7004947774435175     
   5.1000000000000004E-002     4.4214113355656162     
   5.1299999999999998E-002     4.8695075992026604     
   5.1600000000000007E-002     5.0227034006478970     
   5.1900000000000002E-002     4.8790496625989723     
   5.2200000000000010E-002     4.4563717602586532     
   5.2500000000000005E-002     3.7899295956668384     
   5.2800000000000000E-002     2.9302142059507372     
   5.3099999999999994E-002     1.9384069751180695     
   5.3400000000000003E-002    0.88110464824908563     
   5.3699999999999998E-002   -0.17406980613135520     
   5.4000000000000006E-002    -1.1639613656294241     
   5.4300000000000001E-002    -2.0341471646009217     
   5.4599999999999996E-002    -2.7422385825426954     
   5.4900000000000004E-002    -3.2606329698076260     
   5.5199999999999999E-002    -3.5769311478728922     
   5.5499999999999994E-002    -3.6937905284338801     
   5.5800000000000002E-002    -3.6274826099543462     
   5.6099999999999997E-002    -3.4047977602938020     
   5.6400000000000006E-002    -3.0602955760194139     
   5.6700000000000000E-002    -2.6322707854409297     
   5.6999999999999995E-002    -2.1587868251282374     
   5.7300000000000004E-002    -1.6749415465964062     
   5.7599999999999998E-002    -1.2097782170769928     
   5.7900000000000007E-002   -0.78429930467355102     
   5.8200000000000002E-002   -0.41053932592109788     
   5.8499999999999996E-002    -9.1403354418180954E-002
   5.8800000000000005E-002    0.17903652439857887     
   5.9100000000000000E-002    0.41341498476263111     
   5.9400000000000008E-002    0.63016901666359593     
   5.9700000000000003E-002    0.85059560738943962     
   6.0000000000000012E-002     1.0963689429840007     
   6.0300000000000006E-002     1.3882712120489715     
   6.0600000000000001E-002     1.7425529360580125     
   6.0900000000000010E-002     2.1706506439879560     
   6.1200000000000004E-002     2.6768184062469120     
   6.1500000000000013E-002     3.2573579936576085     
   6.1800000000000008E-002     3.9008843311260533     
   6.2100000000000002E-002     4.5869111302007255     
   6.2399999999999997E-002     5.2878846594562798     
   6.2700000000000006E-002     5.9693257310224581     
   6.3000000000000000E-002     6.5912541209263455     
   6.3300000000000009E-002     7.1110729233263248     
   6.3600000000000004E-002     7.4846313604818739     
   6.3899999999999998E-002     7.6697050640124766     
   6.4199999999999993E-002     7.6290051161331363     
   6.4500000000000002E-002     7.3318911461029721     
   6.4800000000000010E-002     6.7585137726966273     
   6.5100000000000005E-002     5.9007382219017561     
   6.5400000000000000E-002     4.7643634939732911     
   6.5700000000000008E-002     3.3703911463781182     
   6.5999999999999989E-002     1.7529261952849797     
   6.6299999999999998E-002    -3.9281411680771372E-002
   6.6600000000000006E-002    -1.9468318601606907     
   6.6900000000000001E-002    -3.9028405675321221     
   6.7199999999999996E-002    -5.8346068119562888     
   6.7500000000000004E-002    -7.6699741601458937     
   6.7800000000000013E-002    -9.3400464443515023     
   6.8099999999999994E-002    -10.781437628430989     
   6.8400000000000002E-002    -11.942571831445123     
   6.8700000000000011E-002    -12.782770872472607     
   6.8999999999999992E-002    -13.275209482786819     
   6.9300000000000000E-002    -13.407866936548949     
   6.9600000000000009E-002    -13.180204992436744     
   6.9900000000000004E-002    -12.606361796354708     
   7.0199999999999999E-002    -11.710438621782002     
   7.0500000000000007E-002    -10.525263356255280     
   7.0800000000000016E-002    -9.0930829181081823     
   7.1099999999999997E-002    -7.4591950501040731     
   7.1400000000000005E-002    -5.6749297703765809     
   7.1700000000000000E-002    -3.7937942853489668     
   7.1999999999999995E-002    -1.8698578469450080     
   7.2300000000000003E-002     4.0406293429634088E-002
   7.2600000000000012E-002     1.8838725216912851     
   7.2900000000000006E-002     3.6079190756320982     
   7.3200000000000001E-002     5.1635110748924316     
   7.3499999999999996E-002     6.5086121825962904     
   7.3800000000000004E-002     7.6051509997134428     
   7.4099999999999999E-002     8.4253102745459394     
   7.4400000000000008E-002     8.9508629067232199     
   7.4700000000000003E-002     9.1731483088205312     
   7.5000000000000011E-002     9.0969840507373707     
   7.5299999999999992E-002     8.7378186593181155     
   7.5600000000000001E-002     8.1230738205275514     
   7.5900000000000009E-002     7.2914623555554856     
   7.6200000000000004E-002     6.2902269066310925     
   7.6499999999999999E-002     5.1740277256739269     
   7.6800000000000007E-002     4.0027636053606273     
   7.7099999999999988E-002     2.8371930205983285     
   7.7399999999999997E-002     1.7381519153082019     
   7.7700000000000005E-002    0.76189859445913988     
   7.8000000000000014E-002    -4.3087874967179418E-002
   7.8299999999999995E-002   -0.63607837641191234     
   7.8600000000000003E-002   -0.99062638493844779     
   7.8900000000000012E-002    -1.0935721788999810     
   7.9199999999999993E-002   -0.94654465502108742     
   7.9500000000000001E-002   -0.56890040402961195     
   7.9800000000000010E-002     6.2513096141176561E-003
   8.0100000000000018E-002    0.72958106714241788     
   8.0399999999999999E-002     1.5397981531679661     
   8.0700000000000008E-002     2.3675306574331296     
   8.1000000000000003E-002     3.1363820128540372     
   8.1299999999999997E-002     3.7722668378012676     
   8.1600000000000006E-002     4.2051929940799688     
   8.1900000000000014E-002     4.3757601512465838     
   8.2199999999999995E-002     4.2417442594016634     
   8.2500000000000004E-002     3.7801950034637377     
   8.2799999999999999E-002     2.9923749515351878     
   8.3100000000000007E-002     1.9044448528893070     
   8.3400000000000002E-002    0.56681686620231431     
   8.3700000000000011E-002   -0.94816429310844064     
   8.4000000000000005E-002    -2.5503547905058257     
   8.4300000000000000E-002    -4.1388774237598378     
   8.4599999999999995E-002    -5.6091708365601436     
   8.4900000000000003E-002    -6.8611795653364664     
   8.5199999999999998E-002    -7.8087969782209630     
   8.5500000000000007E-002    -8.3850444059474416     
   8.5800000000000001E-002    -8.5505869132089423     
   8.6100000000000010E-002    -8.2957809262067457     
   8.6399999999999991E-002    -7.6414055460614581     
   8.6699999999999999E-002    -6.6399237723603663     
   8.7000000000000008E-002    -5.3669156033608596     
   8.7300000000000003E-002    -3.9174748075283023     
   8.7599999999999997E-002    -2.3971933421779914     
   8.7900000000000006E-002   -0.91058233707500880     
   8.8200000000000014E-002    0.44487736895309327     
   8.8499999999999995E-002     1.5908102990153865     
   8.8800000000000004E-002     2.4719806333741023     
   8.9100000000000013E-002     3.0604321361110340     
   8.9399999999999993E-002     3.3589647770267352     
   8.9700000000000002E-002     3.3951442165274797     
   9.0000000000000011E-002     3.2199269913507154     
   9.0299999999999991E-002     2.8991795856858182     
   9.0600000000000000E-002     2.5044730160124642     
   9.0900000000000009E-002     2.1063562074070261     
   9.1200000000000017E-002     1.7646041950353211     
   9.1499999999999998E-002     1.5231325936806774     
   9.1800000000000007E-002     1.4054217658962413     
   9.2100000000000001E-002     1.4130731192539865     
   9.2399999999999996E-002     1.5274171269764225     
   9.2700000000000005E-002     1.7134391866651577     
   9.3000000000000013E-002     1.9249325379009257     
   9.3300000000000008E-002     2.1118467779900305     
   9.3600000000000003E-002     2.2270957869022885     
   9.3899999999999997E-002     2.2309863993538510     
   9.4200000000000006E-002     2.0983645370602924     
   9.4500000000000001E-002     1.8188507474283622     
   9.4800000000000009E-002     1.3984757080310017     
   9.5100000000000004E-002    0.85912508191862003     
   9.5399999999999999E-002    0.23286794859061688     
   9.5699999999999993E-002   -0.43977281086330811     
   9.6000000000000002E-002    -1.1162954678294830     
   9.6300000000000011E-002    -1.7566013461438732     
   9.6600000000000005E-002    -2.3263207782222368     
   9.6900000000000000E-002    -2.8009429665803558     
   9.7200000000000009E-002    -3.1651179017832094     
   9.7499999999999989E-002    -3.4144024290322199     
   9.7799999999999998E-002    -3.5528053306285603     
   9.8100000000000007E-002    -3.5907653148727334     
   9.8400000000000015E-002    -3.5417320762643585     
   9.8699999999999996E-002    -3.4187902921176878     
   9.9000000000000005E-002    -3.2333702671123592     
   9.9300000000000013E-002    -2.9910790282683579     
   9.9599999999999994E-002    -2.6937367479060139     
   9.9900000000000003E-002    -2.3380683385166243     
  0.10020000000000001         -1.9171283897689158     
  0.10049999999999999         -1.4247172219676871     
  0.10080000000000000        -0.85490565402528396     
  0.10110000000000001        -0.20770571036750529     
  0.10140000000000000         0.51093023104081392     
  0.10170000000000000          1.2881327149424946     
  0.10200000000000001          2.1022063966301827     
  0.10230000000000002          2.9281276387734834     
  0.10260000000000000          3.7361062946468362     
  0.10290000000000001          4.4962602162731304     
  0.10320000000000000          5.1825450317126434     
  0.10350000000000001          5.7721671536767074     
  0.10380000000000000          6.2499836843626202     
  0.10410000000000001          6.6055861627460661     
  0.10440000000000001          6.8333486406309243     
  0.10470000000000000          6.9303977972774149     
  0.10500000000000000          6.8920418411675888     
  0.10530000000000000          6.7113666775950271     
  0.10560000000000000          6.3767480542742190     
  0.10590000000000001          5.8722311295354075     
  0.10620000000000000          5.1792097376841273     
  0.10650000000000001          4.2818024821067624     
  0.10679999999999999          3.1691162048113126     
  0.10710000000000000          1.8424339662326061     
  0.10740000000000001         0.31973923073215949     
  0.10770000000000000         -1.3638928972583528     
  0.10800000000000000         -3.1526681849102767     
  0.10830000000000001         -4.9765034970985420     
  0.10859999999999999         -6.7554717609490620     
  0.10890000000000000         -8.4069374126570793     
  0.10920000000000001         -9.8585195142976509     
  0.10950000000000001         -11.052699770045573     
  0.10979999999999999         -11.958393926928039     
  0.11009999999999999         -12.572404833190276     
  0.11040000000000001         -12.918758018391379     
  0.11070000000000001         -13.046962255030909     
  0.11100000000000000         -13.018150409241215     
  0.11130000000000000         -12.895354562033404     
  0.11160000000000002         -12.728655825403701     
  0.11190000000000001         -12.539469122491957     
  0.11220000000000001         -12.310917596909025     
  0.11250000000000000         -11.980754384106268     
  0.11280000000000000         -11.441201907728781     
  0.11309999999999999         -10.546296185314525     
  0.11340000000000001         -9.1268454033137694     
  0.11369999999999998         -7.0115008415124684     
  0.11400000000000000         -4.0520443423002535     
  0.11430000000000000        -0.15046548928200498     
  0.11460000000000002          4.7151221854806966     
  0.11489999999999999          10.469409511667825     
  0.11520000000000001          16.928944708621835     
  0.11550000000000001          23.798111095778953     
  0.11580000000000000          30.680902014593151     
  0.11609999999999999          37.103195951806406     
  0.11640000000000002          42.545663857637493     
  0.11670000000000001          46.487981787859667     
  0.11700000000000001          48.453801806005586     
  0.11730000000000000          48.060436045960017     
  0.11760000000000000          45.062136713972379     
  0.11789999999999999          39.382059054734846     
  0.11820000000000001          31.137089019288211     
  0.11850000000000001          20.636635916881161     
  0.11880000000000000          8.3755987986384408     
  0.11910000000000000         -4.9979668507255894     
  0.11940000000000002         -18.728345213881237     
  0.11970000000000001         -32.002171631352994     
  0.12000000000000001         -44.015036246251391     
  0.12030000000000000         -54.027862570999112     
  0.12060000000000000         -61.424883888023075     
  0.12089999999999999         -65.759233573893084     
  0.12119999999999999         -66.779972700086972     
  0.12150000000000001         -64.454145573918169     
  0.12180000000000001         -58.957725157671227     
  0.12210000000000000         -50.659464516260350     
  0.12239999999999999         -40.090593031634221     
  0.12270000000000002         -27.896447152865228     
  0.12300000000000001         -14.793160916492848     
  0.12330000000000001         -1.5157044554288408     
  0.12360000000000000          11.234136590829127     
  0.12390000000000000          22.824697773513591     
  0.12419999999999999          32.731253102750379     
  0.12450000000000001          40.561300261156653     
  0.12480000000000001          46.062128363091034     
  0.12509999999999999          49.132112972210102     
  0.12540000000000001          49.805712048373422     
  0.12570000000000003          48.242793473796787     
  0.12600000000000000          44.709992637899781     
  0.12630000000000002          39.550565657906276     
  0.12659999999999999          33.162930691393683     
  0.12690000000000001          25.970012738118015     
  0.12719999999999998          18.392121886980057     
  0.12750000000000000          10.827719109523301     
  0.12780000000000002          3.6285717915843980     
  0.12809999999999999         -2.9124970387219502     
  0.12840000000000001         -8.5706667248795156     
  0.12869999999999998         -13.198278969809127     
  0.12900000000000000         -16.718956473356315     
  0.12930000000000003         -19.125668962801200     
  0.12959999999999999         -20.473254051112512     
  0.12990000000000002         -20.859969310851135     
  0.13019999999999998         -20.422604655684971     
  0.13050000000000000         -19.317786099354844     
  0.13080000000000003         -17.708244701563952     
  0.13109999999999999         -15.756941163568335     
  0.13140000000000002         -13.610744883193908     
  0.13169999999999998         -11.399936522527575     
  0.13200000000000001         -9.2315594998287978     
  0.13229999999999997         -7.1865298815395704     
  0.13260000000000000         -5.3245867123269122     
  0.13290000000000002         -3.6814569883484154     
  0.13319999999999999         -2.2734538059402691     
  0.13350000000000001         -1.1009821985509372     
  0.13380000000000003        -0.15116600008804393     
  0.13410000000000000         0.59874785348005899     
  0.13440000000000002          1.1778934987900260     
  0.13469999999999999          1.6183292651163830     
  0.13500000000000001          1.9548676673763552     
  0.13529999999999998          2.2193330426439233     
  0.13560000000000000          2.4411383764920958     
  0.13590000000000002          2.6440628328432938     
  0.13619999999999999          2.8447505860708953     
  0.13650000000000001          3.0544313326461561     
  0.13680000000000003          3.2746634834259898     
  0.13710000000000000          3.5024045211869304     
  0.13740000000000002          3.7285171765338134     
  0.13769999999999999          3.9391474150267296     
  0.13800000000000001          4.1204762277049021     
  0.13829999999999998          4.2569360666998293     
  0.13860000000000000          4.3355956902356159     
  0.13890000000000002          4.3470618219807733     
  0.13919999999999999          4.2851797924960620     
  0.13950000000000001          4.1485664604882935     
  0.13979999999999998          3.9392834563262049     
  0.14010000000000000          3.6646676903156887     
  0.14040000000000002          3.3334540057671340     
  0.14069999999999999          2.9563742866032432     
  0.14100000000000001          2.5460009338682057     
  0.14130000000000004          2.1132902681423680     
  0.14160000000000000          1.6705898931855825     
  0.14189999999999997          1.2275085369134389     
  0.14219999999999999         0.79321327933437180     
  0.14250000000000002         0.37580300166504510     
  0.14279999999999998         -1.9803952906942007E-002
  0.14310000000000000        -0.38765607422800369     
  0.14339999999999997        -0.72520626909178876     
  0.14369999999999999         -1.0301317645928370     
  0.14400000000000002         -1.3000351875651774     
  0.14429999999999998         -1.5351371802345879     
  0.14460000000000001         -1.7349369555149441     
  0.14490000000000003         -1.8999042004882301     
  0.14520000000000000         -2.0312671358489722     
  0.14550000000000002         -2.1300989648698359     
  0.14579999999999999         -2.1987610092709247     
  0.14610000000000001         -2.2404657711095965     
  0.14640000000000003         -2.2583146442082591     
  0.14670000000000000         -2.2573880673753481     
  0.14699999999999996         -2.2417175668939544     
  0.14729999999999999         -2.2160291539224888     
  0.14760000000000001         -2.1857854354610136     
  0.14789999999999998         -2.1523414409087227     
  0.14820000000000000         -2.1183763254182510     