  -1.4999999999999999E-002     0.0000000000000000     
  -1.4700000000000000E-002     0.0000000000000000     
  -1.4400000000000000E-002     0.0000000000000000     
  -1.4100000000000000E-002     0.0000000000000000     
  -1.3800000000000000E-002     0.0000000000000000     
  -1.3500000000000000E-002     0.0000000000000000     
  -1.3200000000000000E-002     0.0000000000000000     
  -1.2899999999999998E-002     0.0000000000000000     
  -1.2600000000000000E-002     0.0000000000000000     
  -1.2299999999999998E-002     0.0000000000000000     
  -1.2000000000000000E-002     0.0000000000000000     
  -1.1699999999999999E-002     0.0000000000000000     
  -1.1399999999999999E-002     0.0000000000000000     
  -1.1099999999999999E-002     0.0000000000000000     
  -1.0799999999999999E-002     0.0000000000000000     
  -1.0499999999999999E-002     0.0000000000000000     
  -1.0199999999999999E-002     0.0000000000000000     
  -9.8999999999999991E-003     0.0000000000000000     
  -9.5999999999999992E-003     0.0000000000000000     
  -9.2999999999999992E-003     0.0000000000000000     
  -8.9999999999999993E-003     0.0000000000000000     
  -8.6999999999999994E-003     0.0000000000000000     
  -8.3999999999999995E-003     0.0000000000000000     
  -8.0999999999999996E-003     0.0000000000000000     
  -7.7999999999999988E-003     0.0000000000000000     
  -7.4999999999999997E-003     0.0000000000000000     
  -7.1999999999999998E-003     0.0000000000000000     
  -6.8999999999999981E-003     0.0000000000000000     
  -6.5999999999999982E-003     0.0000000000000000     
  -6.3000000000000000E-003     0.0000000000000000     
  -6.0000000000000001E-003     0.0000000000000000     
  -5.6999999999999985E-003     0.0000000000000000     
  -5.3999999999999986E-003     0.0000000000000000     
  -5.1000000000000004E-003     0.0000000000000000     
  -4.7999999999999987E-003     0.0000000000000000     
  -4.5000000000000005E-003     0.0000000000000000     
  -4.1999999999999989E-003     0.0000000000000000     
  -3.8999999999999990E-003     0.0000000000000000     
  -3.5999999999999990E-003     0.0000000000000000     
  -3.2999999999999991E-003     0.0000000000000000     
  -2.9999999999999992E-003     0.0000000000000000     
  -2.6999999999999993E-003     0.0000000000000000     
  -2.3999999999999994E-003     0.0000000000000000     
  -2.0999999999999977E-003     0.0000000000000000     
  -1.7999999999999995E-003     0.0000000000000000     
  -1.4999999999999979E-003     0.0000000000000000     
  -1.1999999999999997E-003     0.0000000000000000     
  -8.9999999999999976E-004     0.0000000000000000     
  -5.9999999999999810E-004     0.0000000000000000     
  -2.9999999999999992E-004     0.0000000000000000     
   0.0000000000000000          0.0000000000000000     
   3.0000000000000165E-004     0.0000000000000000     
   5.9999999999999984E-004     0.0000000000000000     
   9.0000000000000149E-004     0.0000000000000000     
   1.2000000000000031E-003     0.0000000000000000     
   1.5000000000000013E-003     0.0000000000000000     
   1.8000000000000030E-003     0.0000000000000000     
   2.1000000000000012E-003     0.0000000000000000     
   2.3999999999999994E-003     0.0000000000000000     
   2.7000000000000010E-003     0.0000000000000000     
   2.9999999999999992E-003     0.0000000000000000     
   3.3000000000000008E-003     0.0000000000000000     
   3.6000000000000025E-003     0.0000000000000000     
   3.9000000000000007E-003     0.0000000000000000     
   4.2000000000000023E-003     0.0000000000000000     
   4.5000000000000005E-003     0.0000000000000000     
   4.7999999999999987E-003     0.0000000000000000     
   5.1000000000000004E-003     0.0000000000000000     
   5.4000000000000020E-003     0.0000000000000000     
   5.7000000000000037E-003     0.0000000000000000     
   5.9999999999999984E-003     0.0000000000000000     
   6.3000000000000000E-003     0.0000000000000000     
   6.6000000000000017E-003     0.0000000000000000     
   6.9000000000000034E-003     0.0000000000000000     
   7.2000000000000015E-003     0.0000000000000000     
   7.5000000000000032E-003     0.0000000000000000     
   7.8000000000000014E-003     1.3618643219476935E-042
   8.0999999999999996E-003    -8.7253665811039325E-040
   8.4000000000000012E-003    -4.0337160133362329E-037
   8.7000000000000029E-003    -3.9863989686867308E-036
   9.0000000000000011E-003     7.0602359617419003E-035
   9.2999999999999992E-003     6.0886655520850472E-036
   9.6000000000000009E-003    -2.2480035907888402E-033
   9.8999999999999991E-003     7.5744932298572705E-033
   1.0200000000000001E-002    -9.5049607497617731E-033
   1.0500000000000002E-002    -8.9144983706631045E-032
   1.0800000000000004E-002     1.3472389720740964E-030
   1.1099999999999999E-002    -7.8203636846365074E-030
   1.1400000000000000E-002     1.2545340389973899E-029
   1.1700000000000002E-002     1.3525146221968113E-028
   1.2000000000000004E-002    -1.2087037435521834E-027
   1.2300000000000002E-002     4.5849153462336902E-027
   1.2600000000000000E-002    -2.6891356176908780E-027
   1.2900000000000002E-002    -7.2211514409631116E-026
   1.3200000000000000E-002     4.5685102234188644E-025
   1.3500000000000002E-002    -1.3283259838851661E-024
   1.3800000000000003E-002     1.4538327257455306E-025
   1.4100000000000001E-002     1.7964243233673218E-023
   1.4400000000000000E-002    -9.1439722717965169E-023
   1.4700000000000001E-002     2.1936861485005106E-022
   1.4999999999999999E-002     4.8052441719064767E-023
   1.5300000000000001E-002    -2.7863393860013255E-021
   1.5600000000000003E-002     1.2956298394461490E-020
   1.5899999999999997E-002    -3.3395545265728818E-020
   1.6199999999999999E-002     3.2702460501842060E-020
   1.6500000000000001E-002     1.5158044215739713E-019
   1.6800000000000002E-002    -9.6782343684806403E-019
   1.7100000000000004E-002     2.9899785121753874E-018
   1.7400000000000006E-002    -4.5736565245190321E-018
   1.7700000000000000E-002    -8.8561647155452479E-018
   1.8000000000000002E-002     9.6357284606273135E-017
   1.8300000000000004E-002    -3.9819214872399922E-016
   1.8600000000000005E-002     8.3755763639250178E-016
   1.8900000000000000E-002     1.7709348294445611E-015
   1.9200000000000002E-002    -2.9712078344887973E-014
   1.9500000000000003E-002     1.8935422232628946E-013
   1.9799999999999998E-002    -8.6052363753777549E-013
   2.0100000000000000E-002     2.9808979622576522E-012
   2.0400000000000001E-002    -7.4117810427601622E-012
   2.0700000000000003E-002     9.1533261907460619E-012
   2.0999999999999998E-002     2.0270599613128463E-011
   2.1299999999999999E-002    -1.4541469700266702E-010
   2.1600000000000001E-002     3.5742976593498128E-010
   2.1900000000000003E-002    -1.5853780611842790E-010
   2.2200000000000004E-002    -1.6424326766625707E-009
   2.2500000000000006E-002     4.4341506483809605E-009
   2.2800000000000001E-002     2.6396730439372785E-010
   2.3100000000000002E-002    -2.0658404259829519E-008
   2.3400000000000004E-002     2.0436320075295265E-008
   2.3699999999999999E-002     6.5373110826566131E-008
   2.4000000000000000E-002    -1.0604499590629838E-007
   2.4300000000000002E-002    -2.1992257870855906E-007
   2.4599999999999997E-002     2.8299692257981474E-007
   2.4900000000000005E-002     7.0514307538825122E-007
   2.5200000000000000E-002    -4.2795957140751873E-007
   2.5499999999999995E-002    -1.9930868097521474E-006
   2.5800000000000003E-002     2.7442244005783197E-008
   2.6099999999999998E-002     6.6671908456780728E-006
   2.6400000000000007E-002     1.2791762436274455E-005
   2.6700000000000002E-002     1.4815018587881867E-005
   2.6999999999999996E-002     1.9104199823499495E-005
   2.7300000000000005E-002     3.5936884184089703E-005
   2.7600000000000000E-002     6.6537859362267792E-005
   2.7900000000000008E-002     1.0452329482442682E-004
   2.8200000000000003E-002     1.5216965276606902E-004
   2.8499999999999998E-002     2.2740082152767087E-004
   2.8800000000000006E-002     3.5009029436789898E-004
   2.9100000000000001E-002     5.2989948681153413E-004
   2.9400000000000003E-002     7.7728247525260150E-004
   2.9700000000000004E-002     1.1220267271521141E-003
   3.0000000000000006E-002     1.6106682092402133E-003
   3.0300000000000001E-002     2.2884427223221959E-003
   3.0600000000000002E-002     3.1975484628736597E-003
   3.0900000000000004E-002     4.3958737477094922E-003
   3.1199999999999999E-002     5.9640969142757475E-003
   3.1500000000000007E-002     7.9874552824527496E-003
   3.1800000000000002E-002     1.0538943639941942E-002
   3.2099999999999997E-002     1.3686660652463795E-002
   3.2400000000000005E-002     1.7502559118178568E-002
   3.2700000000000000E-002     2.2043288697901169E-002
   3.3000000000000002E-002     2.7319307590473456E-002
   3.3300000000000003E-002     3.3283466120367311E-002
   3.3599999999999998E-002     3.9834182506862367E-002
   3.3900000000000000E-002     4.6805078301378526E-002
   3.4200000000000001E-002     5.3935829440590388E-002
   3.4500000000000003E-002     6.0856728047380987E-002
   3.4799999999999998E-002     6.7100137721198799E-002
   3.5099999999999999E-002     7.2122837910036042E-002
   3.5400000000000001E-002     7.5317339334699612E-002
   3.5699999999999996E-002     7.6030062763378634E-002
   3.6000000000000004E-002     7.3609206105720110E-002
   3.6299999999999999E-002     6.7472782744868454E-002
   3.6600000000000008E-002     5.7163628650687810E-002
   3.6900000000000002E-002     4.2410360692378045E-002
   3.7199999999999997E-002     2.3185681587193696E-002
   3.7500000000000006E-002    -2.4007939773121323E-004
   3.7800000000000000E-002    -2.7264482588211333E-002
   3.8100000000000009E-002    -5.6941913400333569E-002
   3.8400000000000004E-002    -8.8011940884117554E-002
   3.8699999999999998E-002   -0.11896488628622706     
   3.9000000000000007E-002   -0.14811224710606052     
   3.9300000000000002E-002   -0.17369473791305443     
   3.9600000000000003E-002   -0.19402770789861148     
   3.9900000000000005E-002   -0.20764801905784652     
   4.0200000000000000E-002   -0.21344917642284611     
   4.0500000000000001E-002   -0.21078831156165362     
   4.0800000000000003E-002   -0.19958618264739797     
   4.1100000000000005E-002   -0.18037414576609620     
   4.1399999999999999E-002   -0.15428118583024561     
   4.1700000000000008E-002   -0.12300511157682403     
   4.2000000000000003E-002    -8.8673413611603191E-002
   4.2299999999999997E-002    -5.3710724767284980E-002
   4.2600000000000006E-002    -2.0689614064620984E-002
   4.2900000000000001E-002     7.9129701738049688E-003
   4.3200000000000002E-002     2.9867322950612701E-002
   4.3500000000000004E-002     4.3357589992887663E-002
   4.3799999999999999E-002     4.7165934646418307E-002
   4.4100000000000000E-002     4.0742286262529584E-002
   4.4400000000000002E-002     2.4256110440825519E-002
   4.4700000000000004E-002    -1.3767097970974656E-003
   4.4999999999999998E-002    -3.4551086894375124E-002
   4.5300000000000000E-002    -7.3072350694021820E-002
   4.5600000000000002E-002   -0.11425336193488612     
   4.5899999999999996E-002   -0.15510481439194435     
   4.6200000000000005E-002   -0.19249104355419006     
   4.6500000000000000E-002   -0.22332132852161002     
   4.6799999999999994E-002   -0.24475367289733363     
   4.7100000000000003E-002   -0.25430326764184075     
   4.7399999999999998E-002   -0.25010237566948090     
   4.7700000000000006E-002   -0.23096866374627981     
   4.8000000000000001E-002   -0.19648454972113907     
   4.8300000000000010E-002   -0.14713070538102330     
   4.8600000000000004E-002    -8.4196853690598566E-002
   4.8899999999999999E-002    -9.8041210436132561E-003
   4.9200000000000008E-002     7.3164006727745326E-002
   4.9500000000000002E-002    0.16129284366150776     
   4.9800000000000011E-002    0.25072706492051522     
   5.0100000000000006E-002    0.33737812418720525     
   5.0400000000000000E-002    0.41716556611256017     
   5.0700000000000009E-002    0.48620669924243087     
   5.1000000000000004E-002    0.54105593696079424     
   5.1299999999999998E-002    0.57885030386105574     
   5.1600000000000007E-002    0.59744410028702666     
   5.1900000000000002E-002    0.59558258316495150     
   5.2200000000000010E-002    0.57297115781037189     
   5.2500000000000005E-002    0.53021405553079104     
   5.2800000000000000E-002    0.46889757875943450     
   5.3099999999999994E-002    0.39156399090902799     
   5.3400000000000003E-002    0.30156513372774368     
   5.3699999999999998E-002    0.20304819478227107     
   5.4000000000000006E-002    0.10071246597744875     
   5.4300000000000001E-002    -3.4088131425715970E-004
   5.4599999999999996E-002    -9.4738349845481004E-002
   5.4900000000000004E-002   -0.17713717597615422     
   5.5199999999999999E-002   -0.24248028117110176     
   5.5499999999999994E-002   -0.28632443488136761     
   5.5800000000000002E-002   -0.30512529568286090     
   5.6099999999999997E-002   -0.29639928676307803     
   5.6400000000000006E-002   -0.25907584412077800     
   5.6700000000000000E-002   -0.19372960439156428     
   5.6999999999999995E-002   -0.10261368144648156     
   5.7300000000000004E-002     1.0310322296594635E-002
   5.7599999999999998E-002    0.13949198018276954     
   5.7900000000000007E-002    0.27796469565160209     
   5.8200000000000002E-002    0.41760897649118200     
   5.8499999999999996E-002    0.54966269436344262     
   5.8800000000000005E-002    0.66522906185129749     
   5.9100000000000000E-002    0.75572758094938175     
   5.9400000000000008E-002    0.81348590038801982     
   5.9700000000000003E-002    0.83225141817843540     
   6.0000000000000012E-002    0.80762486988326376     
   6.0300000000000006E-002    0.73745127789233966     
   6.0600000000000001E-002    0.62199867263896857     
   6.0900000000000010E-002    0.46404244482933310     
   6.1200000000000004E-002    0.26879701859078853     
   6.1500000000000013E-002     4.3642025808234633E-002
   6.1800000000000008E-002   -0.20218124841246685     
   6.2100000000000002E-002   -0.45809326117166249     
   6.2399999999999997E-002   -0.71275834812893868     
   6.2700000000000006E-002   -0.95468416536084932     
   6.3000000000000000E-002    -1.1727707263790039     
   6.3300000000000009E-002    -1.3569781129977574     
   6.3600000000000004E-002    -1.4987970429246418     
   6.3899999999999998E-002    -1.5916710886684560     
   6.4199999999999993E-002    -1.6313360650225837     
   6.4500000000000002E-002    -1.6158623525946587     
   6.4800000000000010E-002    -1.5458076645339673     
   6.5100000000000005E-002    -1.4241351100041146     
   6.5400000000000000E-002    -1.2559095548165484     
   6.5700000000000008E-002    -1.0481108382689241     
   6.5999999999999989E-002   -0.80917789499897097     
   6.6299999999999998E-002   -0.54864861648754137     
   6.6600000000000006E-002   -0.27678130981242122     
   6.6900000000000001E-002    -4.0242260737861010E-003
   6.7199999999999996E-002    0.25937408477219642     
   6.7500000000000004E-002    0.50370714557960050     
   6.7800000000000013E-002    0.72022330168368476     
   6.8099999999999994E-002    0.90139762882547347     
   6.8400000000000002E-002     1.0412436444804116     
   6.8700000000000011E-002     1.1355058542049266     
   6.8999999999999992E-002     1.1818117922095859     
   6.9300000000000000E-002     1.1797758168174950     
   6.9600000000000009E-002     1.1310518887851009     
   6.9900000000000004E-002     1.0392515429190747     
   7.0199999999999999E-002    0.90984872688733553     
   7.0500000000000007E-002    0.75003261693925516     
   7.0800000000000016E-002    0.56828351418064016     
   7.1099999999999997E-002    0.37412481033159989     
   7.1400000000000005E-002    0.17772085898004472     
   7.1700000000000000E-002    -1.0727032973364910E-002
   7.1999999999999995E-002   -0.18140596353030172     
   7.2300000000000003E-002   -0.32548555188259432     
   7.2600000000000012E-002   -0.43562746257686352     
   7.2900000000000006E-002   -0.50640264083427888     
   7.3200000000000001E-002   -0.53481368879858759     
   7.3499999999999996E-002   -0.52053248541908270     
   7.3800000000000004E-002   -0.46601479353860364     
   7.4099999999999999E-002   -0.37661698093687401     
   7.4400000000000008E-002   -0.26031870168699200     
   7.4700000000000003E-002   -0.12730223475350255     
   7.5000000000000011E-002     1.0505778411893950E-002
   7.5299999999999992E-002    0.14025982863736311     
   7.5600000000000001E-002    0.24915946811554332     
   7.5900000000000009E-002    0.32539041907043981     
   7.6200000000000004E-002    0.35917838128315177     
   7.6499999999999999E-002    0.34369608904542737     
   7.6800000000000007E-002    0.27588607921124431     
   7.7099999999999988E-002    0.15711639746399089     
   7.7399999999999997E-002    -6.7321934852416603E-003
   7.7700000000000005E-002   -0.20534773728480216     
   7.8000000000000014E-002   -0.42453095323196988     
   7.8299999999999995E-002   -0.64719272229228941     
   7.8600000000000003E-002   -0.85449140592621986     
   7.8900000000000012E-002    -1.0273607035363248     
   7.9199999999999993E-002    -1.1481949969563627     
   7.9500000000000001E-002    -1.2023320778586741     
   7.9800000000000010E-002    -1.1794045030891835     
   8.0100000000000018E-002    -1.0743564541171622     
   8.0399999999999999E-002   -0.88814026189473516     
   8.0700000000000008E-002   -0.62794131991022495     
   8.1000000000000003E-002   -0.30655942989718549     
   8.1299999999999997E-002     5.8539240954386784E-002
   8.1600000000000006E-002    0.44625068363114073     
   8.1900000000000014E-002    0.83353193633256362     
   8.2199999999999995E-002     1.1971629484583761     
   8.2500000000000004E-002     1.5155786731354226     
   8.2799999999999999E-002     1.7705540891001985     
   8.3100000000000007E-002     1.9480932247772791     
   8.3400000000000002E-002     2.0395302852367703     
   8.3700000000000011E-002     2.0421278924707602     
   8.4000000000000005E-002     1.9588511145649883     
   8.4300000000000000E-002     1.7978995035688123     
   8.4599999999999995E-002     1.5716251529710368     
   8.4900000000000003E-002     1.2954483133684531     
   8.5199999999999998E-002    0.98659663415687371     
   8.5500000000000007E-002    0.66256895563122187     
   8.5800000000000001E-002    0.33978360644537076     
   8.6100000000000010E-002     3.2403131582214834E-002
   8.6399999999999991E-002   -0.24848355417973228     
   8.6699999999999999E-002   -0.49512324060855473     
   8.7000000000000008E-002   -0.70332084368739545     
   8.7300000000000003E-002   -0.87240365958767585     
   8.7599999999999997E-002    -1.0045450094143922     
   8.7900000000000006E-002    -1.1037759058846783     
   8.8200000000000014E-002    -1.1750945491294429     
   8.8499999999999995E-002    -1.2236345036306795     
   8.8800000000000004E-002    -1.2538959897232584     
   8.9100000000000013E-002    -1.2689991048237876     
   8.9399999999999993E-002    -1.2699579942925117     
   8.9700000000000002E-002    -1.2557757649742225     
   9.0000000000000011E-002    -1.2237649181010823     
   9.0299999999999991E-002    -1.1698843969874981     
   9.0600000000000000E-002    -1.0893353834078199     
   9.0900000000000009E-002   -0.97739394266333979     
   9.1200000000000017E-002   -0.83043281984237460     
   9.1499999999999998E-002   -0.64687331618648514     
   9.1800000000000007E-002   -0.42761162561655830     
   9.2100000000000001E-002   -0.17637151895228131     
   9.2399999999999996E-002     9.9847111818088724E-002
   9.2700000000000005E-002    0.39085563178650384     
   9.3000000000000013E-002    0.68400997582613143     
   9.3300000000000008E-002    0.96504434730354349     
   9.3600000000000003E-002     1.2188325981588259     
   9.3899999999999997E-002     1.4302066685851893     
   9.4200000000000006E-002     1.5853017160000136     
   9.4500000000000001E-002     1.6727720778862574     
   9.4800000000000009E-002     1.6843605705394031     
   9.5100000000000004E-002     1.6155263748771205     
   9.5399999999999999E-002     1.4660298798438518     
   9.5699999999999993E-002     1.2400060434398030     
   9.6000000000000002E-002    0.94575554258172190     
   9.6300000000000011E-002    0.59527522740218952     
   9.6600000000000005E-002    0.20381197488708830     
   9.6900000000000000E-002   -0.21096487126296967     
   9.7200000000000009E-002   -0.63007763359930014     
   9.7499999999999989E-002    -1.0341086825545047     
   9.7799999999999998E-002    -1.4040301566011832     
   9.8100000000000007E-002    -1.7222171559079200     
   9.8400000000000015E-002    -1.9733996272429244     
   9.8699999999999996E-002    -2.1453867999152783     
   9.9000000000000005E-002    -2.2296382176991938     
   9.9300000000000013E-002    -2.2215745029112304     
   9.9599999999999994E-002    -2.1208585308244046     
   9.9900000000000003E-002    -1.9315378398944811     
  0.10020000000000001         -1.6618336334395400     
  0.10049999999999999         -1.3237311971994983     
  0.10080000000000000        -0.93229029994509105     
  0.10110000000000001        -0.50498267722722123     
  0.10140000000000000         -6.0994549980154036E-002
  0.10170000000000000         0.38015689661880725     
  0.10200000000000001         0.79959791916599166     
  0.10230000000000002          1.1798700470804355     
  0.10260000000000000          1.5061090931316417     
  0.10290000000000001          1.7668099156968116     
  0.10320000000000000          1.9544368723724941     
  0.10350000000000001          2.0654069612512251     
  0.10380000000000000          2.1002626577910006     
  0.10410000000000001          2.0635493122913395     
  0.10440000000000001          1.9628839737650066     
  0.10470000000000000          1.8079884029641455     
  0.10500000000000000          1.6097951535793091     
  0.10530000000000000          1.3795739221290737     
  0.10560000000000000          1.1277137056293349     
  0.10590000000000001         0.86282442032239082     
  0.10620000000000000         0.59139802639950245     
  0.10650000000000001         0.31756767472484171     
  0.10679999999999999          4.3354744497709194E-002
  0.10710000000000000        -0.23078267597232116     
  0.10740000000000001        -0.50520077501806415     
  0.10770000000000000        -0.77982561030169284     
  0.10800000000000000         -1.0530889207397358     
  0.10830000000000001         -1.3209546951773155     
  0.10859999999999999         -1.5765095663165372     
  0.10890000000000000         -1.8096895430044242     
  0.10920000000000001         -2.0070015454840524     
  0.10950000000000001         -2.1527130449342700     
  0.10979999999999999         -2.2304896188400529     
  0.11009999999999999         -2.2244791979688108     
  0.11040000000000001         -2.1211341975688658     
  0.11070000000000001         -1.9112880560422960     
  0.11100000000000000         -1.5917163037895310     
  0.11130000000000000         -1.1662880180649760     
  0.11160000000000002        -0.64647931683699722     
  0.11190000000000001         -5.1303415919833339E-002
  0.11220000000000001         0.59320094562424042     
  0.11250000000000000          1.2554894124237377     
  0.11280000000000000          1.9005629346681072     
  0.11309999999999999          2.4921322499501932     
  0.11340000000000001          2.9949281817748945     
  0.11369999999999998          3.3770193991945869     
  0.11400000000000000          3.6120180987777246     
  0.11430000000000000          3.6808629937996642     
  0.11460000000000002          3.5728255003255640     
  0.11489999999999999          3.2863191246211905     
  0.11520000000000001          2.8289793042259497     
  0.11550000000000001          2.2172299635547761     
  0.11580000000000000          1.4756739314883260     
  0.11609999999999999         0.63566969512112137     
  0.11640000000000002        -0.26606824089321801     
  0.11670000000000001         -1.1888559459488961     
  0.11700000000000001         -2.0899800668490958     
  0.11730000000000000         -2.9267292401809484     
  0.11760000000000000         -3.6579508298121679     
  0.11789999999999999         -4.2460751384768365     
  0.11820000000000001         -4.6590226740943770     
  0.11850000000000001         -4.8719407004275901     
  0.11880000000000000         -4.8687781954952110     
  0.11910000000000000         -4.6433621441192052     
  0.11940000000000002         -4.2003534156618603     
  0.11970000000000001         -3.5557775961986611     
  0.12000000000000001         -2.7365281966455930     
  0.12030000000000000         -1.7793067714399093     
  0.12060000000000000        -0.72916015353892605     
  0.12089999999999999         0.36271143862330241     
  0.12119999999999999          1.4419268683341255     
  0.12150000000000001          2.4543622906476745     
  0.12180000000000001          3.3491419656574783     
  0.12210000000000000          4.0815385546713081     
  0.12239999999999999          4.6162360283342085     
  0.12270000000000002          4.9293933551782976     
  0.12300000000000001          5.0097438030707169     
  0.12330000000000001          4.8591648860343293     
  0.12360000000000000          4.4921229818400423     
  0.12390000000000000          3.9343867276308035     
  0.12419999999999999          3.2210140650313011     
  0.12450000000000001          2.3934967293816261     
  0.12480000000000001          1.4972454897515823     
  0.12509999999999999         0.57906783876321188     
  0.12540000000000001        -0.31573286240313508     
  0.12570000000000003         -1.1454837914683051     
  0.12600000000000000         -1.8738637664790836     
  0.12630000000000002         -2.4709707101620291     
  0.12659999999999999         -2.9137566896875371     
  0.12690000000000001         -3.1871232395137530     
  0.12719999999999998         -3.2841485164391671     
  0.12750000000000000         -3.2052974422056915     
  0.12780000000000002         -2.9585025510816618     
  0.12809999999999999         -2.5595767728176679     
  0.12840000000000001         -2.0315975550299394     
  0.12869999999999998         -1.4038658474633481     
  0.12900000000000000        -0.71131754110804657     
  0.12930000000000003          6.2562302219642263E-003
  0.12959999999999999         0.70625557539260486     
  0.12990000000000002          1.3456429772452190     
  0.13019999999999998          1.8825739690832919     
  0.13050000000000000          2.2795782603495440     
  0.13080000000000003          2.5064304605172714     
  0.13109999999999999          2.5421242138802831     
  0.13140000000000002          2.3769467878175670     
  0.13169999999999998          2.0139705674955319     
  0.13200000000000001          1.4693480362573379     
  0.13229999999999997         0.77157503456626175     
  0.13260000000000000         -3.9885251285799006E-002
  0.13290000000000002        -0.91690138901045815     
  0.13319999999999999         -1.8061391591882630     
  0.13350000000000001         -2.6527059755629425     
  0.13380000000000003         -3.4033437676157638     
  0.13410000000000000         -4.0101429816107839     
  0.13440000000000002         -4.4342589107459514     
  0.13469999999999999         -4.6478549673825205     
  0.13500000000000001         -4.6352068863093745     
  0.13529999999999998         -4.3940250113827162     
  0.13560000000000000         -3.9350645542393501     
  0.13590000000000002         -3.2807772858696187     
  0.13619999999999999         -2.4635632642520031     
  0.13650000000000001         -1.5233257211444844     
  0.13680000000000003        -0.50529059134633469     
  0.13710000000000000         0.54299784071317692     
  0.13740000000000002          1.5742153851796385     
  0.13769999999999999          2.5433259824691143     
  0.13800000000000001          3.4102145767596657     
  0.13829999999999998          4.1408137484655585     
  0.13860000000000000          4.7083878014545375     
  0.13890000000000002          5.0951196918052286     
  0.13919999999999999          5.2920621459950947     
  0.13950000000000001          5.2993301182395394     
  0.13979999999999998          5.1260068954410807     
  0.14010000000000000          4.7893493719795668     
  0.14040000000000002          4.3140287126938279     
  0.14069999999999999          3.7303919202745757     
  0.14100000000000001          3.0723263237749365     
  0.14130000000000004          2.3755439276840713     
  0.14160000000000000          1.6753979910961725     
  0.14189999999999997          1.0039200071569061     
  0.14219999999999999         0.38776119748904825     
  0.14250000000000002        -0.15363416038854733     
  0.14279999999999998        -0.60935709951024597     
  0.14310000000000000        -0.97778940775618373     
  0.14339999999999997         -1.2665736440990032     
  0.14369999999999999         -1.4911494100159186     
  0.14400000000000002         -1.6731862906511241     
  0.14429999999999998         -1.8384841798713478     
  0.14460000000000001         -2.0130123525701897     
  0.14490000000000003         -2.2200415097355588     
  0.14520000000000000         -2.4777379298652682     
  0.14550000000000002         -2.7959224554792028     
  0.14579999999999999         -3.1743621350984048     
  0.14610000000000001         -3.6018722613167116     
  0.14640000000000003         -4.0567194050083017     
  0.14670000000000000         -4.5082250916106910     
  0.14699999999999996         -4.9185796631714549     
  0.14729999999999999         -5.2463935565111957     
  0.14760000000000001         -5.4506497936405829     
  0.14789999999999998         -5.4938440890098397     
  0.14820000000000000         -5.3460747685025520     