  -1.4999999999999999E-002     0.0000000000000000     
  -1.4700000000000000E-002    -7.2283757015357546E-025
  -1.4400000000000000E-002    -2.2558395136025532E-020
  -1.4100000000000000E-002    -2.6668511370566502E-018
  -1.3800000000000000E-002     2.1491803220759025E-017
  -1.3500000000000000E-002     6.5030389836908789E-016
  -1.3200000000000000E-002    -5.7637911792671495E-016
  -1.2899999999999998E-002    -2.2139777878444142E-014
  -1.2600000000000000E-002    -2.1341894307450246E-014
  -1.2299999999999998E-002     2.9674786132604411E-013
  -1.2000000000000000E-002     3.9118480541829363E-013
  -1.1699999999999999E-002    -2.0467551168569044E-013
  -1.1399999999999999E-002    -5.3517124262247130E-012
  -1.1099999999999999E-002    -2.5550540748935637E-011
  -1.0799999999999999E-002     6.9487809248507059E-011
  -1.0499999999999999E-002     2.1648813895532047E-010
  -1.0199999999999999E-002    -5.6062479785358176E-010
  -9.8999999999999991E-003    -5.4127537246853904E-010
  -9.5999999999999992E-003     2.0801231597259808E-009
  -9.2999999999999992E-003    -6.3963036114331347E-010
  -8.9999999999999993E-003    -2.1212233017843283E-009
  -8.6999999999999994E-003     4.0901638649606399E-009
  -8.3999999999999995E-003    -4.7527293636342396E-009
  -8.0999999999999996E-003    -3.0053087140270400E-009
  -7.7999999999999988E-003     9.4747597701327861E-009
  -7.4999999999999997E-003    -1.4700622458333230E-009
  -7.1999999999999998E-003    -1.2809786977945391E-009
  -6.8999999999999981E-003     2.2564408489027577E-009
  -6.5999999999999982E-003     1.3163111514304263E-008
  -6.3000000000000000E-003    -4.5188550710240571E-008
  -6.0000000000000001E-003    -4.9410061401747939E-008
  -5.6999999999999985E-003     1.2379064188543175E-007
  -5.3999999999999986E-003     5.6020857347104003E-008
  -5.1000000000000004E-003    -6.3303884274524237E-008
  -4.7999999999999987E-003    -8.4821053823898647E-008
  -4.5000000000000005E-003    -9.0604297404298911E-008
  -4.1999999999999989E-003     1.5308297428486179E-007
  -3.8999999999999990E-003     1.4207994073232465E-008
  -3.5999999999999990E-003    -2.8885412605556513E-007
  -3.2999999999999991E-003     1.7773512277545601E-007
  -2.9999999999999992E-003     1.2534087790885451E-006
  -2.6999999999999993E-003    -9.5825817140297189E-008
  -2.3999999999999994E-003    -4.0939061831716732E-006
  -2.0999999999999977E-003    -1.0542095794098120E-006
  -1.7999999999999995E-003     8.7395389690786675E-006
  -1.4999999999999979E-003     6.5523122308560594E-006
  -1.1999999999999997E-003    -1.5272777470673140E-005
  -8.9999999999999976E-004    -2.8181035415649681E-005
  -5.9999999999999810E-004     3.4227832443530309E-005
  -2.9999999999999992E-004     2.2541894461771767E-004
   0.0000000000000000          5.1033333379190500E-004
   3.0000000000000165E-004     8.0652620165728691E-004
   5.9999999999999984E-004     1.1173099680537573E-003
   9.0000000000000149E-004     1.5672859909567681E-003
   1.2000000000000031E-003     2.3481790504137337E-003
   1.5000000000000013E-003     3.6590637631816344E-003
   1.8000000000000030E-003     5.6735030130280802E-003
   2.1000000000000012E-003     8.5776251592099700E-003
   2.3999999999999994E-003     1.2658959001483453E-002
   2.7000000000000010E-003     1.8416609634141087E-002
   2.9999999999999992E-003     2.6539718735259874E-002
   3.3000000000000008E-003     3.7770805536072677E-002
   3.6000000000000025E-003     5.2911626252651008E-002
   3.9000000000000007E-003     7.2868704551341576E-002
   4.2000000000000023E-003     9.8627010375847465E-002
   4.5000000000000005E-003    0.13119493446862507     
   4.7999999999999987E-003    0.17147776866687012     
   5.1000000000000004E-003    0.22006462034918248     
   5.4000000000000020E-003    0.27691095417509781     
   5.7000000000000037E-003    0.34105383541997436     
   5.9999999999999984E-003    0.41034797899785319     
   6.3000000000000000E-003    0.48114565997331449     
   6.6000000000000017E-003    0.54792994619089508     
   6.9000000000000034E-003    0.60299091663041260     
   7.2000000000000015E-003    0.63625364160709941     
   7.5000000000000032E-003    0.63534354181979147     
   7.8000000000000014E-003    0.58586052231315944     
   8.0999999999999996E-003    0.47223827177717093     
   8.4000000000000012E-003    0.27880748928596144     
   8.7000000000000029E-003    -8.7670727539075899E-003
   9.0000000000000011E-003   -0.40158538493642248     
   9.2999999999999992E-003   -0.90556854998368186     
   9.6000000000000009E-003    -1.5190483496681799     
   9.8999999999999991E-003    -2.2305467741435456     
   1.0200000000000001E-002    -3.0171573687170490     
   1.0500000000000002E-002    -3.8433867005683182     
   1.0800000000000004E-002    -4.6614365828877764     
   1.1099999999999999E-002    -5.4122188068943933     
   1.1400000000000000E-002    -6.0279664340259975     
   1.1700000000000002E-002    -6.4365985934848693     
   1.2000000000000004E-002    -6.5665588305822791     
   1.2300000000000002E-002    -6.3534879052270057     
   1.2600000000000000E-002    -5.7466570848945153     
   1.2900000000000002E-002    -4.7158149277928656     
   1.3200000000000000E-002    -3.2562573751305997     
   1.3500000000000002E-002    -1.3930229305713455     
   1.3800000000000003E-002    0.81731451171493097     
   1.4100000000000001E-002     3.2871996183760102     
   1.4400000000000000E-002     5.9020873495260888     
   1.4700000000000001E-002     8.5261994405589476     
   1.4999999999999999E-002     11.011151119296423     
   1.5300000000000001E-002     13.206253029131224     
   1.5600000000000003E-002     14.968752319029004     
   1.5899999999999997E-002     16.174465293924296     
   1.6199999999999999E-002     16.726475683554266     
   1.6500000000000001E-002     16.562717654286303     
   1.6800000000000002E-002     15.660438884933768     
   1.7100000000000004E-002     14.037596847635655     
   1.7400000000000006E-002     11.751382668211940     
   1.7700000000000000E-002     8.8941536960761329     
   1.8000000000000002E-002     5.5874577320550589     
   1.8300000000000004E-002     1.9741737760361202     
   1.8600000000000005E-002    -1.7893519002014089     
   1.8900000000000000E-002    -5.5415795080967767     
   1.9200000000000002E-002    -9.1237163023535359     
   1.9500000000000003E-002    -12.385840229756347     
   1.9799999999999998E-002    -15.193200640981807     
   2.0100000000000000E-002    -17.429059879447479     
   2.0400000000000001E-002    -18.999811518878861     
   2.0700000000000003E-002    -19.835630432333197     
   2.0999999999999998E-002    -19.893882836941991     
   2.1299999999999999E-002    -19.160219691341375     
   2.1600000000000001E-002    -17.649310522963749     
   2.1900000000000003E-002    -15.407695044352568     
   2.2200000000000004E-002    -12.511872242332799     
   2.2500000000000006E-002    -9.0686756876221288     
   2.2800000000000001E-002    -5.2127376823064289     
   2.3100000000000002E-002    -1.1018544561116461     
   2.3400000000000004E-002     3.0888097990512025     
   2.3699999999999999E-002     7.1759342230514314     
   2.4000000000000000E-002     10.977193240485461     
   2.4300000000000002E-002     14.322400097547389     
   2.4599999999999997E-002     17.064710417311623     
   2.4900000000000005E-002     19.088616082383322     
   2.5200000000000000E-002     20.318654072642360     
   2.5499999999999995E-002     20.721223323804409     
   2.5800000000000003E-002     20.303428056949731     
   2.6099999999999998E-002     19.110046850432017     
   2.6400000000000007E-002     17.212736981425294     
   2.6700000000000002E-002     14.699167694060112     
   2.6999999999999996E-002     11.662490946319840     
   2.7300000000000005E-002     8.1890739519579814     
   2.7600000000000000E-002     4.3512185725430630     
   2.7900000000000008E-002    0.20478815309255061     
   2.8200000000000003E-002    -4.2086036515141458     
   2.8499999999999998E-002    -8.8522708652658331     
   2.8800000000000006E-002    -13.682587135679512     
   2.9100000000000001E-002    -18.632691438502111     
   2.9400000000000003E-002    -23.594841682759757     
   2.9700000000000004E-002    -28.412513617137449     
   3.0000000000000006E-002    -32.868306665092064     
   3.0300000000000001E-002    -36.689872626414939     
   3.0600000000000002E-002    -39.562052747196013     
   3.0900000000000004E-002    -41.145747887533048     
   3.1199999999999999E-002    -41.114217978919520     
   3.1500000000000007E-002    -39.185604149745039     
   3.1800000000000002E-002    -35.162207584497793     
   3.2099999999999997E-002    -28.968710467699282     
   3.2400000000000005E-002    -20.673313490124663     
   3.2700000000000000E-002    -10.511569214364480     
   3.3000000000000002E-002     1.1201686078818378     
   3.3300000000000003E-002     13.679299988280725     
   3.3599999999999998E-002     26.501482283173786     
   3.3900000000000000E-002     38.857583623394248     
   3.4200000000000001E-002     49.997783349450003     
   3.4500000000000003E-002     59.213362036735482     
   3.4799999999999998E-002     65.898153687304927     
   3.5099999999999999E-002     69.590797055510393     
   3.5400000000000001E-002     70.020178978983182     
   3.5699999999999996E-002     67.125417708693760     
   3.6000000000000004E-002     61.058571648228337     
   3.6299999999999999E-002     52.179288602787693     
   3.6600000000000008E-002     41.018548972749855     
   3.6900000000000002E-002     28.239560668919950     
   3.7199999999999997E-002     14.591096881328660     
   3.7500000000000006E-002    0.84189432965918520     
   3.7800000000000000E-002    -12.267293239919503     
   3.8100000000000009E-002    -24.071845024737083     
   3.8400000000000004E-002    -34.037286816046105     
   3.8699999999999998E-002    -41.770176678984043     
   3.9000000000000007E-002    -47.048064591593288     
   3.9300000000000002E-002    -49.817164102990951     
   3.9600000000000003E-002    -50.172536631165670     
   3.9900000000000005E-002    -48.354102026848594     
   4.0200000000000000E-002    -44.695966577900577     
   4.0500000000000001E-002    -39.604580460499150     
   4.0800000000000003E-002    -33.523421479888427     
   4.1100000000000005E-002    -26.883386915499539     
   4.1399999999999999E-002    -20.097626892679358     
   4.1700000000000008E-002    -13.517031082519928     
   4.2000000000000003E-002    -7.4238734316539539     
   4.2299999999999997E-002    -2.0321885668906132     
   4.2600000000000006E-002     2.5312453394216625     
   4.2900000000000001E-002     6.1990327044156874     
   4.3200000000000002E-002     8.9709903264377964     
   4.3500000000000004E-002     10.893845109076285     
   4.3799999999999999E-002     12.042025932661529     
   4.4100000000000000E-002     12.522816729656441     
   4.4400000000000002E-002     12.445659087099830     
   4.4700000000000004E-002     11.925928988909396     
   4.4999999999999998E-002     11.079076401072710     
   4.5300000000000000E-002     10.005180962691963     
   4.5600000000000002E-002     8.8015883303755587     
   4.5899999999999996E-002     7.5495548450217207     
   4.6200000000000005E-002     6.3173234515863079     
   4.6500000000000000E-002     5.1638939261611494     
   4.6799999999999994E-002     4.1288218661619398     
   4.7100000000000003E-002     3.2416421740709520     
   4.7399999999999998E-002     2.5175211192964628     
   4.7700000000000006E-002     1.9551771554239652     
   4.8000000000000001E-002     1.5477909467326074     
   4.8300000000000010E-002     1.2759899759167159     
   4.8600000000000004E-002     1.1131239917675542     
   4.8899999999999999E-002     1.0353628692992809     
   4.9200000000000008E-002     1.0125203947979933     
   4.9500000000000002E-002     1.0223697464949737     
   4.9800000000000011E-002     1.0473845183586632     
   5.0100000000000006E-002     1.0716022989292757     
   5.0400000000000000E-002     1.0917772866298119     
   5.0700000000000009E-002     1.1020297810413315     
   5.1000000000000004E-002     1.1033170320250896     
   5.1299999999999998E-002     1.0984719008851338     
   5.1600000000000007E-002     1.0838138997734772     
   5.1900000000000002E-002     1.0610136348294819     
   5.2200000000000010E-002     1.0246631191325482     
   5.2500000000000005E-002    0.96791438062401980     
   5.2800000000000000E-002    0.88683829435486494     
   5.3099999999999994E-002    0.77387652486049385     
   5.3400000000000003E-002    0.62764895006274668     
   5.3699999999999998E-002    0.44915845837055224     
   5.4000000000000006E-002    0.24118717216628111     
   5.4300000000000001E-002     1.4910743517245653E-002
   5.4599999999999996E-002   -0.21984365128551098     
   5.4900000000000004E-002   -0.45116310105753604     
   5.5199999999999999E-002   -0.66384926952068535     
   5.5499999999999994E-002   -0.85105759937517955     
   5.5800000000000002E-002    -1.0043846424459995     
   5.6099999999999997E-002    -1.1195382648710202     
   5.6400000000000006E-002    -1.2008780510563124     
   5.6700000000000000E-002    -1.2471297233230778     
   5.6999999999999995E-002    -1.2668167714025205     
   5.7300000000000004E-002    -1.2640321604812901     
   5.7599999999999998E-002    -1.2405968792781421     
   5.7900000000000007E-002    -1.2046333252875516     
   5.8200000000000002E-002    -1.1504791383118078     
   5.8499999999999996E-002    -1.0816283610203117     
   5.8800000000000005E-002   -0.99691017820152328     
   5.9100000000000000E-002   -0.89234401153328924     
   5.9400000000000008E-002   -0.77584743045322857     
   5.9700000000000003E-002   -0.64589177024991873     
   6.0000000000000012E-002   -0.51264591648251800     
   6.0300000000000006E-002   -0.38630070384919990     
   6.0600000000000001E-002   -0.27295586480996614     
   6.0900000000000010E-002   -0.18847335850163813     
   6.1200000000000004E-002   -0.13559405345145728     
   6.1500000000000013E-002   -0.11970751241802280     
   6.1800000000000008E-002   -0.14303550029994322     
   6.2100000000000002E-002   -0.19525879134313356     
   6.2399999999999997E-002   -0.27201537565285128     
   6.2700000000000006E-002   -0.35834838266829233     
   6.3000000000000000E-002   -0.44032750938416287     
   6.3300000000000009E-002   -0.50852484128702913     
   6.3600000000000004E-002   -0.54863475339941692     
   6.3899999999999998E-002   -0.55802226583338332     
   6.4199999999999993E-002   -0.53473858277966135     
   6.4500000000000002E-002   -0.47867833328966225     
   6.4800000000000010E-002   -0.40012305197005132     
   6.5100000000000005E-002   -0.30297669825019014     
   6.5400000000000000E-002   -0.19635349681785499     
   6.5700000000000008E-002    -8.9611717603704927E-002
   6.5999999999999989E-002     1.6991992613730231E-002
   6.6299999999999998E-002    0.11690674892563246     
   6.6600000000000006E-002    0.21323099015035468     
   6.6900000000000001E-002    0.30840872092960836     
   6.7199999999999996E-002    0.40167413027186616     
   6.7500000000000004E-002    0.49953910243420974     
   6.7800000000000013E-002    0.59629926708496783     
   6.8099999999999994E-002    0.69141400289045318     
   6.8400000000000002E-002    0.77998598264375130     
   6.8700000000000011E-002    0.85007151340659737     
   6.8999999999999992E-002    0.89784489737738726     
   6.9300000000000000E-002    0.91118670928382817     
   6.9600000000000009E-002    0.88526213037967061     
   6.9900000000000004E-002    0.81945052686543651     
   7.0199999999999999E-002    0.71273676235101624     
   7.0500000000000007E-002    0.57644601843463716     
   7.0800000000000016E-002    0.41844979113471303     
   7.1099999999999997E-002    0.25401199091910848     
   7.1400000000000005E-002     9.9203655864329415E-002
   7.1700000000000000E-002    -3.5267814715326418E-002
   7.1999999999999995E-002   -0.13565982082223885     
   7.2300000000000003E-002   -0.19800029046514692     
   7.2600000000000012E-002   -0.22154218131698089     
   7.2900000000000006E-002   -0.21079874472001212     
   7.3200000000000001E-002   -0.17735758453836922     
   7.3499999999999996E-002   -0.13243569882314976     
   7.3800000000000004E-002    -9.1246070596953235E-002
   7.4099999999999999E-002    -6.6428094213793892E-002
   7.4400000000000008E-002    -6.5751353826326492E-002
   7.4700000000000003E-002    -9.4852961483931075E-002
   7.5000000000000011E-002   -0.15085794551971976     
   7.5299999999999992E-002   -0.22549692623068393     
   7.5600000000000001E-002   -0.30698156319562542     
   7.5900000000000009E-002   -0.37803997188943284     
   7.6200000000000004E-002   -0.42404169336478337     
   7.6499999999999999E-002   -0.43004205879482910     
   7.6800000000000007E-002   -0.38720919134978427     
   7.7099999999999988E-002   -0.29510868600937690     
   7.7399999999999997E-002   -0.15759969053590764     
   7.7700000000000005E-002     8.3191367812280176E-003
   7.8000000000000014E-002    0.18188750821847091     
   7.8299999999999995E-002    0.33671565480641735     
   7.8600000000000003E-002    0.44312066326143179     
   7.8900000000000012E-002    0.47790368146227519     
   7.9199999999999993E-002    0.41846650554571119     
   7.9500000000000001E-002    0.25717872873356346     
   7.9800000000000010E-002    -2.9872981792324338E-003
   8.0100000000000018E-002   -0.34796064736923049     
   8.0399999999999999E-002   -0.74423239227544691     
   8.0700000000000008E-002    -1.1539704079210964     
   8.1000000000000003E-002    -1.5266223690463674     
   8.1299999999999997E-002    -1.8110171090181268     
   8.1600000000000006E-002    -1.9618148771055670     
   8.1900000000000014E-002    -1.9376662032916072     
   8.2199999999999995E-002    -1.7191674242718407     
   8.2500000000000004E-002    -1.2997402350152207     
   8.2799999999999999E-002   -0.69656795593791787     
   8.3100000000000007E-002     5.0338710998307501E-002
   8.3400000000000002E-002    0.88829800713472695     
   8.3700000000000011E-002     1.7452128478361448     
   8.4000000000000005E-002     2.5465694555420071     
   8.4300000000000000E-002     3.2184832436823618     
   8.4599999999999995E-002     3.6935979901274885     
   8.4900000000000003E-002     3.9251620392445541     
   8.5199999999999998E-002     3.8830377523748232     
   8.5500000000000007E-002     3.5651188788071781     
   8.5800000000000001E-002     2.9936378937160018     
   8.6100000000000010E-002     2.2103658104907322     
   8.6399999999999991E-002     1.2799209109956493     
   8.6699999999999999E-002    0.27411022478629388     
   8.7000000000000008E-002   -0.73010259179527570     
   8.7300000000000003E-002    -1.6575548220459098     
   8.7599999999999997E-002    -2.4463320415556953     
   8.7900000000000006E-002    -3.0472741642008603     
   8.8200000000000014E-002    -3.4309074297752553     
   8.8499999999999995E-002    -3.5877650015128268     
   8.8800000000000004E-002    -3.5246898025226621     
   8.9100000000000013E-002    -3.2671397388512418     
   8.9399999999999993E-002    -2.8498014977663919     
   8.9700000000000002E-002    -2.3151341915623074     
   9.0000000000000011E-002    -1.7102743567848844     
   9.0299999999999991E-002    -1.0776714040577811     
   9.0600000000000000E-002   -0.45861783605371298     
   9.0900000000000009E-002    0.11399616446645300     
   9.1200000000000017E-002    0.61565002923769985     
   9.1499999999999998E-002     1.0279085322003778     
   9.1800000000000007E-002     1.3425155944792122     
   9.2100000000000001E-002     1.5563990972902773     
   9.2399999999999996E-002     1.6729676454434257     
   9.2700000000000005E-002     1.7011119552615193     
   9.3000000000000013E-002     1.6521363806246108     
   9.3300000000000008E-002     1.5410510940562092     
   9.3600000000000003E-002     1.3838503094135608     
   9.3899999999999997E-002     1.1966974533512129     
   9.4200000000000006E-002    0.99567152397304515     
   9.4500000000000001E-002    0.79506661749099594     
   9.4800000000000009E-002    0.60626694208141463     
   9.5100000000000004E-002    0.43805037992766582     
   9.5399999999999999E-002    0.29506865072285876     
   9.5699999999999993E-002    0.17749552321293899     
   9.6000000000000002E-002     8.4136856224443002E-002
   9.6300000000000011E-002     8.6657445653695597E-003
   9.6600000000000005E-002    -5.4838225202214347E-002
   9.6900000000000000E-002   -0.11308034845739079     
   9.7200000000000009E-002   -0.17326180569492378     
   9.7499999999999989E-002   -0.23748377795910264     
   9.7799999999999998E-002   -0.30918759485864017     
   9.8100000000000007E-002   -0.38670824118799929     
   9.8400000000000015E-002   -0.46606677711152533     
   9.8699999999999996E-002   -0.54405632128967518     
   9.9000000000000005E-002   -0.61330704628887167     
   9.9300000000000013E-002   -0.67081015018680989     
   9.9599999999999994E-002   -0.71229722215471780     
   9.9900000000000003E-002   -0.73524124696246140     
  0.10020000000000001        -0.74248644731073588     
  0.10049999999999999        -0.73383592877277470     
  0.10080000000000000        -0.71427027263708343     
  0.10110000000000001        -0.68780460793499487     
  0.10140000000000000        -0.65641460729007739     
  0.10170000000000000        -0.62421313756265762     
  0.10200000000000001        -0.58961026123753280     
  0.10230000000000002        -0.55224681238483719     
  0.10260000000000000        -0.50962884534575070     
  0.10290000000000001        -0.45650102744761190     
  0.10320000000000000        -0.39100107779686161     
  0.10350000000000001        -0.30872130723052227     
  0.10380000000000000        -0.20842869243245882     
  0.10410000000000001         -9.1668391819535733E-002
  0.10440000000000001          4.0690455452719328E-002
  0.10470000000000000         0.18247056440869247     
  0.10500000000000000         0.32842836727983793     
  0.10530000000000000         0.47228785747830870     
  0.10560000000000000         0.60577919510624800     
  0.10590000000000001         0.72412263913867159     
  0.10620000000000000         0.82058750726609575     
  0.10650000000000001         0.89145573931662880     
  0.10679999999999999         0.93507384241890623     
  0.10710000000000000         0.94862350211859359     
  0.10740000000000001         0.93385880787633346     
  0.10770000000000000         0.89159434943143878     
  0.10800000000000000         0.82381086552967009     
  0.10830000000000001         0.73493294968895928     
  0.10859999999999999         0.62742936574622710     
  0.10890000000000000         0.50737031644220654     
  0.10920000000000001         0.37947359210891179     
  0.10950000000000001         0.24857017834525386     
  0.10979999999999999         0.12174025172384301     
  0.11009999999999999          2.3237469038166203E-003
  0.11040000000000001        -0.10400526083781585     
  0.11070000000000001        -0.19433549758532528     
  0.11100000000000000        -0.26784018365749496     
  0.11130000000000000        -0.32266929276575396     
  0.11160000000000002        -0.36107732222250660     
  0.11190000000000001        -0.38452080695612390     
  0.11220000000000001        -0.39546440298118452     
  0.11250000000000000        -0.39803140001839399     
  0.11280000000000000        -0.39325032152702882     
  0.11309999999999999        -0.38408697202377301     
  0.11340000000000001        -0.37115192512972200     
  0.11369999999999998        -0.35333012098534478     
  0.11400000000000000        -0.33117960710845473     
  0.11430000000000000        -0.30206871492216147     
  0.11460000000000002        -0.26574431148874933     
  0.11489999999999999        -0.22156505429874696     
  0.11520000000000001        -0.16848884735839750     
  0.11550000000000001        -0.10871952572906320     
  0.11580000000000000         -4.2971953561918109E-002
  0.11609999999999999          2.6153698452817585E-002
  0.11640000000000002          9.4991269540029316E-002
  0.11670000000000001         0.16289439296519642     
  0.11700000000000001         0.22640627396999430     
  0.11730000000000000         0.28466886730094704     
  0.11760000000000000         0.33803014712385282     
  0.11789999999999999         0.38428735678539055     
  0.11820000000000001         0.42543647988376015     
  0.11850000000000001         0.45961081486211230     
  0.11880000000000000         0.48625365517467578     
  0.11910000000000000         0.50584420870167013     
  0.11940000000000002         0.51326101975165994     
  0.11970000000000001         0.50915850481003233     
  0.12000000000000001         0.48926867867709922     
  0.12030000000000000         0.45063854871478259     
  0.12060000000000000         0.39495441810302578     
  0.12089999999999999         0.31915866069576876     
  0.12119999999999999         0.22803183288077730     
  0.12150000000000001         0.12412891411015770     
  0.12180000000000001          1.0886962777960418E-002
  0.12210000000000000        -0.10269804210045666     
  0.12239999999999999        -0.21527430460363151     
  0.12270000000000002        -0.31878301249744012     
  0.12300000000000001        -0.40983722429107639     
  0.12330000000000001        -0.48938618738555595     
  0.12360000000000000        -0.55347027141484095     
  0.12390000000000000        -0.60793200144219073     
  0.12419999999999999        -0.65417137785298551     
  0.12450000000000001        -0.69539893922456053     
  0.12480000000000001        -0.73863449655459723     
  0.12509999999999999        -0.78258089340398396     
  0.12540000000000001        -0.83175110010187869     
  0.12570000000000003        -0.88502241535664816     
  0.12600000000000000        -0.93771886128011861     
  0.12630000000000002        -0.98969035587087939     
  0.12659999999999999         -1.0319272217332438     
  0.12690000000000001         -1.0600568219827906     
  0.12719999999999998         -1.0695961373509628     
  0.12750000000000000         -1.0516630191972760     
  0.12780000000000002         -1.0067189211505974     
  0.12809999999999999        -0.92904476875203268     
  0.12840000000000001        -0.81810508986465547     
  0.12869999999999998        -0.67693002324781404     
  0.12900000000000000        -0.50282978045210358     
  0.12930000000000003        -0.30304787720776144     
  0.12959999999999999         -7.9710103774883218E-002
  0.12990000000000002         0.16363998549940603     
  0.13019999999999998         0.41740776116213341     
  0.13050000000000000         0.67943652724178505     
  0.13080000000000003         0.93865473890590967     
  0.13109999999999999          1.1871599125158956     
  0.13140000000000002          1.4180319354796906     
  0.13169999999999998          1.6175868741354607     
  0.13200000000000001          1.7807097298669872     
  0.13229999999999997          1.8970475183895665     
  0.13260000000000000          1.9592611411924805     
  0.13290000000000002          1.9661053547571141     
  0.13319999999999999          1.9124560117468716     
  0.13350000000000001          1.8027053371837785     
  0.13380000000000003          1.6404958658432107     
  0.13410000000000000          1.4321125938623802     
  0.13440000000000002          1.1888401928106678     
  0.13469999999999999         0.91848570739598301     
  0.13500000000000001         0.63251337668963858     
  0.13529999999999998         0.34132358998366730     
  0.13560000000000000          5.1652413354215387E-002
  0.13590000000000002        -0.22782805651966542     
  0.13619999999999999        -0.49244550122224773     
  0.13650000000000001        -0.73948626192645872     
  0.13680000000000003        -0.96451997971324466     
  0.13710000000000000         -1.1663751732108130     
  0.13740000000000002         -1.3427176132119740     
  0.13769999999999999         -1.4894350696493559     
  0.13800000000000001         -1.6050248533279543     
  0.13829999999999998         -1.6840951956187808     
  0.13860000000000000         -1.7228193460022674     
  0.13890000000000002         -1.7177395119336856     
  0.13919999999999999         -1.6630166260265984     
  0.13950000000000001         -1.5585005021205633     
  0.13979999999999998         -1.4025915691625024     
  0.14010000000000000         -1.1954790485547666     
  0.14040000000000002        -0.94420763025391252     
  0.14069999999999999        -0.65217366479655692     
  0.14100000000000001        -0.32923516186242197     
  0.14130000000000004          1.2807596166729079E-002
  0.14160000000000000         0.36392233930765389     
  0.14189999999999997         0.70751898241318445     
  0.14219999999999999          1.0318355719936592     
  0.14250000000000002          1.3227259025057574     
  0.14279999999999998          1.5650602355488341     
  0.14310000000000000          1.7519367198379314     
  0.14339999999999997          1.8712513609952879     
  0.14369999999999999          1.9185452319236065     
  0.14400000000000002          1.8940788766562640     
  0.14429999999999998          1.7949429162111867     
  0.14460000000000001          1.6315371471760289     
  0.14490000000000003          1.4103566767845743     
  0.14520000000000000          1.1424344615500528     
  0.14550000000000002         0.84618402482018062     
  0.14579999999999999         0.53042482162806426     
  0.14610000000000001         0.21555946140550319     
  0.14640000000000003         -8.6668659723245473E-002
  0.14670000000000000        -0.36744459199200386     
  0.14699999999999996        -0.61170593479722890     
  0.14729999999999999        -0.82082483093037206     
  0.14760000000000001        -0.98775218065332449     
  0.14789999999999998         -1.1130459514803457     
  0.14820000000000000         -1.2036347127128690     