  -1.4999999999999999E-002     0.0000000000000000     
  -1.4700000000000000E-002     0.0000000000000000     
  -1.4400000000000000E-002     0.0000000000000000     
  -1.4100000000000000E-002     0.0000000000000000     
  -1.3800000000000000E-002     0.0000000000000000     
  -1.3500000000000000E-002     0.0000000000000000     
  -1.3200000000000000E-002     0.0000000000000000     
  -1.2899999999999998E-002     0.0000000000000000     
  -1.2600000000000000E-002     0.0000000000000000     
  -1.2299999999999998E-002     0.0000000000000000     
  -1.2000000000000000E-002     0.0000000000000000     
  -1.1699999999999999E-002     0.0000000000000000     
  -1.1399999999999999E-002     0.0000000000000000     
  -1.1099999999999999E-002     0.0000000000000000     
  -1.0799999999999999E-002     0.0000000000000000     
  -1.0499999999999999E-002     0.0000000000000000     
  -1.0199999999999999E-002     0.0000000000000000     
  -9.8999999999999991E-003     0.0000000000000000     
  -9.5999999999999992E-003     0.0000000000000000     
  -9.2999999999999992E-003     0.0000000000000000     
  -8.9999999999999993E-003     0.0000000000000000     
  -8.6999999999999994E-003     0.0000000000000000     
  -8.3999999999999995E-003     0.0000000000000000     
  -8.0999999999999996E-003     0.0000000000000000     
  -7.7999999999999988E-003     0.0000000000000000     
  -7.4999999999999997E-003     0.0000000000000000     
  -7.1999999999999998E-003     0.0000000000000000     
  -6.8999999999999981E-003     0.0000000000000000     
  -6.5999999999999982E-003     0.0000000000000000     
  -6.3000000000000000E-003     0.0000000000000000     
  -6.0000000000000001E-003     0.0000000000000000     
  -5.6999999999999985E-003     0.0000000000000000     
  -5.3999999999999986E-003     0.0000000000000000     
  -5.1000000000000004E-003     0.0000000000000000     
  -4.7999999999999987E-003     0.0000000000000000     
  -4.5000000000000005E-003     0.0000000000000000     
  -4.1999999999999989E-003     0.0000000000000000     
  -3.8999999999999990E-003     0.0000000000000000     
  -3.5999999999999990E-003     0.0000000000000000     
  -3.2999999999999991E-003     0.0000000000000000     
  -2.9999999999999992E-003     0.0000000000000000     
  -2.6999999999999993E-003     0.0000000000000000     
  -2.3999999999999994E-003     0.0000000000000000     
  -2.0999999999999977E-003     0.0000000000000000     
  -1.7999999999999995E-003     0.0000000000000000     
  -1.4999999999999979E-003     0.0000000000000000     
  -1.1999999999999997E-003     0.0000000000000000     
  -8.9999999999999976E-004     0.0000000000000000     
  -5.9999999999999810E-004     0.0000000000000000     
  -2.9999999999999992E-004     0.0000000000000000     
   0.0000000000000000          0.0000000000000000     
   3.0000000000000165E-004     0.0000000000000000     
   5.9999999999999984E-004     0.0000000000000000     
   9.0000000000000149E-004     0.0000000000000000     
   1.2000000000000031E-003     0.0000000000000000     
   1.5000000000000013E-003     0.0000000000000000     
   1.8000000000000030E-003     0.0000000000000000     
   2.1000000000000012E-003     0.0000000000000000     
   2.3999999999999994E-003     0.0000000000000000     
   2.7000000000000010E-003     0.0000000000000000     
   2.9999999999999992E-003     0.0000000000000000     
   3.3000000000000008E-003     0.0000000000000000     
   3.6000000000000025E-003     0.0000000000000000     
   3.9000000000000007E-003     0.0000000000000000     
   4.2000000000000023E-003     0.0000000000000000     
   4.5000000000000005E-003     0.0000000000000000     
   4.7999999999999987E-003     0.0000000000000000     
   5.1000000000000004E-003     3.3951146174170648E-042
   5.4000000000000020E-003     4.5250552075330410E-041
   5.7000000000000037E-003     9.5099685638871590E-039
   5.9999999999999984E-003     6.2928875356618048E-038
   6.3000000000000000E-003     1.6361299764037478E-037
   6.6000000000000017E-003    -2.8417415849115924E-036
   6.9000000000000034E-003     1.3510213970914656E-035
   7.2000000000000015E-003     8.4377267524656616E-035
   7.5000000000000032E-003    -1.0610250870346559E-034
   7.8000000000000014E-003    -8.8678917538682947E-034
   8.0999999999999996E-003     6.1368376790608867E-033
   8.4000000000000012E-003    -3.4007366542240428E-032
   8.7000000000000029E-003    -2.3212713034593232E-033
   9.0000000000000011E-003     1.2172590107642997E-030
   9.2999999999999992E-003    -6.2808610733796899E-030
   9.6000000000000009E-003     1.8203830470150311E-030
   9.8999999999999991E-003     1.2703390650934466E-028
   1.0200000000000001E-002    -7.0637940581462576E-028
   1.0500000000000002E-002     1.5687854012173054E-027
   1.0800000000000004E-002     3.0040970732457170E-027
   1.1099999999999999E-002    -4.0436161131311313E-026
   1.1400000000000000E-002     1.7341042630009178E-025
   1.1700000000000002E-002    -3.7088973958200514E-025
   1.2000000000000004E-002    -1.7589517003474733E-025
   1.2300000000000002E-002     4.6152275392303621E-024
   1.2600000000000000E-002    -1.9263187852007563E-023
   1.2900000000000002E-002     4.6593407812638245E-023
   1.3200000000000000E-002    -4.7165751134257711E-023
   1.3500000000000002E-002    -2.2661375561857694E-022
   1.3800000000000003E-002     1.8686552170544105E-021
   1.4100000000000001E-002    -8.4308090064987701E-021
   1.4400000000000000E-002     2.5594723593497237E-020
   1.4700000000000001E-002    -3.0624068993561895E-020
   1.4999999999999999E-002    -2.4025464699515341E-019
   1.5300000000000001E-002     2.3551661227944140E-018
   1.5600000000000003E-002    -1.3814882126859287E-017
   1.5899999999999997E-002     6.6905841733478004E-017
   1.6199999999999999E-002    -2.9259076071893006E-016
   1.6500000000000001E-002     1.1983863369252334E-015
   1.6800000000000002E-002    -4.6422008937094080E-015
   1.7100000000000004E-002     1.6816789663463565E-014
   1.7400000000000006E-002    -5.5072106504276890E-014
   1.7700000000000000E-002     1.5150632817655993E-013
   1.8000000000000002E-002    -2.8252924157855499E-013
   1.8300000000000004E-002    -1.0082056859747827E-013
   1.8600000000000005E-002     3.8310511483982849E-012
   1.8900000000000000E-002    -1.9671731665319984E-011
   1.9200000000000002E-002     6.0586438952584844E-011
   1.9500000000000003E-002    -1.0000351300847260E-010
   1.9799999999999998E-002    -7.8101663260452231E-011
   2.0100000000000000E-002     1.0001392701110933E-009
   2.0400000000000001E-002    -2.6233401210536936E-009
   2.0700000000000003E-002     1.1489676723975456E-009
   2.0999999999999998E-002     1.1713357984368389E-008
   2.1299999999999999E-002    -2.8503083853714301E-008
   2.1600000000000001E-002    -8.1498468437857314E-009
   2.1900000000000003E-002     1.2676138188715127E-007
   2.2200000000000004E-002    -8.1612044331064684E-008
   2.2500000000000006E-002    -3.9978931861233586E-007
   2.2800000000000001E-002     3.0249479207211847E-007
   2.3100000000000002E-002     1.1328731248940671E-006
   2.3400000000000004E-002    -4.9256187064064672E-007
   2.3699999999999999E-002    -3.4628269552467227E-006
   2.4000000000000000E-002    -1.0117202818898117E-006
   2.4300000000000002E-002     1.3411713628924531E-005
   2.4599999999999997E-002     3.9627524208463962E-005
   2.4900000000000005E-002     7.3806837293902754E-005
   2.5200000000000000E-002     1.1751449490070580E-004
   2.5499999999999995E-002     1.8089756472527572E-004
   2.5800000000000003E-002     2.8090223197863577E-004
   2.6099999999999998E-002     4.3933931740060880E-004
   2.6400000000000007E-002     6.8231537378525195E-004
   2.6700000000000002E-002     1.0452515878568319E-003
   2.6999999999999996E-002     1.5796499644304060E-003
   2.7300000000000005E-002     2.3567495232953302E-003
   2.7600000000000000E-002     3.4722738500766472E-003
   2.7900000000000008E-002     5.0514225271437868E-003
   2.8200000000000003E-002     7.2518119218371903E-003
   2.8499999999999998E-002     1.0265798915552630E-002
   2.8800000000000006E-002     1.4322036224155055E-002
   2.9100000000000001E-002     1.9687463266835136E-002
   2.9400000000000003E-002     2.6660026097808286E-002
   2.9700000000000004E-002     3.5548633527848039E-002
   3.0000000000000006E-002     4.6648915699674234E-002
   3.0300000000000001E-002     6.0213068107580314E-002
   3.0600000000000002E-002     7.6404192722514197E-002
   3.0900000000000004E-002     9.5233168015123049E-002
   3.1199999999999999E-002    0.11648532681429075     
   3.1500000000000007E-002    0.13964591399934900     
   3.1800000000000002E-002    0.16382549610581909     
   3.2099999999999997E-002    0.18768987970345341     
   3.2400000000000005E-002    0.20940285033210232     
   3.2700000000000000E-002    0.22661995198939139     
   3.3000000000000002E-002    0.23651175793882478     
   3.3300000000000003E-002    0.23585422850897564     
   3.3599999999999998E-002    0.22119334562643617     
   3.3900000000000000E-002    0.18906612741772411     
   3.4200000000000001E-002    0.13632694067503801     
   3.4500000000000003E-002     6.0515511845862485E-002
   3.4799999999999998E-002    -3.9770837214834140E-002
   3.5099999999999999E-002   -0.16441580525092242     
   3.5400000000000001E-002   -0.31148821837042001     
   3.5699999999999996E-002   -0.47692594225145180     
   3.6000000000000004E-002   -0.65438470255691961     
   3.6299999999999999E-002   -0.83535379878943794     
   3.6600000000000008E-002    -1.0093485421900521     
   3.6900000000000002E-002    -1.1644596784479282     
   3.7199999999999997E-002    -1.2880553186780213     
   3.7500000000000006E-002    -1.3676514754216833     
   3.7800000000000000E-002    -1.3919801450957336     
   3.8100000000000009E-002    -1.3519845062502136     
   3.8400000000000004E-002    -1.2418598004779080     
   3.8699999999999998E-002    -1.0598112213134856     
   3.9000000000000007E-002   -0.80867472915179284     
   3.9300000000000002E-002   -0.49607143815168953     
   3.9600000000000003E-002   -0.13418232929527299     
   3.9900000000000005E-002    0.26072938852992100     
   4.0200000000000000E-002    0.66941000404006701     
   4.0500000000000001E-002     1.0708014771037651     
   4.0800000000000003E-002     1.4435152560806306     
   4.1100000000000005E-002     1.7674271015129861     
   4.1399999999999999E-002     2.0249789540034526     
   4.1700000000000008E-002     2.2026051259502384     
   4.2000000000000003E-002     2.2915540112067241     
   4.2299999999999997E-002     2.2883866264459019     
   4.2600000000000006E-002     2.1952552832905039     
   4.2900000000000001E-002     2.0193166835885932     
   4.3200000000000002E-002     1.7722459988863357     
   4.3500000000000004E-002     1.4691140001465255     
   4.3799999999999999E-002     1.1271245836499153     
   4.4100000000000000E-002    0.76452637180449390     
   4.4400000000000002E-002    0.39903623929140125     
   4.4700000000000004E-002     4.7045997286895583E-002
   4.4999999999999998E-002   -0.27744595946348427     
   4.5300000000000000E-002   -0.56349098184197988     
   4.5600000000000002E-002   -0.80331608626229523     
   4.5899999999999996E-002   -0.99265297798335927     
   4.6200000000000005E-002    -1.1302817874549866     
   4.6500000000000000E-002    -1.2177254845143242     
   4.6799999999999994E-002    -1.2588595369576567     
   4.7100000000000003E-002    -1.2589093551849817     
   4.7399999999999998E-002    -1.2243759580725417     
   4.7700000000000006E-002    -1.1620677812108258     
   4.8000000000000001E-002    -1.0787260150906579     
   4.8300000000000010E-002   -0.98092568963003246     
   4.8600000000000004E-002   -0.87435241387955709     
   4.8899999999999999E-002   -0.76413640204110089     
   4.9200000000000008E-002   -0.65455086845357413     
   4.9500000000000002E-002   -0.54900022455764719     
   4.9800000000000011E-002   -0.45036398580237891     
   5.0100000000000006E-002   -0.36064297351605590     
   5.0400000000000000E-002   -0.28135560038740914     
   5.0700000000000009E-002   -0.21348396232240852     
   5.1000000000000004E-002   -0.15732654367978643     
   5.1299999999999998E-002   -0.11279940977163150     
   5.1600000000000007E-002    -7.9165445375854959E-002
   5.1900000000000002E-002    -5.5153391195242846E-002
   5.2200000000000010E-002    -3.9022169047838659E-002
   5.2500000000000005E-002    -2.8521218144588370E-002
   5.2800000000000000E-002    -2.1151532733373137E-002
   5.3099999999999994E-002    -1.4219618250970172E-002
   5.3400000000000003E-002    -5.0545184857216296E-003
   5.3699999999999998E-002     8.6373465128455167E-003
   5.4000000000000006E-002     2.8719301393871244E-002
   5.4300000000000001E-002     5.6286015974781153E-002
   5.4599999999999996E-002     9.1565737182658202E-002
   5.4900000000000004E-002    0.13391556698891630     
   5.5199999999999999E-002    0.18170657116694991     
   5.5499999999999994E-002    0.23255982443088752     
   5.5800000000000002E-002    0.28350447712544286     
   5.6099999999999997E-002    0.33122230386745466     
   5.6400000000000006E-002    0.37246176258730873     
   5.6700000000000000E-002    0.40420417665193342     
   5.6999999999999995E-002    0.42411072343400141     
   5.7300000000000004E-002    0.43068739860877503     
   5.7599999999999998E-002    0.42337181453902073     
   5.7900000000000007E-002    0.40278405950446355     
   5.8200000000000002E-002    0.37032246658548468     
   5.8499999999999996E-002    0.32832052833709657     
   5.8800000000000005E-002    0.27965935622573068     
   5.9100000000000000E-002    0.22734442608271682     
   5.9400000000000008E-002    0.17455533201249623     
   5.9700000000000003E-002    0.12387798531305150     
   6.0000000000000012E-002     7.7467777721986777E-002
   6.0300000000000006E-002     3.6706865560771233E-002
   6.0600000000000001E-002     1.9712879707049456E-003
   6.0900000000000010E-002    -2.6841951316763618E-002
   6.1200000000000004E-002    -5.0795104546464437E-002
   6.1500000000000013E-002    -7.1246802431644801E-002
   6.1800000000000008E-002    -8.9655778789503676E-002
   6.2100000000000002E-002   -0.10771472567491522     
   6.2399999999999997E-002   -0.12637830452470325     
   6.2700000000000006E-002   -0.14632633399912015     
   6.3000000000000000E-002   -0.16753056876071842     
   6.3300000000000009E-002   -0.18906627572622758     
   6.3600000000000004E-002   -0.20973100521134291     
   6.3899999999999998E-002   -0.22749145140005200     
   6.4199999999999993E-002   -0.24028293512776477     
   6.4500000000000002E-002   -0.24611203256578384     
   6.4800000000000010E-002   -0.24299321827002002     
   6.5100000000000005E-002   -0.22977207683672241     
   6.5400000000000000E-002   -0.20574028202720268     
   6.5700000000000008E-002   -0.17097408139125517     
   6.5999999999999989E-002   -0.12639857059816995     
   6.6299999999999998E-002    -7.3302008537935143E-002
   6.6600000000000006E-002    -1.3563088503407775E-002
   6.6900000000000001E-002     5.0778112301044238E-002
   6.7199999999999996E-002    0.11780460886731786     
   6.7500000000000004E-002    0.18566037340497502     
   6.7800000000000013E-002    0.25290237616080768     
   6.8099999999999994E-002    0.31845859410184263     
   6.8400000000000002E-002    0.38152351713635446     
   6.8700000000000011E-002    0.44163336203407833     
   6.8999999999999992E-002    0.49827993297542594     
   6.9300000000000000E-002    0.55081709214105179     
   6.9600000000000009E-002    0.59849528767987881     
   6.9900000000000004E-002    0.63991955354717556     
   7.0199999999999999E-002    0.67333433549246158     
   7.0500000000000007E-002    0.69660892035905686     
   7.0800000000000016E-002    0.70703946929471639     
   7.1099999999999997E-002    0.70196838185929755     
   7.1400000000000005E-002    0.67862936489104253     
   7.1700000000000000E-002    0.63449589800534323     
   7.1999999999999995E-002    0.56760873906581122     
   7.2300000000000003E-002    0.47649640801993609     
   7.2600000000000012E-002    0.36069518778885767     
   7.2900000000000006E-002    0.22066318046670341     
   7.3200000000000001E-002     5.7758427025962705E-002
   7.3499999999999996E-002   -0.12539784338627602     
   7.3800000000000004E-002   -0.32524702874352085     
   7.4099999999999999E-002   -0.53715198235632866     
   7.4400000000000008E-002   -0.75536416165335529     
   7.4700000000000003E-002   -0.97325646627397155     
   7.5000000000000011E-002    -1.1833320152774955     
   7.5299999999999992E-002    -1.3774352996682633     
   7.5600000000000001E-002    -1.5470317977323376     
   7.5900000000000009E-002    -1.6835067823682635     
   7.6200000000000004E-002    -1.7785079466806042     
   7.6499999999999999E-002    -1.8245533482884175     
   7.6800000000000007E-002    -1.8154119429082956     
   7.7099999999999988E-002    -1.7466848594299411     
   7.7399999999999997E-002    -1.6163256875008278     
   7.7700000000000005E-002    -1.4248843988165745     
   7.8000000000000014E-002    -1.1759988677028408     
   7.8299999999999995E-002   -0.87614965001846790     
   7.8600000000000003E-002   -0.53472526503535300     
   7.8900000000000012E-002   -0.16372699085491801     
   7.9199999999999993E-002    0.22313396485455783     
   7.9500000000000001E-002    0.61057014830665901     
   7.9800000000000010E-002    0.98300139493354188     
   8.0100000000000018E-002     1.3254089059045921     
   8.0399999999999999E-002     1.6237771306368110     
   8.0700000000000008E-002     1.8664059903677992     
   8.1000000000000003E-002     2.0440935829721387     
   8.1299999999999997E-002     2.1508655809991346     
   8.1600000000000006E-002     2.1839981755332176     
   8.1900000000000014E-002     2.1438573323644832     
   8.2199999999999995E-002     2.0341182174367356     
   8.2500000000000004E-002     1.8607761260992906     
   8.2799999999999999E-002     1.6317598507148454     
   8.3100000000000007E-002     1.3565215593182840     
   8.3400000000000002E-002     1.0450836787352578     
   8.3700000000000011E-002    0.70753506351188622     
   8.4000000000000005E-002    0.35371294963421129     
   8.4300000000000000E-002    -7.3354784739698906E-003
   8.4599999999999995E-002   -0.36725739979537225     
   8.4900000000000003E-002   -0.71846917063891425     
   8.5199999999999998E-002    -1.0539875822616629     
   8.5500000000000007E-002    -1.3667323830136640     
   8.5800000000000001E-002    -1.6496549644138943     
   8.6100000000000010E-002    -1.8953017015191946     
   8.6399999999999991E-002    -2.0954663099962962     
   8.6699999999999999E-002    -2.2417484489547883     
   8.7000000000000008E-002    -2.3253213919265603     
   8.7300000000000003E-002    -2.3377906118382961     
   8.7599999999999997E-002    -2.2720727383193648     
   8.7900000000000006E-002    -2.1229464313607900     
   8.8200000000000014E-002    -1.8884604155376090     
   8.8499999999999995E-002    -1.5704846149784464     
   8.8800000000000004E-002    -1.1753406756413145     
   8.9100000000000013E-002   -0.71447621372138115     
   8.9399999999999993E-002   -0.20380613933230873     
   8.9700000000000002E-002    0.33645324332996518     
   9.0000000000000011E-002    0.88300151117459658     
   9.0299999999999991E-002     1.4107765713765803     
   9.0600000000000000E-002     1.8945708398787025     
   9.0900000000000009E-002     2.3109684313331043     
   9.1200000000000017E-002     2.6397715654880916     
   9.1499999999999998E-002     2.8655999226651714     
   9.1800000000000007E-002     2.9787534599748002     
   9.2100000000000001E-002     2.9758036976208926     
   9.2399999999999996E-002     2.8596874094186315     
   9.2700000000000005E-002     2.6389792135419938     
   9.3000000000000013E-002     2.3270707361074807     
   9.3300000000000008E-002     1.9409793778290672     
   9.3600000000000003E-002     1.4998774100308570     
   9.3899999999999997E-002     1.0235455043305757     
   9.4200000000000006E-002    0.53139204484345015     
   9.4500000000000001E-002     4.1227325457851322E-002
   9.4800000000000009E-002   -0.43141664794685203     
   9.5100000000000004E-002   -0.87337328862119556     
   9.5399999999999999E-002    -1.2742623289507200     
   9.5699999999999993E-002    -1.6258868831367685     
   9.6000000000000002E-002    -1.9220043906035591     
   9.6300000000000011E-002    -2.1578648465379531     
   9.6600000000000005E-002    -2.3298238589649962     
   9.6900000000000000E-002    -2.4350018979637773     
   9.7200000000000009E-002    -2.4709367998161280     
   9.7499999999999989E-002    -2.4358801707762447     
   9.7799999999999998E-002    -2.3288204337346814     
   9.8100000000000007E-002    -2.1497246061464352     
   9.8400000000000015E-002    -1.9001455617076699     
   9.8699999999999996E-002    -1.5836699710719286     
   9.9000000000000005E-002    -1.2063650258482523     
   9.9300000000000013E-002   -0.77710601718131833     
   9.9599999999999994E-002   -0.30780648428187940     
   9.9900000000000003E-002    0.18670340147667480     
  0.10020000000000001         0.68875373800692630     
  0.10049999999999999          1.1784449139153119     
  0.10080000000000000          1.6345402899036336     
  0.10110000000000001          2.0353067660267850     
  0.10140000000000000          2.3600619574621642     
  0.10170000000000000          2.5902987052007660     
  0.10200000000000001          2.7112093299778177     
  0.10230000000000002          2.7130940540699999     
  0.10260000000000000          2.5921463505427633     
  0.10290000000000001          2.3517259930296293     
  0.10320000000000000          2.0021422195389840     
  0.10350000000000001          1.5604381506928890     
  0.10380000000000000          1.0501113731288922     
  0.10410000000000001         0.49899798584569355     
  0.10440000000000001         -6.1785950343886314E-002
  0.10470000000000000        -0.60027712435360014     
  0.10500000000000000         -1.0863810790224715     
  0.10530000000000000         -1.4930483910532764     
  0.10560000000000000         -1.7993728190515130     
  0.10590000000000001         -1.9916869831212867     
  0.10620000000000000         -2.0641920203645774     
  0.10650000000000001         -2.0204118586894806     
  0.10679999999999999         -1.8715820251406816     
  0.10710000000000000         -1.6365246653228436     
  0.10740000000000001         -1.3401797043955186     
  0.10770000000000000         -1.0105850604654409     
  0.10800000000000000        -0.67800504166045938     
  0.10830000000000001        -0.37143790868477639     
  0.10859999999999999        -0.11670316453190835     
  0.10890000000000000          6.4857886660285011E-002
  0.10920000000000001         0.15920852429586632     
  0.10950000000000001         0.15934330925055940     
  0.10979999999999999          6.6370563931181556E-002
  0.11009999999999999        -0.11043224675945723     
  0.11040000000000001        -0.35517620921529192     
  0.11070000000000001        -0.64570723899633164     
  0.11100000000000000        -0.95593644813084011     
  0.11130000000000000         -1.2575272183352721     
  0.11160000000000002         -1.5214475045124507     
  0.11190000000000001         -1.7210223316337623     
  0.11220000000000001         -1.8330214155924662     
  0.11250000000000000         -1.8397654767152041     
  0.11280000000000000         -1.7305361752753421     
  0.11309999999999999         -1.5020537342211304     
  0.11340000000000001         -1.1593480235469673     
  0.11369999999999998        -0.71535160980753898     
  0.11400000000000000        -0.19018518349145025     
  0.11430000000000000         0.38976493712675025     
  0.11460000000000002         0.99386072903772149     
  0.11489999999999999          1.5891886515810636     
  0.11520000000000001          2.1423002629100125     
  0.11550000000000001          2.6222621755977213     
  0.11580000000000000          3.0021331146656727     
  0.11609999999999999          3.2608374187593294     
  0.11640000000000002          3.3850978290550358     
  0.11670000000000001          3.3694624571077747     
  0.11700000000000001          3.2172987968672175     
  0.11730000000000000          2.9399563717556534     
  0.11760000000000000          2.5554385939922444     
  0.11789999999999999          2.0876834173011192     
  0.11820000000000001          1.5639977885512797     
  0.11850000000000001          1.0133887894342510     
  0.11880000000000000         0.46469973780891383     
  0.11910000000000000         -5.5660727589820658E-002
  0.11940000000000002        -0.52462916168967511     
  0.11970000000000001        -0.92389110493562276     
  0.12000000000000001         -1.2408609574761464     
  0.12030000000000000         -1.4682527339848690     
  0.12060000000000000         -1.6046704907132510     
  0.12089999999999999         -1.6536664533845762     
  0.12119999999999999         -1.6229679702630526     
  0.12150000000000001         -1.5242725847991407     
  0.12180000000000001         -1.3715338155425303     
  0.12210000000000000         -1.1800896577713551     
  0.12239999999999999        -0.96600485934166258     
  0.12270000000000002        -0.74423140537374621     
  0.12300000000000001        -0.52804115661408590     
  0.12330000000000001        -0.32785039298925922     
  0.12360000000000000        -0.15023911122144945     
  0.12390000000000000          2.0394939967912432E-003
  0.12419999999999999         0.13093020575288547     
  0.12450000000000001         0.24252587500226985     
  0.12480000000000001         0.34620608683008502     
  0.12509999999999999         0.45407907996904090     
  0.12540000000000001         0.57852639512579618     
  0.12570000000000003         0.73083757184589238     
  0.12600000000000000         0.91929645051339337     
  0.12630000000000002          1.1467849025246957     
  0.12659999999999999          1.4097799732057843     
  0.12690000000000001          1.6973096677208057     
  0.12719999999999998          1.9909056839195713     
  0.12750000000000000          2.2655970413522599     
  0.12780000000000002          2.4914217618260519     
  0.12809999999999999          2.6362588581458537     
  0.12840000000000001          2.6692278460076615     
  0.12869999999999998          2.5636657536322351     
  0.12900000000000000          2.3005928926536923     
  0.12930000000000003          1.8715986481991247     
  0.12959999999999999          1.2805706145994464     
  0.12990000000000002         0.54455897832952904     
  0.13019999999999998        -0.30662173284855748     
  0.13050000000000000         -1.2326240203021781     
  0.13080000000000003         -2.1847648228355343     
  0.13109999999999999         -3.1103590743042435     
  0.13140000000000002         -3.9570679960035751     
  0.13169999999999998         -4.6766537851205756     
  0.13200000000000001         -5.2297643710281045     
  0.13229999999999997         -5.5886289118510657     
  0.13260000000000000         -5.7389991281865385     
  0.13290000000000002         -5.6819973656626317     
  0.13319999999999999         -5.4325977520928621     
  0.13350000000000001         -5.0183126112678469     
  0.13380000000000003         -4.4767530190536053     
  0.13410000000000000         -3.8510094140397726     
  0.13440000000000002         -3.1867805979489683     
  0.13469999999999999         -2.5274491515953441     
  0.13500000000000001         -1.9104021073038870     
  0.13529999999999998         -1.3647856239089406     
  0.13560000000000000        -0.90797201609689826     
  0.13590000000000002        -0.54596941321137060     
  0.13619999999999999        -0.27278557891353333     
  0.13650000000000001         -7.1542102500396026E-002
  0.13680000000000003          8.1861257334769344E-002
  0.13710000000000000         0.21726928848393998     
  0.13740000000000002         0.36566635805820213     
  0.13769999999999999         0.55556504463256418     
  0.13800000000000001         0.81064813534303792     
  0.13829999999999998          1.1451564997901844     
  0.13860000000000000          1.5638324842637457     
  0.13890000000000002          2.0602258139835050     
  0.13919999999999999          2.6163064845693285     
  0.13950000000000001          3.2056872927537663     
  0.13979999999999998          3.7942496166140725     
  0.14010000000000000          4.3439917501624361     
  0.14040000000000002          4.8171571728356275     
  0.14069999999999999          5.1785175016401626     
  0.14100000000000001          5.3998893344530234     
  0.14130000000000004          5.4621544272692812     
  0.14160000000000000          5.3568488428143128     
  0.14189999999999997          5.0879404001693782     
  0.14219999999999999          4.6705641182398310     
  0.14250000000000002          4.1298645099837810     
  0.14279999999999998          3.4995582577192996     
  0.14310000000000000          2.8178302620014550     
  0.14339999999999997          2.1251913617809599     
  0.14369999999999999          1.4613556580531841     
  0.14400000000000002         0.86117623973562951     
  0.14429999999999998         0.35350292774577663     
  0.14460000000000001         -4.1393780576899387E-002
  0.14490000000000003        -0.31341826783353366     
  0.14520000000000000        -0.46147118816786914     
  0.14550000000000002        -0.49433044448106245     
  0.14579999999999999        -0.42874847172381947     
  0.14610000000000001        -0.28735418436040394     
  0.14640000000000003         -9.7853357669519497E-002
  0.14670000000000000         0.11108678100665008     
  0.14699999999999996         0.31087182701227306     
  0.14729999999999999         0.47525216228840339     
  0.14760000000000001         0.58296114704407254     
  0.14789999999999998         0.61765322423575930     
  0.14820000000000000         0.56959751938624847     