  -1.4999999999999999E-002     0.0000000000000000     
  -1.4700000000000000E-002     0.0000000000000000     
  -1.4400000000000000E-002     0.0000000000000000     
  -1.4100000000000000E-002     0.0000000000000000     
  -1.3800000000000000E-002     0.0000000000000000     
  -1.3500000000000000E-002     0.0000000000000000     
  -1.3200000000000000E-002     0.0000000000000000     
  -1.2899999999999998E-002     0.0000000000000000     
  -1.2600000000000000E-002     0.0000000000000000     
  -1.2299999999999998E-002     0.0000000000000000     
  -1.2000000000000000E-002     0.0000000000000000     
  -1.1699999999999999E-002     0.0000000000000000     
  -1.1399999999999999E-002     0.0000000000000000     
  -1.1099999999999999E-002     0.0000000000000000     
  -1.0799999999999999E-002     0.0000000000000000     
  -1.0499999999999999E-002     0.0000000000000000     
  -1.0199999999999999E-002     0.0000000000000000     
  -9.8999999999999991E-003     0.0000000000000000     
  -9.5999999999999992E-003     0.0000000000000000     
  -9.2999999999999992E-003     0.0000000000000000     
  -8.9999999999999993E-003     0.0000000000000000     
  -8.6999999999999994E-003     0.0000000000000000     
  -8.3999999999999995E-003     0.0000000000000000     
  -8.0999999999999996E-003     0.0000000000000000     
  -7.7999999999999988E-003     0.0000000000000000     
  -7.4999999999999997E-003     0.0000000000000000     
  -7.1999999999999998E-003     0.0000000000000000     
  -6.8999999999999981E-003     0.0000000000000000     
  -6.5999999999999982E-003     0.0000000000000000     
  -6.3000000000000000E-003     0.0000000000000000     
  -6.0000000000000001E-003     0.0000000000000000     
  -5.6999999999999985E-003     0.0000000000000000     
  -5.3999999999999986E-003     0.0000000000000000     
  -5.1000000000000004E-003     0.0000000000000000     
  -4.7999999999999987E-003     0.0000000000000000     
  -4.5000000000000005E-003     0.0000000000000000     
  -4.1999999999999989E-003     0.0000000000000000     
  -3.8999999999999990E-003     0.0000000000000000     
  -3.5999999999999990E-003     0.0000000000000000     
  -3.2999999999999991E-003     0.0000000000000000     
  -2.9999999999999992E-003     0.0000000000000000     
  -2.6999999999999993E-003     0.0000000000000000     
  -2.3999999999999994E-003     0.0000000000000000     
  -2.0999999999999977E-003     0.0000000000000000     
  -1.7999999999999995E-003     0.0000000000000000     
  -1.4999999999999979E-003     0.0000000000000000     
  -1.1999999999999997E-003     0.0000000000000000     
  -8.9999999999999976E-004     0.0000000000000000     
  -5.9999999999999810E-004     0.0000000000000000     
  -2.9999999999999992E-004     0.0000000000000000     
   0.0000000000000000          0.0000000000000000     
   3.0000000000000165E-004     0.0000000000000000     
   5.9999999999999984E-004     0.0000000000000000     
   9.0000000000000149E-004     0.0000000000000000     
   1.2000000000000031E-003     0.0000000000000000     
   1.5000000000000013E-003     0.0000000000000000     
   1.8000000000000030E-003     0.0000000000000000     
   2.1000000000000012E-003     0.0000000000000000     
   2.3999999999999994E-003     0.0000000000000000     
   2.7000000000000010E-003     0.0000000000000000     
   2.9999999999999992E-003     0.0000000000000000     
   3.3000000000000008E-003     0.0000000000000000     
   3.6000000000000025E-003     0.0000000000000000     
   3.9000000000000007E-003     0.0000000000000000     
   4.2000000000000023E-003     0.0000000000000000     
   4.5000000000000005E-003     0.0000000000000000     
   4.7999999999999987E-003     0.0000000000000000     
   5.1000000000000004E-003     0.0000000000000000     
   5.4000000000000020E-003     0.0000000000000000     
   5.7000000000000037E-003     0.0000000000000000     
   5.9999999999999984E-003     0.0000000000000000     
   6.3000000000000000E-003     0.0000000000000000     
   6.6000000000000017E-003     3.5751997334116381E-042
   6.9000000000000034E-003     1.4136036934034740E-042
   7.2000000000000015E-003     1.2661745499784298E-038
   7.5000000000000032E-003     3.8437704411106708E-038
   7.8000000000000014E-003    -1.1250106530366855E-036
   8.0999999999999996E-003    -5.7173780631016632E-036
   8.4000000000000012E-003     1.9562723680545619E-035
   8.7000000000000029E-003     1.4641419699885837E-034
   9.0000000000000011E-003    -1.7070094994134249E-033
   9.2999999999999992E-003     3.4278241197915039E-033
   9.6000000000000009E-003     2.4827325500354749E-032
   9.8999999999999991E-003    -2.3509720075407069E-031
   1.0200000000000001E-002     7.1704685430902833E-031
   1.0500000000000002E-002     1.9997351913019056E-030
   1.0800000000000004E-002    -2.7364304521503769E-029
   1.1099999999999999E-002     1.0885593317954323E-028
   1.1400000000000000E-002    -1.2965093865341155E-028
   1.1700000000000002E-002    -9.4650343682185124E-028
   1.2000000000000004E-002     7.4617453980105764E-027
   1.2300000000000002E-002    -3.1067052513766744E-026
   1.2600000000000000E-002     8.0345221679332742E-026
   1.2900000000000002E-002    -4.6772459696705435E-026
   1.3200000000000000E-002    -8.3856584636152313E-025
   1.3500000000000002E-002     5.8073152116322164E-024
   1.3800000000000003E-002    -2.3475459012287116E-023
   1.4100000000000001E-002     5.7000718720670555E-023
   1.4400000000000000E-002    -4.0353667826880795E-024
   1.4700000000000001E-002    -6.8882671215481875E-022
   1.4999999999999999E-002     3.3491112712485877E-021
   1.5300000000000001E-002    -6.9129353506887908E-021
   1.5600000000000003E-002    -1.4318213724130250E-020
   1.5899999999999997E-002     2.0049232901435673E-019
   1.6199999999999999E-002    -1.0829072664612048E-018
   1.6500000000000001E-002     4.3123449730983256E-018
   1.6800000000000002E-002    -1.4609596799540287E-017
   1.7100000000000004E-002     4.6995985396554308E-017
   1.7400000000000006E-002    -1.6589853015044047E-016
   1.7700000000000000E-002     7.1782198636245521E-016
   1.8000000000000002E-002    -3.6141959790277749E-015
   1.8300000000000004E-002     1.8542389519219603E-014
   1.8600000000000005E-002    -8.8546478810549003E-014
   1.8900000000000000E-002     3.7474033723273359E-013
   1.9200000000000002E-002    -1.3481016644907485E-012
   1.9500000000000003E-002     3.8481473305114858E-012
   1.9799999999999998E-002    -7.1554401727320418E-012
   2.0100000000000000E-002    -1.0921680506081497E-012
   2.0400000000000001E-002     6.9941807794391763E-011
   2.0700000000000003E-002    -2.8829893106757198E-010
   2.0999999999999998E-002     5.6804803341382664E-010
   2.1299999999999999E-002     7.6672194630282693E-011
   2.1600000000000001E-002    -3.8083332333460696E-009
   2.1900000000000003E-002     9.2934980241414175E-009
   2.2200000000000004E-002    -1.3509631618379627E-010
   2.2500000000000006E-002    -4.3977152377471484E-008
   2.2800000000000001E-002     6.3021187231380823E-008
   2.3100000000000002E-002     1.0444204849266532E-007
   2.3400000000000004E-002    -3.0569868822320885E-007
   2.3699999999999999E-002    -2.3942087838690053E-007
   2.4000000000000000E-002     8.9064787835505348E-007
   2.4300000000000002E-002     7.9446914795267783E-007
   2.4599999999999997E-002    -2.1285726001844041E-006
   2.4900000000000005E-002    -3.6179360221372593E-006
   2.5200000000000000E-002     4.1639279509480061E-006
   2.5499999999999995E-002     2.4547823507621962E-005
   2.5800000000000003E-002     5.3837001584436629E-005
   2.6099999999999998E-002     8.9485797248853714E-005
   2.6400000000000007E-002     1.3759175993982662E-004
   2.6700000000000002E-002     2.1220545314225980E-004
   2.6999999999999996E-002     3.3256545625815859E-004
   2.7300000000000005E-002     5.2113171492028008E-004
   2.7600000000000000E-002     8.0550379282676881E-004
   2.7900000000000008E-002     1.2259194472121621E-003
   2.8200000000000003E-002     1.8405667740530604E-003
   2.8499999999999998E-002     2.7286635702084357E-003
   2.8800000000000006E-002     3.9955703699816984E-003
   2.9100000000000001E-002     5.7765399832200963E-003
   2.9400000000000003E-002     8.2390010953285481E-003
   2.9700000000000004E-002     1.1584286642984505E-002
   3.0000000000000006E-002     1.6050086239473557E-002
   3.0300000000000001E-002     2.1910197514066310E-002
   3.0600000000000002E-002     2.9461370777280477E-002
   3.0900000000000004E-002     3.9000506325065812E-002
   3.1199999999999999E-002     5.0801342982399848E-002
   3.1500000000000007E-002     6.5079579276409311E-002
   3.1800000000000002E-002     8.1940556320951333E-002
   3.2099999999999997E-002    0.10131486709551997     
   3.2400000000000005E-002    0.12288454575958285     
   3.2700000000000000E-002    0.14601449842415931     
   3.3000000000000002E-002    0.16968157659357547     
   3.3300000000000003E-002    0.19240642361373866     
   3.3599999999999998E-002    0.21222656212833696     
   3.3900000000000000E-002    0.22669053643921233     
   3.4200000000000001E-002    0.23291406213131149     
   3.4500000000000003E-002    0.22768879859087282     
   3.4799999999999998E-002    0.20765600996778702     
   3.5099999999999999E-002    0.16957837416246452     
   3.5400000000000001E-002    0.11064430313847640     
   3.5699999999999996E-002     2.8843603538508157E-002
   3.6000000000000004E-002    -7.6655149245263551E-002
   3.6299999999999999E-002   -0.20513106155336702     
   3.6600000000000008E-002   -0.35398916280711945     
   3.6900000000000002E-002   -0.51854580597824596     
   3.7199999999999997E-002   -0.69197351941890395     
   3.7500000000000006E-002   -0.86540863298796478     
   3.7800000000000000E-002    -1.0283278940208831     
   3.8100000000000009E-002    -1.1690410127423587     
   3.8400000000000004E-002    -1.2754755703108773     
   3.8699999999999998E-002    -1.3360763208289772     
   3.9000000000000007E-002    -1.3407322534205632     
   3.9300000000000002E-002    -1.2818301484258914     
   3.9600000000000003E-002    -1.1550570181045130     
   3.9900000000000005E-002   -0.96013817261171441     
   4.0200000000000000E-002   -0.70124819691608986     
   4.0500000000000001E-002   -0.38701984084627339     
   4.0800000000000003E-002    -3.0278202073479435E-002
   4.1100000000000005E-002    0.35263240169013377     
   4.1399999999999999E-002    0.74289105063009142     
   4.1700000000000008E-002     1.1204357258746327     
   4.2000000000000003E-002     1.4652861969304656     
   4.2299999999999997E-002     1.7591374033186631     
   4.2600000000000006E-002     1.9864578473737917     
   4.2900000000000001E-002     2.1356724247402883     
   4.3200000000000002E-002     2.1999730832394149     
   4.3500000000000004E-002     2.1775003956475092     
   4.3799999999999999E-002     2.0715740768962392     
   4.4100000000000000E-002     1.8900861536988942     
   4.4400000000000002E-002     1.6447697870251505     
   4.4700000000000004E-002     1.3503984784243441     
   4.4999999999999998E-002     1.0233118418067535     
   4.5300000000000000E-002    0.68048143265156902     
   4.5600000000000002E-002    0.33830682405254059     
   4.5899999999999996E-002     1.1518058533306959E-002
   4.6200000000000005E-002   -0.28741590793640764     
   4.6500000000000000E-002   -0.54888889461154977     
   4.6799999999999994E-002   -0.76650677597419548     
   4.7100000000000003E-002   -0.93681267166474180     
   4.7399999999999998E-002    -1.0593332954464505     
   4.7700000000000006E-002    -1.1360608776301049     
   4.8000000000000001E-002    -1.1707904001087819     
   4.8300000000000010E-002    -1.1689607197755798     
   4.8600000000000004E-002    -1.1366195797658167     
   4.8899999999999999E-002    -1.0801970885331103     
   4.9200000000000008E-002    -1.0061653668524573     
   4.9500000000000002E-002   -0.92031388764946143     
   4.9800000000000011E-002   -0.82799355103227201     
   5.0100000000000006E-002   -0.73372592479044840     
   5.0400000000000000E-002   -0.64109288142340126     
   5.0700000000000009E-002   -0.55315202286388909     
   5.1000000000000004E-002   -0.47197949039656428     
   5.1299999999999998E-002   -0.39907946103781766     
   5.1600000000000007E-002   -0.33549910656838705     
   5.1900000000000002E-002   -0.28146942659363589     
   5.2200000000000010E-002   -0.23702409260928003     
   5.2500000000000005E-002   -0.20162413542010155     
   5.2800000000000000E-002   -0.17414662605520559     
   5.3099999999999994E-002   -0.15335241715271528     
   5.3400000000000003E-002   -0.13730560968665709     
   5.3699999999999998E-002   -0.12393590574063945     
   5.4000000000000006E-002   -0.11098705821016980     
   5.4300000000000001E-002    -9.5901828652339038E-002
   5.4599999999999996E-002    -7.6518040945797075E-002
   5.4900000000000004E-002    -5.0746692035291342E-002
   5.5199999999999999E-002    -1.6994460342858911E-002
   5.5499999999999994E-002     2.5508685171074304E-002
   5.5800000000000002E-002     7.7008630062037148E-002
   5.6099999999999997E-002    0.13669964837406090     
   5.6400000000000006E-002    0.20291413115208001     
   5.6700000000000000E-002    0.27333180435471438     
   5.6999999999999995E-002    0.34477449545009353     
   5.7300000000000004E-002    0.41374988768146059     
   5.7599999999999998E-002    0.47663121400088326     
   5.7900000000000007E-002    0.52972775462556076     
   5.8200000000000002E-002    0.56992655178153040     
   5.8499999999999996E-002    0.59463670672229774     
   5.8800000000000005E-002    0.60204580343985581     
   5.9100000000000000E-002    0.59144463749843101     
   5.9400000000000008E-002    0.56295725239633532     
   5.9700000000000003E-002    0.51769799932944993     
   6.0000000000000012E-002    0.45769786576054050     
   6.0300000000000006E-002    0.38546555720230674     
   6.0600000000000001E-002    0.30413619337556791     
   6.0900000000000010E-002    0.21703810343183508     
   6.1200000000000004E-002    0.12741103988573510     
   6.1500000000000013E-002     3.8582118084749525E-002
   6.1800000000000008E-002    -4.6641171009332523E-002
   6.2100000000000002E-002   -0.12575261280007749     
   6.2399999999999997E-002   -0.19657633343760011     
   6.2700000000000006E-002   -0.25762663241582168     
   6.3000000000000000E-002   -0.30757939923293165     
   6.3300000000000009E-002   -0.34560490262106514     
   6.3600000000000004E-002   -0.37126300275850010     
   6.3899999999999998E-002   -0.38418956185738523     
   6.4199999999999993E-002   -0.38453818887217800     
   6.4500000000000002E-002   -0.37255665337433641     
   6.4800000000000010E-002   -0.34875065954179607     
   6.5100000000000005E-002   -0.31412541665004151     
   6.5400000000000000E-002   -0.26976124126621320     
   6.5700000000000008E-002   -0.21728139796665499     
   6.5999999999999989E-002   -0.15867525670194343     
   6.6299999999999998E-002    -9.6085217332030612E-002
   6.6600000000000006E-002    -3.2125812351898854E-002
   6.6900000000000001E-002     3.0614639962466245E-002
   6.7199999999999996E-002     8.9588849932405928E-002
   6.7500000000000004E-002    0.14236457213087694     
   6.7800000000000013E-002    0.18717113055736559     
   6.8099999999999994E-002    0.22276457160335444     
   6.8400000000000002E-002    0.24872844200371008     
   6.8700000000000011E-002    0.26566080547356974     
   6.8999999999999992E-002    0.27484207817790679     
   6.9300000000000000E-002    0.27844671638973845     
   6.9600000000000009E-002    0.27921628323349651     
   6.9900000000000004E-002    0.28000466320528483     
   7.0199999999999999E-002    0.28376039595475033     
   7.0500000000000007E-002    0.29282382894437020     
   7.0800000000000016E-002    0.30866376564187825     
   7.1099999999999997E-002    0.33179770695474375     
   7.1400000000000005E-002    0.36124916153843156     
   7.1700000000000000E-002    0.39486685499958463     
   7.1999999999999995E-002    0.42930396501640467     
   7.2300000000000003E-002    0.46012102004007938     
   7.2600000000000012E-002    0.48253398965700589     
   7.2900000000000006E-002    0.49146420958990689     
   7.3200000000000001E-002    0.48218423024855628     
   7.3499999999999996E-002    0.45095130049277177     
   7.3800000000000004E-002    0.39503430039449811     
   7.4099999999999999E-002    0.31331807082827684     
   7.4400000000000008E-002    0.20628285507933369     
   7.4700000000000003E-002     7.5956757562359256E-002
   7.5000000000000011E-002    -7.3969767230044253E-002
   7.5299999999999992E-002   -0.23868764249654173     
   7.5600000000000001E-002   -0.41241723239027317     
   7.5900000000000009E-002   -0.58863376364738818     
   7.6200000000000004E-002   -0.76077895646089333     
   7.6499999999999999E-002   -0.92222412100313456     
   7.6800000000000007E-002    -1.0666508431662827     
   7.7099999999999988E-002    -1.1884757576867848     
   7.7399999999999997E-002    -1.2825630479447634     
   7.7700000000000005E-002    -1.3447905356969203     
   7.8000000000000014E-002    -1.3718676666544725     
   7.8299999999999995E-002    -1.3613548922129088     
   7.8600000000000003E-002    -1.3121098882838726     
   7.8900000000000012E-002    -1.2237544072637436     
   7.9199999999999993E-002    -1.0973185746539811     
   7.9500000000000001E-002   -0.93523860433074590     
   7.9800000000000010E-002   -0.74104225818367786     
   8.0100000000000018E-002   -0.52002797751407637     
   8.0399999999999999E-002   -0.27870032866851063     
   8.0700000000000008E-002    -2.4753186518348493E-002
   8.1000000000000003E-002    0.23289117237535406     
   8.1299999999999997E-002    0.48498637119698218     
   8.1600000000000006E-002    0.72207134309812426     
   8.1900000000000014E-002    0.93508483538399290     
   8.2199999999999995E-002     1.1162599472629913     
   8.2500000000000004E-002     1.2592510082025643     
   8.2799999999999999E-002     1.3599391771777016     
   8.3100000000000007E-002     1.4167063833491897     
   8.3400000000000002E-002     1.4303570064209821     
   8.3700000000000011E-002     1.4041689854503119     
   8.4000000000000005E-002     1.3433207809473280     
   8.4300000000000000E-002     1.2543995650854338     
   8.4599999999999995E-002     1.1445035783356159     
   8.4900000000000003E-002     1.0203530273420796     
   8.5199999999999998E-002    0.88767531147601275     
   8.5500000000000007E-002    0.75026373910364053     
   8.5800000000000001E-002    0.60965948503865386     
   8.6100000000000010E-002    0.46498171905423658     
   8.6399999999999991E-002    0.31323368658953921     
   8.6699999999999999E-002    0.14989948176455714     
   8.7000000000000008E-002    -3.0169640109452351E-002
   8.7300000000000003E-002   -0.23150554061826450     
   8.7599999999999997E-002   -0.45688602024309655     
   8.7900000000000006E-002   -0.70612787780127440     
   8.8200000000000014E-002   -0.97515271359001421     
   8.8499999999999995E-002    -1.2556107532712653     
   8.8800000000000004E-002    -1.5347329788335167     
   8.9100000000000013E-002    -1.7959096159399230     
   8.9399999999999993E-002    -2.0197531536739781     
   8.9700000000000002E-002    -2.1856088587489739     
   9.0000000000000011E-002    -2.2736150443252954     
   9.0299999999999991E-002    -2.2664931510039623     
   9.0600000000000000E-002    -2.1516232762283147     
   9.0900000000000009E-002    -1.9228363762062015     
   9.1200000000000017E-002    -1.5812554165607267     
   9.1499999999999998E-002    -1.1362293191424149     
   9.1800000000000007E-002   -0.60495890909360406     
   9.2100000000000001E-002    -1.1460719937960107E-002
   9.2399999999999996E-002    0.61457354281312471     
   9.2700000000000005E-002     1.2402175376774744     
   9.3000000000000013E-002     1.8316055407114278     
   9.3300000000000008E-002     2.3561732841206524     
   9.3600000000000003E-002     2.7854205568924364     
   9.3899999999999997E-002     3.0965048032646760     
   9.4200000000000006E-002     3.2738617103632435     
   9.4500000000000001E-002     3.3101139979624978     
   9.4800000000000009E-002     3.2058637553146618     
   9.5100000000000004E-002     2.9695789046036047     
   9.5399999999999999E-002     2.6164171326601293     
   9.5699999999999993E-002     2.1665626454852203     
   9.6000000000000002E-002     1.6438916703475481     
   9.6300000000000011E-002     1.0739431332726646     
   9.6600000000000005E-002    0.48248477267494505     
   9.6900000000000000E-002   -0.10595734029222911     
   9.7200000000000009E-002   -0.66933124148239231     
   9.7499999999999989E-002    -1.1886314307496963     
   9.7799999999999998E-002    -1.6484702491923158     
   9.8100000000000007E-002    -2.0372888470664243     
   9.8400000000000015E-002    -2.3468739485896668     
   9.8699999999999996E-002    -2.5724192523411986     
   9.9000000000000005E-002    -2.7120736228787239     
   9.9300000000000013E-002    -2.7660584009337623     
   9.9599999999999994E-002    -2.7369356277025720     
   9.9900000000000003E-002    -2.6285175324588450     
  0.10020000000000001         -2.4459547440000540     
  0.10049999999999999         -2.1954118602028747     
  0.10080000000000000         -1.8834857531484155     
  0.10110000000000001         -1.5180102504917981     
  0.10140000000000000         -1.1072770876303510     
  0.10170000000000000        -0.66062048564383902     
  0.10200000000000001        -0.18868466612411627     
  0.10230000000000002         0.29685545216698977     
  0.10260000000000000         0.78257242782564751     
  0.10290000000000001          1.2537291647791973     
  0.10320000000000000          1.6944167887877151     
  0.10350000000000001          2.0874020302522984     
  0.10380000000000000          2.4155867968551865     
  0.10410000000000001          2.6623947397293413     
  0.10440000000000001          2.8128463025084542     
  0.10470000000000000          2.8553513954966743     
  0.10500000000000000          2.7823430662256792     
  0.10530000000000000          2.5918992095119888     
  0.10560000000000000          2.2884459147612675     
  0.10590000000000001          1.8829065338344577     
  0.10620000000000000          1.3932163586385564     
  0.10650000000000001         0.84301114473626293     
  0.10679999999999999         0.26051133197643955     
  0.10710000000000000        -0.32275270977144854     
  0.10740000000000001        -0.87518744567416840     
  0.10770000000000000         -1.3665005574465037     
  0.10800000000000000         -1.7704548796552779     
  0.10830000000000001         -2.0672275555279653     
  0.10859999999999999         -2.2442571111589165     
  0.10890000000000000         -2.2980078758880431     
  0.10920000000000001         -2.2337072236100308     
  0.10950000000000001         -2.0647445824890531     
  0.10979999999999999         -1.8117268194841163     
  0.11009999999999999         -1.4999615167719615     
  0.11040000000000001         -1.1578201698664814     
  0.11070000000000001        -0.81384750998023803     
  0.11100000000000000        -0.49439779752091229     
  0.11130000000000000        -0.22204242862995621     
  0.11160000000000002         -1.2976998575535303E-002
  0.11190000000000001         0.12301742542090026     
  0.11220000000000001         0.18307388148680959     
  0.11250000000000000         0.17160061824680306     
  0.11280000000000000          9.8402900919806205E-002
  0.11309999999999999         -2.2071800546558974E-002
  0.11340000000000001        -0.17243669723834693     
  0.11369999999999998        -0.33426332439525774     
  0.11400000000000000        -0.48917209871010081     
  0.11430000000000000        -0.62091856832962167     
  0.11460000000000002        -0.71590996790356343     
  0.11489999999999999        -0.76390717035391520     
  0.11520000000000001        -0.75875443675113119     
  0.11550000000000001        -0.69765160516748048     
  0.11580000000000000        -0.58162506612981635     
  0.11609999999999999        -0.41485349570385144     
  0.11640000000000002        -0.20381012026776726     
  0.11670000000000001          4.2585169077215296E-002
  0.11700000000000001         0.31394113042512861     
  0.11730000000000000         0.59878328882377096     
  0.11760000000000000         0.88468359894513049     
  0.11789999999999999          1.1590049025431903     
  0.11820000000000001          1.4090709718976069     
  0.11850000000000001          1.6226611965858908     
  0.11880000000000000          1.7890461025191411     
  0.11910000000000000          1.8989795031168093     
  0.11940000000000002          1.9456112761301743     
  0.11970000000000001          1.9252567001698555     
  0.12000000000000001          1.8372722719316510     
  0.12030000000000000          1.6850359798574801     
  0.12060000000000000          1.4754411831182344     
  0.12089999999999999          1.2185331139971982     
  0.12119999999999999         0.92770497625232684     
  0.12150000000000001         0.61775528504218169     
  0.12180000000000001         0.30452376430051914     
  0.12210000000000000          3.7545945386318891E-003
  0.12239999999999999        -0.27069175567800052     
  0.12270000000000002        -0.50692613781616691     
  0.12300000000000001        -0.69655858379529101     
  0.12330000000000001        -0.83523821505529317     
  0.12360000000000000        -0.92191231432201826     
  0.12390000000000000        -0.95974825345676829     
  0.12419999999999999        -0.95502001634514366     
  0.12450000000000001        -0.91628384575911559     
  0.12480000000000001        -0.85387259899117729     
  0.12509999999999999        -0.77796022141180599     
  0.12540000000000001        -0.69821176267661889     
  0.12570000000000003        -0.62262161528108928     
  0.12600000000000000        -0.55640286522415949     
  0.12630000000000002        -0.50208443082084231     
  0.12659999999999999        -0.45888214090308754     
  0.12690000000000001        -0.42264583159564484     
  0.12719999999999998        -0.38673622999112778     
  0.12750000000000000        -0.34219015844922557     
  0.12780000000000002        -0.27901856552825288     
  0.12809999999999999        -0.18748655876715048     
  0.12840000000000001         -5.8555219865618874E-002
  0.12869999999999998         0.11409578478507472     
  0.12900000000000000         0.33339166415159643     
  0.12930000000000003         0.59837737890356668     
  0.12959999999999999         0.90240449550816781     
  0.12990000000000002          1.2342624166984955     
  0.13019999999999998          1.5777158422955311     
  0.13050000000000000          1.9115228455616071     
  0.13080000000000003          2.2118086652108198     
  0.13109999999999999          2.4521107674845499     
  0.13140000000000002          2.6062761586655254     
  0.13169999999999998          2.6504578283818754     
  0.13200000000000001          2.5645141484857983     
  0.13229999999999997          2.3355483948632836     
  0.13260000000000000          1.9585369209302850     
  0.13290000000000002          1.4381170099043306     
  0.13319999999999999         0.79011154290682861     
  0.13350000000000001          3.9825080085749281E-002
  0.13380000000000003        -0.77767912244721837     
  0.13410000000000000         -1.6198687509320988     
  0.13440000000000002         -2.4405379066040251     
  0.13469999999999999         -3.1917198333829111     
  0.13500000000000001         -3.8286454036426170     
  0.13529999999999998         -4.3130764827270589     
  0.13560000000000000         -4.6165386076530393     
  0.13590000000000002         -4.7236118134511260     
  0.13619999999999999         -4.6324770239374953     
  0.13650000000000001         -4.3561234257542099     
  0.13680000000000003         -3.9213888998169404     
  0.13710000000000000         -3.3659986551072780     
  0.13740000000000002         -2.7361918361489681     
  0.13769999999999999         -2.0824017340378971     
  0.13800000000000001         -1.4543408498894244     
  0.13829999999999998        -0.89760537409552543     
  0.13860000000000000        -0.44910964956020405     
  0.13890000000000002        -0.13389677438153408     
  0.13919999999999999          3.6350780343283436E-002
  0.13950000000000001          6.4851475265568378E-002
  0.13979999999999998         -3.1064150561530612E-002
  0.14010000000000000        -0.22181905425043741     
  0.14040000000000002        -0.46765008905043526     
  0.14069999999999999        -0.72282248075852995     
  0.14100000000000001        -0.93924688356065023     
  0.14130000000000004         -1.0709696643803737     
  0.14160000000000000         -1.0784810754853793     
  0.14189999999999997        -0.93203201991210571     
  0.14219999999999999        -0.61490193707021801     
  0.14250000000000002        -0.12506447930204406     
  0.14279999999999998         0.52380421209187822     
  0.14310000000000000          1.3031345662036173     
  0.14339999999999997          2.1709580211052906     
  0.14369999999999999          3.0752711887412763     
  0.14400000000000002          3.9576274985023243     
  0.14429999999999998          4.7576432516871492     
  0.14460000000000001          5.4185754069827787     
  0.14490000000000003          5.8913792539688314     
  0.14520000000000000          6.1390176876476819     
  0.14550000000000002          6.1406880495041030     
  0.14579999999999999          5.8925964825522499     
  0.14610000000000001          5.4094710028095676     
  0.14640000000000003          4.7235928105882099     
  0.14670000000000000          3.8812914666159379     
  0.14699999999999996          2.9409736217498148     
  0.14729999999999999          1.9667321857610416     
  0.14760000000000001          1.0231629471954355     
  0.14789999999999998         0.17122319611895420     
  0.14820000000000000        -0.53860000775221883     