  -1.4999999999999999E-002     0.0000000000000000     
  -1.4700000000000000E-002     0.0000000000000000     
  -1.4400000000000000E-002     0.0000000000000000     
  -1.4100000000000000E-002     0.0000000000000000     
  -1.3800000000000000E-002     0.0000000000000000     
  -1.3500000000000000E-002     0.0000000000000000     
  -1.3200000000000000E-002     0.0000000000000000     
  -1.2899999999999998E-002     0.0000000000000000     
  -1.2600000000000000E-002     0.0000000000000000     
  -1.2299999999999998E-002     0.0000000000000000     
  -1.2000000000000000E-002     0.0000000000000000     
  -1.1699999999999999E-002     0.0000000000000000     
  -1.1399999999999999E-002     0.0000000000000000     
  -1.1099999999999999E-002     0.0000000000000000     
  -1.0799999999999999E-002     0.0000000000000000     
  -1.0499999999999999E-002     0.0000000000000000     
  -1.0199999999999999E-002     0.0000000000000000     
  -9.8999999999999991E-003     0.0000000000000000     
  -9.5999999999999992E-003     0.0000000000000000     
  -9.2999999999999992E-003     0.0000000000000000     
  -8.9999999999999993E-003     0.0000000000000000     
  -8.6999999999999994E-003     0.0000000000000000     
  -8.3999999999999995E-003     0.0000000000000000     
  -8.0999999999999996E-003     0.0000000000000000     
  -7.7999999999999988E-003     0.0000000000000000     
  -7.4999999999999997E-003     0.0000000000000000     
  -7.1999999999999998E-003     0.0000000000000000     
  -6.8999999999999981E-003     0.0000000000000000     
  -6.5999999999999982E-003     0.0000000000000000     
  -6.3000000000000000E-003     0.0000000000000000     
  -6.0000000000000001E-003     0.0000000000000000     
  -5.6999999999999985E-003     0.0000000000000000     
  -5.3999999999999986E-003     0.0000000000000000     
  -5.1000000000000004E-003     0.0000000000000000     
  -4.7999999999999987E-003     0.0000000000000000     
  -4.5000000000000005E-003     0.0000000000000000     
  -4.1999999999999989E-003     0.0000000000000000     
  -3.8999999999999990E-003     0.0000000000000000     
  -3.5999999999999990E-003     0.0000000000000000     
  -3.2999999999999991E-003     0.0000000000000000     
  -2.9999999999999992E-003     1.8426937647937079E-044
  -2.6999999999999993E-003    -3.7966737356661018E-043
  -2.3999999999999994E-003    -6.5882241098624054E-037
  -2.0999999999999977E-003    -3.7805179058446151E-036
  -1.7999999999999995E-003     3.5933405810977410E-035
  -1.4999999999999979E-003    -8.5691856865211577E-035
  -1.1999999999999997E-003     2.8218964107248618E-035
  -8.9999999999999976E-004     6.9653692878641086E-034
  -5.9999999999999810E-004    -2.5604089500923713E-034
  -2.9999999999999992E-004    -6.3194493264235460E-033
   0.0000000000000000         -2.4358110875054945E-033
   3.0000000000000165E-004     2.2258125058130248E-031
   5.9999999999999984E-004    -1.4354864097685990E-030
   9.0000000000000149E-004     5.4340482890946934E-030
   1.2000000000000031E-003    -1.3499057409669185E-029
   1.5000000000000013E-003     1.7095496975449260E-029
   1.8000000000000030E-003     2.9065372004411633E-029
   2.1000000000000012E-003    -2.5680904972585881E-028
   2.3999999999999994E-003     9.3383398405433259E-028
   2.7000000000000010E-003    -2.4297168226020932E-027
   2.9999999999999992E-003     4.9514851288411401E-027
   3.3000000000000008E-003    -7.8891887169589837E-027
   3.6000000000000025E-003     8.6295817934349887E-027
   3.9000000000000007E-003    -4.2329354950626994E-028
   4.2000000000000023E-003    -3.2390865730050233E-026
   4.5000000000000005E-003     1.2634099364700137E-025
   4.7999999999999987E-003    -3.6564663595671881E-025
   5.1000000000000004E-003     9.3029122649571919E-025
   5.4000000000000020E-003    -2.1586423111933235E-024
   5.7000000000000037E-003     4.5884768765547615E-024
   5.9999999999999984E-003    -8.8923450570833544E-024
   6.3000000000000000E-003     1.5500223392271194E-023
   6.6000000000000017E-003    -2.3144242225503678E-023
   6.9000000000000034E-003     2.3553407986757752E-023
   7.2000000000000015E-003     1.4269566055819921E-023
   7.5000000000000032E-003    -1.7439465994162891E-022
   7.8000000000000014E-003     6.0254526807498929E-022
   8.0999999999999996E-003    -1.3068788704212647E-021
   8.4000000000000012E-003     1.1805672545000755E-021
   8.7000000000000029E-003     5.2100704909317419E-021
   9.0000000000000011E-003    -3.6499701188416253E-020
   9.2999999999999992E-003     1.4622157027241872E-019
   9.6000000000000009E-003    -4.6888111961016221E-019
   9.8999999999999991E-003     1.2994512189506216E-018
   1.0200000000000001E-002    -3.1883818948647018E-018
   1.0500000000000002E-002     7.0367284010431553E-018
   1.0800000000000004E-002    -1.5369047943762759E-017
   1.1099999999999999E-002     4.8971545004451292E-017
   1.1400000000000000E-002    -2.8987262576073415E-016
   1.1700000000000002E-002     2.0244401941213665E-015
   1.2000000000000004E-002    -1.2569998162871884E-014
   1.2300000000000002E-002     6.4860157864166064E-014
   1.2600000000000000E-002    -2.6842559592891205E-013
   1.2900000000000002E-002     8.2999573584600820E-013
   1.3200000000000000E-002    -1.4989782588511887E-012
   1.3500000000000002E-002    -1.2905916493588076E-012
   1.3800000000000003E-002     2.0428449031833316E-011
   1.4100000000000001E-002    -7.1631436281544652E-011
   1.4400000000000000E-002     9.6345976005924590E-011
   1.4700000000000001E-002     1.9988996752683475E-010
   1.4999999999999999E-002    -1.1424536399029767E-009
   1.5300000000000001E-002     1.4361762060159114E-009
   1.5600000000000003E-002     3.1934562967632145E-009
   1.5899999999999997E-002    -1.0997372411999233E-008
   1.6199999999999999E-002    -1.7429962298410201E-009
   1.6500000000000001E-002     4.3089283018071081E-008
   1.6800000000000002E-002    -7.8854120267156853E-009
   1.7100000000000004E-002    -1.4266844096369331E-007
   1.7400000000000006E-002    -1.0645216074583843E-008
   1.7700000000000000E-002     4.0308585456097593E-007
   1.8000000000000002E-002     2.1157255309947095E-007
   1.8300000000000004E-002    -1.0248871883043680E-006
   1.8600000000000005E-002    -1.4379445200020923E-006
   1.8900000000000000E-002     1.3894956965406798E-006
   1.9200000000000002E-002     6.2628174291661167E-006
   1.9500000000000003E-002     9.1499045639730469E-006
   1.9799999999999998E-002     9.5429629435294844E-006
   2.0100000000000000E-002     1.2863284638016413E-005
   2.0400000000000001E-002     2.4017503522750679E-005
   2.0700000000000003E-002     4.1318331476350301E-005
   2.0999999999999998E-002     6.1379439837816149E-005
   2.1299999999999999E-002     8.8452397443993514E-005
   2.1600000000000001E-002     1.3301200305401394E-004
   2.1900000000000003E-002     2.0203052155373836E-004
   2.2200000000000004E-002     2.9766769313023360E-004
   2.2500000000000006E-002     4.2695344777828146E-004
   2.2800000000000001E-002     6.0694427096923468E-004
   2.3100000000000002E-002     8.5638392821575334E-004
   2.3400000000000004E-002     1.1872537699158174E-003
   2.3699999999999999E-002     1.6111524323018697E-003
   2.4000000000000000E-002     2.1484099287906338E-003
   2.4300000000000002E-002     2.8227218961375789E-003
   2.4599999999999997E-002     3.6477467636170649E-003
   2.4900000000000005E-002     4.6237867516755330E-003
   2.5200000000000000E-002     5.7434371517773568E-003
   2.5499999999999995E-002     6.9887755931587921E-003
   2.5800000000000003E-002     8.3144927716706368E-003
   2.6099999999999998E-002     9.6398737646475174E-003
   2.6400000000000007E-002     1.0853831356801838E-002
   2.6700000000000002E-002     1.1815160288613583E-002
   2.6999999999999996E-002     1.2343008898751100E-002
   2.7300000000000005E-002     1.2210275120368437E-002
   2.7600000000000000E-002     1.1164274383801780E-002
   2.7900000000000008E-002     8.9459006397168955E-003
   2.8200000000000003E-002     5.3011566025864881E-003
   2.8499999999999998E-002    -2.5136698108137333E-006
   2.8800000000000006E-002    -7.1450295167695133E-003
   2.9100000000000001E-002    -1.6205356960620851E-002
   2.9400000000000003E-002    -2.7128632267009817E-002
   2.9700000000000004E-002    -3.9713398295941608E-002
   3.0000000000000006E-002    -5.3591683945411868E-002
   3.0300000000000001E-002    -6.8196799956530052E-002
   3.0600000000000002E-002    -8.2753409150743112E-002
   3.0900000000000004E-002    -9.6307759013152139E-002
   3.1199999999999999E-002   -0.10777564851504340     
   3.1500000000000007E-002   -0.11599507019258472     
   3.1800000000000002E-002   -0.11974701963070292     
   3.2099999999999997E-002   -0.11784166888031139     
   3.2400000000000005E-002   -0.10925638843285487     
   3.2700000000000000E-002    -9.3183259591947898E-002
   3.3000000000000002E-002    -6.9060411651413522E-002
   3.3300000000000003E-002    -3.6731233326599930E-002
   3.3599999999999998E-002     3.5347537368775853E-003
   3.3900000000000000E-002     5.1044256533764099E-002
   3.4200000000000001E-002    0.10456111366002221     
   3.4500000000000003E-002    0.16239728874904250     
   3.4799999999999998E-002    0.22242418813989820     
   3.5099999999999999E-002    0.28202586824861925     
   3.5400000000000001E-002    0.33824634095047235     
   3.5699999999999996E-002    0.38787889115641905     
   3.6000000000000004E-002    0.42753791535317670     
   3.6299999999999999E-002    0.45384281680297756     
   3.6600000000000008E-002    0.46354997029137734     
   3.6900000000000002E-002    0.45384523187419512     
   3.7199999999999997E-002    0.42253771359028308     
   3.7500000000000006E-002    0.36823099786756369     
   3.7800000000000000E-002    0.29062184613483483     
   3.8100000000000009E-002    0.19063623153840958     
   3.8400000000000004E-002     7.0555611391425549E-002
   3.8699999999999998E-002    -6.5902696028369345E-002
   3.9000000000000007E-002   -0.21375629362290777     
   3.9300000000000002E-002   -0.36684173320240471     
   3.9600000000000003E-002   -0.51810192911499753     
   3.9900000000000005E-002   -0.66016542589357408     
   4.0200000000000000E-002   -0.78572105821573668     
   4.0500000000000001E-002   -0.88796060487911121     
   4.0800000000000003E-002   -0.96130852832522928     
   4.1100000000000005E-002    -1.0017460451799560     
   4.1399999999999999E-002    -1.0072339615281416     
   4.1700000000000008E-002   -0.97789750691736221     
   4.2000000000000003E-002   -0.91585705724496524     
   4.2299999999999997E-002   -0.82538215293930262     
   4.2600000000000006E-002   -0.71224711326322399     
   4.2900000000000001E-002   -0.58299450177911638     
   4.3200000000000002E-002   -0.44460661518799555     
   4.3500000000000004E-002   -0.30359913516696146     
   4.3799999999999999E-002   -0.16531156489072873     
   4.4100000000000000E-002    -3.3445777277155989E-002
   4.4400000000000002E-002     9.0459079401578615E-002
   4.4700000000000004E-002    0.20681199014728141     
   4.4999999999999998E-002    0.31797455831900073     
   4.5300000000000000E-002    0.42783586797320738     
   4.5600000000000002E-002    0.54091088179006397     
   4.5899999999999996E-002    0.66152880454532070     
   4.6200000000000005E-002    0.79290280359182752     
   4.6500000000000000E-002    0.93619719621155206     
   4.6799999999999994E-002     1.0899100050042565     
   4.7100000000000003E-002     1.2494071476390889     
   4.7399999999999998E-002     1.4068766605394269     
   4.7700000000000006E-002     1.5519681969412151     
   4.8000000000000001E-002     1.6723300052987069     
   4.8300000000000010E-002     1.7547027937507211     
   4.8600000000000004E-002     1.7866541059335734     
   4.8899999999999999E-002     1.7576271244367363     
   4.9200000000000008E-002     1.6602351645469942     
   4.9500000000000002E-002     1.4915517571087527     
   4.9800000000000011E-002     1.2533347621518671     
   5.0100000000000006E-002    0.95256936705824802     
   5.0400000000000000E-002    0.60093694964117561     
   5.0700000000000009E-002    0.21362416263614320     
   5.1000000000000004E-002   -0.19151436277076200     
   5.1299999999999998E-002   -0.59555161840237247     
   5.1600000000000007E-002   -0.98023290649737893     
   5.1900000000000002E-002    -1.3292186414417353     
   5.2200000000000010E-002    -1.6293871582388462     
   5.2500000000000005E-002    -1.8715998127137792     
   5.2800000000000000E-002    -2.0507419300682397     
   5.3099999999999994E-002    -2.1659822636244481     
   5.3400000000000003E-002    -2.2200560704208123     
   5.3699999999999998E-002    -2.2180554945931692     
   5.4000000000000006E-002    -2.1666181095728523     
   5.4300000000000001E-002    -2.0727696344115261     
   5.4599999999999996E-002    -1.9429296090206984     
   5.4900000000000004E-002    -1.7821444014828225     
   5.5199999999999999E-002    -1.5933341632059563     
   5.5499999999999994E-002    -1.3777174521750168     
   5.5800000000000002E-002    -1.1350806457511178     
   5.6099999999999997E-002   -0.86407810993506029     
   5.6400000000000006E-002   -0.56367254536348754     
   5.6700000000000000E-002   -0.23364982249925442     
   5.6999999999999995E-002    0.12449565086895262     
   5.7300000000000004E-002    0.50590353346277128     
   5.7599999999999998E-002    0.90251700620563091     
   5.7900000000000007E-002     1.3033167500030955     
   5.8200000000000002E-002     1.6936145119495536     
   5.8499999999999996E-002     2.0562813480937896     
   5.8800000000000005E-002     2.3730206594761838     
   5.9100000000000000E-002     2.6253952993489307     
   5.9400000000000008E-002     2.7967743798947620     
   5.9700000000000003E-002     2.8736266932214218     
   6.0000000000000012E-002     2.8467521434485996     
   6.0300000000000006E-002     2.7131583387131655     
   6.0600000000000001E-002     2.4760052787659546     
   6.0900000000000010E-002     2.1447734399186436     
   6.1200000000000004E-002     1.7351605396368279     
   6.1500000000000013E-002     1.2674323956266940     
   6.1800000000000008E-002    0.76561641494037158     
   6.2100000000000002E-002    0.25521331250667645     
   6.2399999999999997E-002   -0.23913316225540801     
   6.2700000000000006E-002   -0.69467295925843953     
   6.3000000000000000E-002    -1.0928991636690690     
   6.3300000000000009E-002    -1.4208262770197924     
   6.3600000000000004E-002    -1.6708615612347923     
   6.3899999999999998E-002    -1.8417351983700760     
   6.4199999999999993E-002    -1.9371588884998980     
   6.4500000000000002E-002    -1.9649556219199749     
   6.4800000000000010E-002    -1.9361802718982113     
   6.5100000000000005E-002    -1.8624314258546262     
   6.5400000000000000E-002    -1.7550210923269793     
   6.5700000000000008E-002    -1.6238085955023500     
   6.5999999999999989E-002    -1.4757786471896386     
   6.6299999999999998E-002    -1.3153597544913953     
   6.6600000000000006E-002    -1.1440311867962296     
   6.6900000000000001E-002   -0.96101748925312735     
   6.7199999999999996E-002   -0.76526479322094498     
   6.7500000000000004E-002   -0.55557594058226645     
   6.7800000000000013E-002   -0.33184996219058016     
   6.8099999999999994E-002    -9.6995855582825877E-002
   6.8400000000000002E-002    0.14309418422749379     
   6.8700000000000011E-002    0.37992379095816342     
   6.8999999999999992E-002    0.60201290973840360     
   6.9300000000000000E-002    0.79623712035501593     
   6.9600000000000009E-002    0.94929603528572815     
   6.9900000000000004E-002     1.0492968607169268     
   7.0199999999999999E-002     1.0875177103328417     
   7.0500000000000007E-002     1.0589429745405357     
   7.0800000000000016E-002    0.96427515541862197     
   7.1099999999999997E-002    0.81001449850663054     
   7.1400000000000005E-002    0.60680126874422324     
   7.1700000000000000E-002    0.36988471907954240     
   7.1999999999999995E-002    0.11682402789723155     
   7.2300000000000003E-002   -0.13545759332612139     
   7.2600000000000012E-002   -0.37145971172761327     
   7.2900000000000006E-002   -0.58029046607257462     
   7.3200000000000001E-002   -0.75670475324795450     
   7.3499999999999996E-002   -0.90143398359156290     
   7.3800000000000004E-002    -1.0222587700999273     
   7.4099999999999999E-002    -1.1314159478503920     
   7.4400000000000008E-002    -1.2441854075288863     
   7.4700000000000003E-002    -1.3767071344082988     
   7.5000000000000011E-002    -1.5422677198333976     
   7.5299999999999992E-002    -1.7486020592816036     
   7.5600000000000001E-002    -1.9957602208262848     
   7.5900000000000009E-002    -2.2742623244104867     
   7.6200000000000004E-002    -2.5650257043583635     
   7.6499999999999999E-002    -2.8403643604729276     
   7.6800000000000007E-002    -3.0662252052127612     
   7.7099999999999988E-002    -3.2052530533742947     
   7.7399999999999997E-002    -3.2209355294718427     
   7.7700000000000005E-002    -3.0816130298080022     
   7.8000000000000014E-002    -2.7649853100278263     
   7.8299999999999995E-002    -2.2606597032894382     
   7.8600000000000003E-002    -1.5720488129859980     
   7.8900000000000012E-002   -0.71769373553313176     
   7.9199999999999993E-002    0.27031871081991760     
   7.9500000000000001E-002     1.3486700469441693     
   7.9800000000000010E-002     2.4660066701808159     
   8.0100000000000018E-002     3.5676402166147105     
   8.0399999999999999E-002     4.5991233933566189     
   8.0700000000000008E-002     5.5110859113856367     
   8.1000000000000003E-002     6.2631186816336069     
   8.1299999999999997E-002     6.8252248309895238     
   8.1600000000000006E-002     7.1803693501869876     
   8.1900000000000014E-002     7.3235387715163869     
   8.2199999999999995E-002     7.2607164458750448     
   8.2500000000000004E-002     7.0086713034522328     
   8.2799999999999999E-002     6.5907068514497622     
   8.3100000000000007E-002     6.0342512393526269     
   8.3400000000000002E-002     5.3698830798507879     
   8.3700000000000011E-002     4.6283054409364217     
   8.4000000000000005E-002     3.8388030392403141     
   8.4300000000000000E-002     3.0283689126616480     
   8.4599999999999995E-002     2.2216536370428890     
   8.4900000000000003E-002     1.4412296126360564     
   8.5199999999999998E-002    0.70747739820461997     
   8.5500000000000007E-002     3.8240622429478732E-002
   8.5800000000000001E-002   -0.55087538976681827     
   8.6100000000000010E-002    -1.0463296467353613     
   8.6399999999999991E-002    -1.4381280209992489     
   8.6699999999999999E-002    -1.7214784778195489     
   8.7000000000000008E-002    -1.8969973299056859     
   8.7300000000000003E-002    -1.9719980684969232     
   8.7599999999999997E-002    -1.9622812904230886     
   8.7900000000000006E-002    -1.8913512547933446     
   8.8200000000000014E-002    -1.7903001304728268     
   8.8499999999999995E-002    -1.6955934450167474     
   8.8800000000000004E-002    -1.6469247942122762     
   8.9100000000000013E-002    -1.6839537986326321     
   8.9399999999999993E-002    -1.8418351593487046     
   8.9700000000000002E-002    -2.1476081662526769     
   9.0000000000000011E-002    -2.6161373829914241     
   9.0299999999999991E-002    -3.2469628995755135     
   9.0600000000000000E-002    -4.0228322697300110     
   9.0900000000000009E-002    -4.9095500687524618     
   9.1200000000000017E-002    -5.8568991436509092     
   9.1499999999999998E-002    -6.8020519057634452     
   9.1800000000000007E-002    -7.6742824360740958     
   9.2100000000000001E-002    -8.4010103960603111     
   9.2399999999999996E-002    -8.9139698702296783     
   9.2700000000000005E-002    -9.1551626783295248     
   9.3000000000000013E-002    -9.0828808285269584     
   9.3300000000000008E-002    -8.6768368079671845     
   9.3600000000000003E-002    -7.9391825845388055     
   9.3899999999999997E-002    -6.8958681150530232     
   9.4200000000000006E-002    -5.5952332454679139     
   9.4500000000000001E-002    -4.1036508494258852     
   9.4800000000000009E-002    -2.5006642805534751     
   9.5100000000000004E-002   -0.87152224936221456     
   9.5399999999999999E-002    0.69927421500393383     
   9.5699999999999993E-002     2.1346574990607192     
   9.6000000000000002E-002     3.3725498424069351     
   9.6300000000000011E-002     4.3685155067477135     
   9.6600000000000005E-002     5.0993999973538715     
   9.6900000000000000E-002     5.5658344104368211     
   9.7200000000000009E-002     5.7869446878207018     
   9.7499999999999989E-002     5.7999856433793742     
   9.7799999999999998E-002     5.6564151620066676     
   9.8100000000000007E-002     5.4126540504447966     
   9.8400000000000015E-002     5.1267968129963126     
   9.8699999999999996E-002     4.8533254347470924     
   9.9000000000000005E-002     4.6356034888328059     
   9.9300000000000013E-002     4.5049997077775270     
   9.9599999999999994E-002     4.4772964476218879     
   9.9900000000000003E-002     4.5514022276183761     
  0.10020000000000001          4.7132632237639109     
  0.10049999999999999          4.9353459025270476     
  0.10080000000000000          5.1813090710626408     
  0.10110000000000001          5.4112610057999344     
  0.10140000000000000          5.5822677632080762     
  0.10170000000000000          5.6554647277580790     
  0.10200000000000001          5.5984441354958410     
  0.10230000000000002          5.3851697222221793     
  0.10260000000000000          5.0008266316772136     
  0.10290000000000001          4.4393399572739067     
  0.10320000000000000          3.7032817581691213     
  0.10350000000000001          2.8054508192271870     
  0.10380000000000000          1.7640294185016645     
  0.10410000000000001         0.60304097020994807     
  0.10440000000000001        -0.64713880668494805     
  0.10470000000000000         -1.9541952528161459     
  0.10500000000000000         -3.2814301452423362     
  0.10530000000000000         -4.5892750589929525     
  0.10560000000000000         -5.8369343086516228     
  0.10590000000000001         -6.9798815550672311     
  0.10620000000000000         -7.9732383143635506     
  0.10650000000000001         -8.7734040255055401     
  0.10679999999999999         -9.3373088483914337     
  0.10710000000000000         -9.6273718144325837     
  0.10740000000000001         -9.6135970036411056     
  0.10770000000000000         -9.2746926823301106     
  0.10800000000000000         -8.6041118737774394     
  0.10830000000000001         -7.6084196705347962     
  0.10859999999999999         -6.3095472428573132     
  0.10890000000000000         -4.7476209120837867     
  0.10920000000000001         -2.9752246100925093     
  0.10950000000000001         -1.0580740067987411     
  0.10979999999999999         0.92718361741355904     
  0.11009999999999999          2.9016367189181329     
  0.11040000000000001          4.7833782634684683     
  0.11070000000000001          6.4939276488913897     
  0.11100000000000000          7.9649526776056465     
  0.11130000000000000          9.1370685252263772     
  0.11160000000000002          9.9662454763808537     
  0.11190000000000001          10.425305240411779     
  0.11220000000000001          10.501446645333568     
  0.11250000000000000          10.200268710204865     
  0.11280000000000000          9.5424518603055049     
  0.11309999999999999          8.5614738782048097     
  0.11340000000000001          7.3037581975547017     
  0.11369999999999998          5.8233504953593176     
  0.11400000000000000          4.1808014620231688     
  0.11430000000000000          2.4408848958224878     
  0.11460000000000002         0.66707426184967800     
  0.11489999999999999         -1.0773024108111955     
  0.11520000000000001         -2.7325527378656482     
  0.11550000000000001         -4.2471418253799715     
  0.11580000000000000         -5.5751976987890810     
  0.11609999999999999         -6.6792030471299926     
  0.11640000000000002         -7.5326481063091606     
  0.11670000000000001         -8.1165352064109832     
  0.11700000000000001         -8.4230566143060237     
  0.11730000000000000         -8.4542045545189080     
  0.11760000000000000         -8.2192153632303704     
  0.11789999999999999         -7.7377781232605019     
  0.11820000000000001         -7.0365308664289259     
  0.11850000000000001         -6.1494468111032417     
  0.11880000000000000         -5.1181023441762896     
  0.11910000000000000         -3.9876498942419678     
  0.11940000000000002         -2.8083662203769917     
  0.11970000000000001         -1.6343262086776114     
  0.12000000000000001        -0.51805454888063485     
  0.12030000000000000         0.48857140618588990     
  0.12060000000000000          1.3375464604651921     
  0.12089999999999999          1.9898172599594091     
  0.12119999999999999          2.4151289326875869     
  0.12150000000000001          2.5968830147610666     
  0.12180000000000001          2.5339361695033653     
  0.12210000000000000          2.2401231135663058     
  0.12239999999999999          1.7470424171364085     
  0.12270000000000002          1.1017220286308247     
  0.12300000000000001         0.36172156263239424     
  0.12330000000000001        -0.40325810980260923     
  0.12360000000000000         -1.1200039725010753     
  0.12390000000000000         -1.7175960592858228     
  0.12419999999999999         -2.1291597726518976     
  0.12450000000000001         -2.3012782601861388     
  0.12480000000000001         -2.1971020203653651     
  0.12509999999999999         -1.7985127902237230     
  0.12540000000000001         -1.1120457412347142     
  0.12570000000000003        -0.16517980838398785     
  0.12600000000000000         0.99372418017715547     
  0.12630000000000002          2.2963088729469394     
  0.12659999999999999          3.6636049051250468     
  0.12690000000000001          5.0072643599468512     
  0.12719999999999998          6.2375600696031874     
  0.12750000000000000          7.2735694248334664     
  0.12780000000000002          8.0434073133142885     
  0.12809999999999999          8.4916323539782521     
  0.12840000000000001          8.5866221351623526     
  0.12869999999999998          8.3171213940229585     
  0.12900000000000000          7.6963552112639082     
  0.12930000000000003          6.7597206431055712     
  0.12959999999999999          5.5596406957756157     
  0.12990000000000002          4.1657784214049789     
  0.13019999999999998          2.6559829748400654     
  0.13050000000000000          1.1104060390160442     
  0.13080000000000003        -0.38967450650259189     
  0.13109999999999999         -1.7729204525503037     
  0.13140000000000002         -2.9787932980705674     
  0.13169999999999998         -3.9592822494702560     
  0.13200000000000001         -4.6869206543256015     
  0.13229999999999997         -5.1495455942308483     
  0.13260000000000000         -5.3510287553057339     
  0.13290000000000002         -5.3133690252506831     
  0.13319999999999999         -5.0693351372805981     
  0.13350000000000001         -4.6608444213119924     
  0.13380000000000003         -4.1371112437754869     
  0.13410000000000000         -3.5481424737933422     
  0.13440000000000002         -2.9439552293343483     
  0.13469999999999999         -2.3695533993257096     
  0.13500000000000001         -1.8610871976232017     
  0.13529999999999998         -1.4490113729613037     
  0.13560000000000000         -1.1524339762017852     
  0.13590000000000002        -0.97740171481688476     
  0.13619999999999999        -0.92410323117879500     
  0.13650000000000001        -0.98145915046446108     
  0.13680000000000003         -1.1297989249803893     
  0.13710000000000000         -1.3464265351129090     
  0.13740000000000002         -1.6018949048059585     
  0.13769999999999999         -1.8677945557573159     
  0.13800000000000001         -2.1163047848639223     
  0.13829999999999998         -2.3187498037002587     
  0.13860000000000000         -2.4546653147432189     
  0.13890000000000002         -2.5065442449207933     
  0.13919999999999999         -2.4614216334683814     
  0.13950000000000001         -2.3155647987481682     
  0.13979999999999998         -2.0676946249725532     
  0.14010000000000000         -1.7231755280612167     
  0.14040000000000002         -1.2942569731951097     
  0.14069999999999999        -0.79388335813424149     
  0.14100000000000001        -0.23949058717991797     
  0.14130000000000004         0.34799588153394967     
  0.14160000000000000         0.94880226775295806     
  0.14189999999999997          1.5402584239732746     
  0.14219999999999999          2.1009106715657442     
  0.14250000000000002          2.6122138578204304     
  0.14279999999999998          3.0539503249974360     
  0.14310000000000000          3.4115166939834278     
  0.14339999999999997          3.6740949571715604     
  0.14369999999999999          3.8306043717411997     
  0.14400000000000002          3.8791464080781393     
  0.14429999999999998          3.8206024987971441     
  0.14460000000000001          3.6584511717153423     
  0.14490000000000003          3.4044657740016233     
  0.14520000000000000          3.0712901215108213     
  0.14550000000000002          2.6760870155277994     
  0.14579999999999999          2.2392803457701511     
  0.14610000000000001          1.7802755985957381     
  0.14640000000000003          1.3217954952677327     
  0.14670000000000000         0.88464450013631446     
  0.14699999999999996         0.48556585678463760     
  0.14729999999999999         0.14199825806495694     
  0.14760000000000001        -0.13482620419478958     
  0.14789999999999998        -0.33790900722463529     
  0.14820000000000000        -0.46307590609027571     