  -1.4999999999999999E-002     0.0000000000000000     
  -1.4700000000000000E-002    -1.4554062905006555E-030
  -1.4400000000000000E-002    -8.7543325631181353E-025
  -1.4100000000000000E-002    -9.1141215388422295E-022
  -1.3800000000000000E-002    -4.7626917418590442E-020
  -1.3500000000000000E-002     7.7990867995570416E-019
  -1.3200000000000000E-002     1.4098377228907001E-017
  -1.2899999999999998E-002    -7.8906312980679803E-017
  -1.2600000000000000E-002    -4.6482252284256745E-016
  -1.2299999999999998E-002     1.7082794528665544E-015
  -1.2000000000000000E-002     6.1789248297390651E-015
  -1.1699999999999999E-002    -7.8772812157626659E-015
  -1.1399999999999999E-002    -7.0005604981389483E-014
  -1.1099999999999999E-002    -7.0281855997665147E-014
  -1.0799999999999999E-002     7.6457489049171218E-013
  -1.0499999999999999E-002     7.0787578890310905E-013
  -1.0199999999999999E-002    -6.2310256677273593E-012
  -9.8999999999999991E-003     2.6786949920688019E-012
  -9.5999999999999992E-003     2.3340539901084164E-011
  -9.2999999999999992E-003    -4.7059814696807306E-011
  -8.9999999999999993E-003     9.4216444724436484E-012
  -8.6999999999999994E-003     1.4912200119803553E-010
  -8.3999999999999995E-003    -3.1872380511308614E-010
  -8.0999999999999996E-003     7.6499578961883766E-011
  -7.7999999999999988E-003     6.3243937801416193E-010
  -7.4999999999999997E-003    -9.3673310981288299E-010
  -7.1999999999999998E-003     2.6104634530540625E-010
  -6.8999999999999981E-003     7.4713026400028236E-010
  -6.5999999999999982E-003    -8.7469694721974582E-010
  -6.3000000000000000E-003     6.6265754719077295E-011
  -6.0000000000000001E-003    -9.7821397903607653E-010
  -5.6999999999999985E-003     3.0817140584349209E-009
  -5.3999999999999986E-003    -8.3533126068440849E-011
  -5.1000000000000004E-003    -5.8168629464841915E-009
  -4.7999999999999987E-003     4.9680032004482041E-009
  -4.5000000000000005E-003     3.3361049585888831E-009
  -4.1999999999999989E-003    -9.0375992678062539E-009
  -3.8999999999999990E-003    -5.4081026817854457E-009
  -3.5999999999999990E-003     2.1431942456543513E-008
  -3.2999999999999991E-003     1.3206786172164577E-008
  -2.9999999999999992E-003    -4.4823725134958805E-008
  -2.6999999999999993E-003    -3.0101977151708852E-008
  -2.3999999999999994E-003     8.4379911765486769E-008
  -2.0999999999999977E-003     1.1552106257227565E-007
  -1.7999999999999995E-003    -2.4318678609646253E-007
  -1.4999999999999979E-003    -3.9602345248231247E-007
  -1.1999999999999997E-003     7.1825267982700575E-007
  -8.9999999999999976E-004     1.2193302728936050E-006
  -5.9999999999999810E-004    -1.6854789174386342E-006
  -2.9999999999999992E-004    -3.8214281236790714E-006
   0.0000000000000000          2.6606804578809214E-006
   3.0000000000000165E-004     1.1446518420001038E-005
   5.9999999999999984E-004     5.6908072876280543E-007
   9.0000000000000149E-004    -2.8587036870969605E-005
   1.2000000000000031E-003    -2.1210143124360455E-005
   1.5000000000000013E-003     7.3799016735991895E-005
   1.8000000000000030E-003     2.2123843966309110E-004
   2.1000000000000012E-003     3.4909393515380159E-004
   2.3999999999999994E-003     4.7828422983671156E-004
   2.7000000000000010E-003     7.2162686804162779E-004
   2.9999999999999992E-003     1.1649279931921930E-003
   3.3000000000000008E-003     1.8380043695635229E-003
   3.6000000000000025E-003     2.8149493733678204E-003
   3.9000000000000007E-003     4.2699354486898568E-003
   4.2000000000000023E-003     6.4360746725676994E-003
   4.5000000000000005E-003     9.5938357425720405E-003
   4.7999999999999987E-003     1.4110961030975040E-002
   5.1000000000000004E-003     2.0459726770094909E-002
   5.4000000000000020E-003     2.9215456181066156E-002
   5.7000000000000037E-003     4.1093051323402706E-002
   5.9999999999999984E-003     5.6984353399084892E-002
   6.3000000000000000E-003     7.7895177755829909E-002
   6.6000000000000017E-003    0.10485139546705879     
   6.9000000000000034E-003    0.13887329792456632     
   7.2000000000000015E-003    0.18092459450253340     
   7.5000000000000032E-003    0.23175443164600074     
   7.8000000000000014E-003    0.29169240939172325     
   8.0999999999999996E-003    0.36042556596688352     
   8.4000000000000012E-003    0.43672107021950884     
   8.7000000000000029E-003    0.51815908013659984     
   9.0000000000000011E-003    0.60091489439395396     
   9.2999999999999992E-003    0.67952347630891419     
   9.6000000000000009E-003    0.74670757001210919     
   9.8999999999999991E-003    0.79341909998215865     
   1.0200000000000001E-002    0.80912326412042668     
   1.0500000000000002E-002    0.78220775888130878     
   1.0800000000000004E-002    0.70058660899881797     
   1.1099999999999999E-002    0.55260318130927255     
   1.1400000000000000E-002    0.32810565600410302     
   1.1700000000000002E-002     1.9781159560764636E-002
   1.2000000000000004E-002   -0.37542788342971739     
   1.2300000000000002E-002   -0.85501176212008678     
   1.2600000000000000E-002    -1.4099406400250201     
   1.2900000000000002E-002    -2.0240804464043167     
   1.3200000000000000E-002    -2.6740677695998203     
   1.3500000000000002E-002    -3.3298597446948461     
   1.3800000000000003E-002    -3.9558520721820116     
   1.4100000000000001E-002    -4.5127973829347070     
   1.4400000000000000E-002    -4.9603071346866159     
   1.4700000000000001E-002    -5.2596111510758474     
   1.4999999999999999E-002    -5.3766199808279032     
   1.5300000000000001E-002    -5.2847655456737463     
   1.5600000000000003E-002    -4.9676693625543669     
   1.5899999999999997E-002    -4.4206006015904480     
   1.6199999999999999E-002    -3.6512296296125735     
   1.6500000000000001E-002    -2.6797057983517356     
   1.6800000000000002E-002    -1.5375175051247276     
   1.7100000000000004E-002   -0.26505104391530471     
   1.7400000000000006E-002     1.0913056175720239     
   1.7700000000000000E-002     2.4822018248705779     
   1.8000000000000002E-002     3.8584416575378215     
   1.8300000000000004E-002     5.1744322650741799     
   1.8600000000000005E-002     6.3908004654858299     
   1.8900000000000000E-002     7.4754333655006420     
   1.9200000000000002E-002     8.4044006529064887     
   1.9500000000000003E-002     9.1626087077926890     
   1.9799999999999998E-002     9.7420103948330983     
   2.0100000000000000E-002     10.140219900922073     
   2.0400000000000001E-002     10.359214071662503     
   2.0700000000000003E-002     10.402631163700143     
   2.0999999999999998E-002     10.274313446228149     
   2.1299999999999999E-002     9.9766217605646865     
   2.1600000000000001E-002     9.5094987074713160     
   2.1900000000000003E-002     8.8709037506586874     
   2.2200000000000004E-002     8.0558848193578800     
   2.2500000000000006E-002     7.0581578317734532     
   2.2800000000000001E-002     5.8726828163927838     
   2.3100000000000002E-002     4.4963282656454080     
   2.3400000000000004E-002     2.9309575960777723     
   2.3699999999999999E-002     1.1857166262090466     
   2.4000000000000000E-002   -0.72170884081747833     
   2.4300000000000002E-002    -2.7620818129167315     
   2.4599999999999997E-002    -4.8934532948392340     
   2.4900000000000005E-002    -7.0621896340390551     
   2.5200000000000000E-002    -9.2034471122709895     
   2.5499999999999995E-002    -11.242255563618444     
   2.5800000000000003E-002    -13.097878746536583     
   2.6099999999999998E-002    -14.687781919384793     
   2.6400000000000007E-002    -15.932970711604792     
   2.6700000000000002E-002    -16.764293034471560     
   2.6999999999999996E-002    -17.126854404804501     
   2.7300000000000005E-002    -16.987385832685735     
   2.7600000000000000E-002    -16.337373785013533     
   2.7900000000000008E-002    -15.195614124292110     
   2.8200000000000003E-002    -13.610438838086655     
   2.8499999999999998E-002    -11.655851682740650     
   2.8800000000000006E-002    -9.4281661636904239     
   2.9100000000000001E-002    -7.0415444437295918     
   2.9400000000000003E-002    -4.6187370100008911     
   2.9700000000000004E-002    -2.2817652469432450     
   3.0000000000000006E-002   -0.14436182691622212     
   3.0300000000000001E-002     1.6951990014612113     
   3.0600000000000002E-002     3.1626106811637822     
   3.0900000000000004E-002     4.2123442843290455     
   3.1199999999999999E-002     4.8280831156615651     
   3.1500000000000007E-002     5.0221451605917302     
   3.1800000000000002E-002     4.8343471311411710     
   3.2099999999999997E-002     4.3277201020074241     
   3.2400000000000005E-002     3.5820819145705416     
   3.2700000000000000E-002     2.6888685369591827     
   3.3000000000000002E-002     1.7460472719928077     
   3.3300000000000003E-002    0.85327028651916170     
   3.3599999999999998E-002    0.10971800943685961     
   3.3900000000000000E-002   -0.38972908878278945     
   3.4200000000000001E-002   -0.55668613777951081     
   3.4500000000000003E-002   -0.30904179906242102     
   3.4799999999999998E-002    0.42424097902361879     
   3.5099999999999999E-002     1.6988153926979841     
   3.5400000000000001E-002     3.5510376861401820     
   3.5699999999999996E-002     5.9891337608745667     
   3.6000000000000004E-002     8.9861414898031775     
   3.6299999999999999E-002     12.470769468879173     
   3.6600000000000008E-002     16.321368000985643     
   3.6900000000000002E-002     20.364294105677860     
   3.7199999999999997E-002     24.371957744138157     
   3.7500000000000006E-002     28.071842439660070     
   3.7800000000000000E-002     31.161826198123116     
   3.8100000000000009E-002     33.327032353645237     
   3.8400000000000004E-002     34.265436921665206     
   3.8699999999999998E-002     33.716447616366310     
   3.9000000000000007E-002     31.489668118622042     
   3.9300000000000002E-002     27.490151145725285     
   3.9600000000000003E-002     21.737490662488238     
   3.9900000000000005E-002     14.377337314488276     
   4.0200000000000000E-002     5.6825292850977416     
   4.0500000000000001E-002    -3.9569346911164969     
   4.0800000000000003E-002    -14.057074393480882     
   4.1100000000000005E-002    -24.071585427664303     
   4.1399999999999999E-002    -33.431574817263211     
   4.1700000000000008E-002    -41.586687806689497     
   4.2000000000000003E-002    -48.047271104500624     
   4.2299999999999997E-002    -52.425274603322237     
   4.2600000000000006E-002    -54.462386652795345     
   4.2900000000000001E-002    -54.048948124455045     
   4.3200000000000002E-002    -51.233235992488481     
   4.3500000000000004E-002    -46.214869540764433     
   4.3799999999999999E-002    -39.325664134002977     
   4.4100000000000000E-002    -31.004461728144854     
   4.4400000000000002E-002    -21.758772120266034     
   4.4700000000000004E-002    -12.127183812629767     
   4.4999999999999998E-002    -2.6400555566112818     
   4.5300000000000000E-002     6.2199551474113628     
   4.5600000000000002E-002     14.042575918485360     
   4.5899999999999996E-002     20.516900793003970     
   4.6200000000000005E-002     25.445755118162175     
   4.6500000000000000E-002     28.740022539813147     
   4.6799999999999994E-002     30.421185824450902     
   4.7100000000000003E-002     30.605164393800131     
   4.7399999999999998E-002     29.480193660244815     
   4.7700000000000006E-002     27.288328563177693     
   4.8000000000000001E-002     24.298846277436173     
   4.8300000000000010E-002     20.788552268227143     
   4.8600000000000004E-002     17.020872461475310     
   4.8899999999999999E-002     13.229812098191861     
   4.9200000000000008E-002     9.6118114811847466     
   4.9500000000000002E-002     6.3171641079226752     
   4.9800000000000011E-002     3.4483396741125514     
   5.0100000000000006E-002     1.0644206984231657     
   5.0400000000000000E-002   -0.81540195244656954     
   5.0700000000000009E-002    -2.2074124272380633     
   5.1000000000000004E-002    -3.1529020486020940     
   5.1299999999999998E-002    -3.7108885647459462     
   5.1600000000000007E-002    -3.9528339418340739     
   5.1900000000000002E-002    -3.9540413853459109     
   5.2200000000000010E-002    -3.7886832663185439     
   5.2500000000000005E-002    -3.5251025416381836     
   5.2800000000000000E-002    -3.2225761846834513     
   5.3099999999999994E-002    -2.9295122692859694     
   5.3400000000000003E-002    -2.6801401533836517     
   5.3699999999999998E-002    -2.4953292804654312     
   5.4000000000000006E-002    -2.3845774975161915     
   5.4300000000000001E-002    -2.3440188550221306     
   5.4599999999999996E-002    -2.3616853624679379     
   5.4900000000000004E-002    -2.4195245560138288     
   5.5199999999999999E-002    -2.4941598963628873     
   5.5499999999999994E-002    -2.5631393533627982     
   5.5800000000000002E-002    -2.6063930865005189     
   5.6099999999999997E-002    -2.6074105321332097     
   5.6400000000000006E-002    -2.5563848506784481     
   5.6700000000000000E-002    -2.4496403175801937     
   5.6999999999999995E-002    -2.2901645940348900     
   5.7300000000000004E-002    -2.0862957364838195     
   5.7599999999999998E-002    -1.8492582332929688     
   5.7900000000000007E-002    -1.5926759874913587     
   5.8200000000000002E-002    -1.3309215015362232     
   5.8499999999999996E-002    -1.0766448397801449     
   5.8800000000000005E-002   -0.83962186492967239     
   5.9100000000000000E-002   -0.62731498562872479     
   5.9400000000000008E-002   -0.44322370618935858     
   5.9700000000000003E-002   -0.28907975163567984     
   6.0000000000000012E-002   -0.16419552814935237     
   6.0300000000000006E-002    -6.5280891422639972E-002
   6.0600000000000001E-002     9.3976085338439916E-003
   6.0900000000000010E-002     6.4603688991192759E-002
   6.1200000000000004E-002    0.10467863583930014     
   6.1500000000000013E-002    0.13268774070016529     
   6.1800000000000008E-002    0.15438952928018224     
   6.2100000000000002E-002    0.17442159144946096     
   6.2399999999999997E-002    0.19753302787572291     
   6.2700000000000006E-002    0.22955752264621368     
   6.3000000000000000E-002    0.27445122059695476     
   6.3300000000000009E-002    0.33653490533167296     
   6.3600000000000004E-002    0.41692781776498256     
   6.3899999999999998E-002    0.51461428163815981     
   6.4199999999999993E-002    0.62772988984853439     
   6.4500000000000002E-002    0.74994632838776409     
   6.4800000000000010E-002    0.87289341459059067     
   6.5100000000000005E-002    0.98838012999530256     
   6.5400000000000000E-002     1.0875730007067979     
   6.5700000000000008E-002     1.1619609970170015     
   6.5999999999999989E-002     1.2058526256717890     
   6.6299999999999998E-002     1.2164186361299376     
   6.6600000000000006E-002     1.1942000758722069     
   6.6900000000000001E-002     1.1431294916673775     
   6.7199999999999996E-002     1.0698419005455073     
   6.7500000000000004E-002    0.98280196297482747     
   6.7800000000000013E-002    0.89007938238878825     
   6.8099999999999994E-002    0.79949011230137668     
   6.8400000000000002E-002    0.71758455109491148     
   6.8700000000000011E-002    0.64683035454202964     
   6.8999999999999992E-002    0.58694552844236525     
   6.9300000000000000E-002    0.53592213522079901     
   6.9600000000000009E-002    0.48840270637896022     
   6.9900000000000004E-002    0.43756567958368087     
   7.0199999999999999E-002    0.37808348660263852     
   7.0500000000000007E-002    0.30442931461035927     
   7.0800000000000016E-002    0.21266090092419751     
   7.1099999999999997E-002    0.10225004874981398     
   7.1400000000000005E-002    -2.5382275340155365E-002
   7.1700000000000000E-002   -0.16629903702228224     
   7.1999999999999995E-002   -0.31565886763981310     
   7.2300000000000003E-002   -0.46690606991477079     
   7.2600000000000012E-002   -0.61313025084648276     
   7.2900000000000006E-002   -0.74959394581487437     
   7.3200000000000001E-002   -0.87159853495858097     
   7.3499999999999996E-002   -0.97563134865328838     
   7.3800000000000004E-002    -1.0603134705715460     
   7.4099999999999999E-002    -1.1245669639400906     
   7.4400000000000008E-002    -1.1682384207096210     
   7.4700000000000003E-002    -1.1917260638820957     
   7.5000000000000011E-002    -1.1942429832577737     
   7.5299999999999992E-002    -1.1743472449592682     
   7.5600000000000001E-002    -1.1317034238263601     
   7.5900000000000009E-002    -1.0642709186223729     
   7.6200000000000004E-002   -0.97081193465041893     
   7.6499999999999999E-002   -0.85123330628501370     
   7.6800000000000007E-002   -0.70713954830089198     
   7.7099999999999988E-002   -0.54267138176465568     
   7.7399999999999997E-002   -0.36282666546892173     
   7.7700000000000005E-002   -0.17624082921977274     
   7.8000000000000014E-002     6.9940911860895995E-003
   7.8299999999999995E-002    0.17706234254986197     
   7.8600000000000003E-002    0.32243436464860925     
   7.8900000000000012E-002    0.43411301993551549     
   7.9199999999999993E-002    0.50706987916179858     
   7.9500000000000001E-002    0.53834308670238307     
   7.9800000000000010E-002    0.52884379648661772     
   8.0100000000000018E-002    0.48497760885908525     
   8.0399999999999999E-002    0.41729471102859483     
   8.0700000000000008E-002    0.33744548965170057     
   8.1000000000000003E-002    0.25869059796255084     
   8.1299999999999997E-002    0.19386318415529780     
   8.1600000000000006E-002    0.15394757683164961     
   8.1900000000000014E-002    0.14434661999374471     
   8.2199999999999995E-002    0.16609403207646734     
   8.2500000000000004E-002    0.21598234204231312     
   8.2799999999999999E-002    0.28390974760722987     
   8.3100000000000007E-002    0.35757398513247141     
   8.3400000000000002E-002    0.42290784994891856     
   8.3700000000000011E-002    0.46537490373537638     
   8.4000000000000005E-002    0.47372761758196180     
   8.4300000000000000E-002    0.44225392118074752     
   8.4599999999999995E-002    0.37078906566654424     
   8.4900000000000003E-002    0.26620867368814338     
   8.5199999999999998E-002    0.14228930637955733     
   8.5500000000000007E-002     1.7968951728000671E-002
   8.5800000000000001E-002    -8.5458776737147121E-002
   8.6100000000000010E-002   -0.14731555688103737     
   8.6399999999999991E-002   -0.14941915907019021     
   8.6699999999999999E-002    -8.0634210120337807E-002
   8.7000000000000008E-002     6.0432514277759974E-002
   8.7300000000000003E-002    0.26646095284945104     
   8.7599999999999997E-002    0.51902259967959608     
   8.7900000000000006E-002    0.78955634158307608     
   8.8200000000000014E-002     1.0447816937910530     
   8.8499999999999995E-002     1.2481339878231357     
   8.8800000000000004E-002     1.3651140166895090     
   8.9100000000000013E-002     1.3671306660911284     
   8.9399999999999993E-002     1.2360650669458304     
   8.9700000000000002E-002    0.96735202271591958     
   9.0000000000000011E-002    0.57118691321023518     
   9.0299999999999991E-002     7.2733763137955210E-002
   9.0600000000000000E-002   -0.49115677959051052     
   9.0900000000000009E-002    -1.0733549891798222     
   9.1200000000000017E-002    -1.6219423050128461     
   9.1499999999999998E-002    -2.0861960666323540     
   9.1800000000000007E-002    -2.4222907254464174     
   9.2100000000000001E-002    -2.5971133870020844     
   9.2399999999999996E-002    -2.5902532670941740     
   9.2700000000000005E-002    -2.3995798507599662     
   9.3000000000000013E-002    -2.0400791865814565     
   9.3300000000000008E-002    -1.5391480655061573     
   9.3600000000000003E-002   -0.93768463704486260     
   9.3899999999999997E-002   -0.28430541404735588     
   9.4200000000000006E-002    0.37082611344326000     
   9.4500000000000001E-002    0.97875600227642534     
   9.4800000000000009E-002     1.4977353718492949     
   9.5100000000000004E-002     1.8946144036567398     
   9.5399999999999999E-002     2.1488499989147392     
   9.5699999999999993E-002     2.2533236255723690     
   9.6000000000000002E-002     2.2104405186982814     
   9.6300000000000011E-002     2.0346318964018484     
   9.6600000000000005E-002     1.7488725979878059     
   9.6900000000000000E-002     1.3796335914712112     
   9.7200000000000009E-002    0.95753956158435383     
   9.7499999999999989E-002    0.51255078479252547     
   9.7799999999999998E-002     7.1934884025010248E-002
   9.8100000000000007E-002   -0.33951370311892087     
   9.8400000000000015E-002   -0.70301967632941142     
   9.8699999999999996E-002    -1.0032884565445408     
   9.9000000000000005E-002    -1.2312511232244265     
   9.9300000000000013E-002    -1.3821161123684076     
   9.9599999999999994E-002    -1.4547245209366322     
   9.9900000000000003E-002    -1.4538651962959457     
  0.10020000000000001         -1.3857554423565195     
  0.10049999999999999         -1.2597022806192402     
  0.10080000000000000         -1.0869683219144362     
  0.10110000000000001        -0.88096379517749868     
  0.10140000000000000        -0.65558522654761664     
  0.10170000000000000        -0.42383242406963118     
  0.10200000000000001        -0.19936820967340946     
  0.10230000000000002          7.7605170236144244E-003
  0.10260000000000000         0.18853034678929220     
  0.10290000000000001         0.33573887916790401     
  0.10320000000000000         0.44805778042789751     
  0.10350000000000001         0.52441454405657006     
  0.10380000000000000         0.56697563464148371     
  0.10410000000000001         0.58011888530968891     
  0.10440000000000001         0.56857633475552172     
  0.10470000000000000         0.53839650807468487     
  0.10500000000000000         0.49339846684010791     
  0.10530000000000000         0.43770552536825191     
  0.10560000000000000         0.37427439996059853     
  0.10590000000000001         0.30316644855094282     
  0.10620000000000000         0.22459398928190083     
  0.10650000000000001         0.13851361735533532     
  0.10679999999999999          4.3851741139109127E-002
  0.10710000000000000         -5.9611070251243070E-002
  0.10740000000000001        -0.16999691163149788     
  0.10770000000000000        -0.28496770485876000     
  0.10800000000000000        -0.40068578271115091     
  0.10830000000000001        -0.51142590268037891     
  0.10859999999999999        -0.61139491971016746     
  0.10890000000000000        -0.69356942465617399     
  0.10920000000000001        -0.75176744155809838     
  0.10950000000000001        -0.78110125491080329     
  0.10979999999999999        -0.77701880909118870     
  0.11009999999999999        -0.73833715549211720     
  0.11040000000000001        -0.66465185219405720     
  0.11070000000000001        -0.55670212588394419     
  0.11100000000000000        -0.41972677797299834     
  0.11130000000000000        -0.25771369081929091     
  0.11160000000000002         -7.6003831005788142E-002
  0.11190000000000001         0.11826529155149404     
  0.11220000000000001         0.31963867627563169     
  0.11250000000000000         0.52041665285754435     
  0.11280000000000000         0.71521535304226502     
  0.11309999999999999         0.89916281072695003     
  0.11340000000000001          1.0655638511531946     
  0.11369999999999998          1.2116301149690931     
  0.11400000000000000          1.3332493472098825     
  0.11430000000000000          1.4271229786135753     
  0.11460000000000002          1.4918745662663895     
  0.11489999999999999          1.5255181828275548     
  0.11520000000000001          1.5284584377169403     
  0.11550000000000001          1.5015063490337721     
  0.11580000000000000          1.4466209743806537     
  0.11609999999999999          1.3660485663828199     
  0.11640000000000002          1.2627885903816902     
  0.11670000000000001          1.1410870476825816     
  0.11700000000000001          1.0036281026269771     
  0.11730000000000000         0.85393999990295555     
  0.11760000000000000         0.69406002458859772     
  0.11789999999999999         0.52553723208479020     
  0.11820000000000001         0.34960861937154386     
  0.11850000000000001         0.16481190697818882     
  0.11880000000000000         -2.8170506516788610E-002
  0.11910000000000000        -0.23049138332234270     
  0.11940000000000002        -0.44322263150306163     
  0.11970000000000001        -0.66424298321298270     
  0.12000000000000001        -0.89248556717697913     
  0.12030000000000000         -1.1235638083200064     
  0.12060000000000000         -1.3516031595587696     
  0.12089999999999999         -1.5702765913006604     
  0.12119999999999999         -1.7695018937617841     
  0.12150000000000001         -1.9399908118260618     
  0.12180000000000001         -2.0728593260119945     
  0.12210000000000000         -2.1586369037690494     
  0.12239999999999999         -2.1902437691957974     
  0.12270000000000002         -2.1626772597053829     
  0.12300000000000001         -2.0734549457379972     
  0.12330000000000001         -1.9233368461261242     
  0.12360000000000000         -1.7160971474253137     
  0.12390000000000000         -1.4580035582136430     
  0.12419999999999999         -1.1582361293493957     
  0.12450000000000001        -0.82775614530638308     
  0.12480000000000001        -0.47908728655407451     
  0.12509999999999999        -0.12573872841043221     
  0.12540000000000001         0.22015204108526149     
  0.12570000000000003         0.54540796999459273     
  0.12600000000000000         0.83662765493568603     
  0.12630000000000002          1.0849423424092763     
  0.12659999999999999          1.2813878226612907     
  0.12690000000000001          1.4187220481279934     
  0.12719999999999998          1.4941976340619927     
  0.12750000000000000          1.5058878585281725     
  0.12780000000000002          1.4571045676086540     
  0.12809999999999999          1.3533518889337777     
  0.12840000000000001          1.2020756399131656     
  0.12869999999999998          1.0165580346970990     
  0.12900000000000000         0.80863003409366052     
  0.12930000000000003         0.59318161404082614     
  0.12959999999999999         0.38627624945893202     
  0.12990000000000002         0.19973970576754910     
  0.13019999999999998          4.5942415107063338E-002
  0.13050000000000000         -6.6503047736796370E-002
  0.13080000000000003        -0.13371282630621345     
  0.13109999999999999        -0.15519540570733920     
  0.13140000000000002        -0.13576308614264973     
  0.13169999999999998         -8.2298417155297551E-002
  0.13200000000000001         -5.7031275541957263E-003
  0.13229999999999997          8.1114051864914688E-002
  0.13260000000000000         0.16567063666084059     
  0.13290000000000002         0.23589546198134603     
  0.13319999999999999         0.28129560797468106     
  0.13350000000000001         0.29375640465139996     
  0.13380000000000003         0.26965165661568358     
  0.13410000000000000         0.20759755104889821     
  0.13440000000000002         0.10882629209179812     
  0.13469999999999999         -2.1599057329040369E-002
  0.13500000000000001        -0.17768726409854357     
  0.13529999999999998        -0.35137734472351889     
  0.13560000000000000        -0.53371088351463580     
  0.13590000000000002        -0.71678942194560058     
  0.13619999999999999        -0.89090705773300627     
  0.13650000000000001         -1.0478626293850388     
  0.13680000000000003         -1.1809780087951132     
  0.13710000000000000         -1.2814252656803948     
  0.13740000000000002         -1.3439851486569641     
  0.13769999999999999         -1.3637287536819258     
  0.13800000000000001         -1.3357523895690482     
  0.13829999999999998         -1.2587978541469567     
  0.13860000000000000         -1.1313596710248999     
  0.13890000000000002        -0.95638072709524380     
  0.13919999999999999        -0.73859305215108317     
  0.13950000000000001        -0.48234363976832040     
  0.13979999999999998        -0.19814564213162200     
  0.14010000000000000         0.10350464857790656     
  0.14040000000000002         0.41263650946699099     
  0.14069999999999999         0.71654978070220576     
  0.14100000000000001          1.0042008651552434     
  0.14130000000000004          1.2651708208618992     
  0.14160000000000000          1.4909402526077038     
  0.14189999999999997          1.6760609546326100     
  0.14219999999999999          1.8155367414285468     
  0.14250000000000002          1.9071057317721163     
  0.14279999999999998          1.9511882601205977     
  0.14310000000000000          1.9488701835954245     
  0.14339999999999997          1.9030864528653062     
  0.14369999999999999          1.8174948719386226     
  0.14400000000000002          1.6954881373178443     
  0.14429999999999998          1.5421787323948013     
  0.14460000000000001          1.3630741145855112     
  0.14490000000000003          1.1628378651889484     
  0.14520000000000000         0.94732572096006828     
  0.14550000000000002         0.72321839530869780     
  0.14579999999999999         0.49651058178167706     
  0.14610000000000001         0.27394973693742525     
  0.14640000000000003          6.1076039525835832E-002
  0.14670000000000000        -0.13737366647338611     
  0.14699999999999996        -0.31655876610615230     
  0.14729999999999999        -0.47486084200394152     
  0.14760000000000001        -0.61220940411155289     
  0.14789999999999998        -0.72881837843617392     
  0.14820000000000000        -0.82803705677120210     