  -1.4999999999999999E-002     0.0000000000000000     
  -1.4700000000000000E-002     0.0000000000000000     
  -1.4400000000000000E-002     0.0000000000000000     
  -1.4100000000000000E-002     0.0000000000000000     
  -1.3800000000000000E-002     0.0000000000000000     
  -1.3500000000000000E-002     0.0000000000000000     
  -1.3200000000000000E-002     0.0000000000000000     
  -1.2899999999999998E-002     0.0000000000000000     
  -1.2600000000000000E-002     0.0000000000000000     
  -1.2299999999999998E-002     0.0000000000000000     
  -1.2000000000000000E-002     0.0000000000000000     
  -1.1699999999999999E-002     0.0000000000000000     
  -1.1399999999999999E-002     0.0000000000000000     
  -1.1099999999999999E-002     0.0000000000000000     
  -1.0799999999999999E-002     0.0000000000000000     
  -1.0499999999999999E-002     0.0000000000000000     
  -1.0199999999999999E-002     0.0000000000000000     
  -9.8999999999999991E-003     0.0000000000000000     
  -9.5999999999999992E-003     0.0000000000000000     
  -9.2999999999999992E-003     0.0000000000000000     
  -8.9999999999999993E-003     0.0000000000000000     
  -8.6999999999999994E-003     0.0000000000000000     
  -8.3999999999999995E-003     0.0000000000000000     
  -8.0999999999999996E-003     0.0000000000000000     
  -7.7999999999999988E-003     0.0000000000000000     
  -7.4999999999999997E-003     0.0000000000000000     
  -7.1999999999999998E-003     0.0000000000000000     
  -6.8999999999999981E-003     0.0000000000000000     
  -6.5999999999999982E-003     0.0000000000000000     
  -6.3000000000000000E-003    -6.4483171233784312E-044
  -6.0000000000000001E-003     6.0823095990878662E-038
  -5.6999999999999985E-003    -5.8152531687649228E-036
  -5.3999999999999986E-003     7.8365072067141377E-035
  -5.1000000000000004E-003    -2.1364168442139938E-034
  -4.7999999999999987E-003    -2.0277354605778727E-033
  -4.5000000000000005E-003     1.7366180970132426E-032
  -4.1999999999999989E-003    -7.2983024711859834E-032
  -3.8999999999999990E-003     1.5855471888853003E-031
  -3.5999999999999990E-003     1.7373024997036353E-031
  -3.2999999999999991E-003    -3.0571274894067334E-030
  -2.9999999999999992E-003     1.3702162016400710E-029
  -2.6999999999999993E-003    -3.3872539772930347E-029
  -2.3999999999999994E-003     1.8470149711542394E-029
  -2.0999999999999977E-003     2.6639368605902644E-028
  -1.7999999999999995E-003    -1.5505916640524321E-027
  -1.4999999999999979E-003     5.4805514941200155E-027
  -1.1999999999999997E-003    -1.4758968350709415E-026
  -8.9999999999999976E-004     3.2067551500331025E-026
  -5.9999999999999810E-004    -5.6149093646229228E-026
  -2.9999999999999992E-004     7.1700948171868294E-026
   0.0000000000000000         -2.3013698609174934E-026
   3.0000000000000165E-004    -2.5889922964914423E-025
   5.9999999999999984E-004     1.2485745974861694E-024
   9.0000000000000149E-004    -4.1712560194020115E-024
   1.2000000000000031E-003     1.1874763335749697E-023
   1.5000000000000013E-003    -3.0241262266307877E-023
   1.8000000000000030E-003     6.9989016587765146E-023
   2.1000000000000012E-003    -1.4817177970798947E-022
   2.3999999999999994E-003     2.8782061116994547E-022
   2.7000000000000010E-003    -5.1289523245391314E-022
   2.9999999999999992E-003     8.3370467048903674E-022
   3.3000000000000008E-003    -1.2146320887590804E-021
   3.6000000000000025E-003     1.5107797268261797E-021
   3.9000000000000007E-003    -1.3529067416094816E-021
   4.2000000000000023E-003    -4.9000956613462627E-023
   4.5000000000000005E-003     4.2253890298045634E-021
   4.7999999999999987E-003    -1.3953070138662177E-020
   5.1000000000000004E-003     3.4050167904934668E-020
   5.4000000000000020E-003    -7.2618396742552094E-020
   5.7000000000000037E-003     1.4291144869256987E-019
   5.9999999999999984E-003    -2.6585464869992557E-019
   6.3000000000000000E-003     4.7275370948423675E-019
   6.6000000000000017E-003    -8.0717104126158374E-019
   6.9000000000000034E-003     1.3265061058400617E-018
   7.2000000000000015E-003    -2.1160210839537051E-018
   7.5000000000000032E-003     3.3778384284043547E-018
   7.8000000000000014E-003    -5.8194480430446279E-018
   8.0999999999999996E-003     1.1997809627953620E-017
   8.4000000000000012E-003    -2.9982160840496666E-017
   8.7000000000000029E-003     7.8998817111177232E-017
   9.0000000000000011E-003    -1.7140311069372476E-016
   9.2999999999999992E-003     8.0574793110024618E-017
   9.6000000000000009E-003     2.0927357816063529E-015
   9.8999999999999991E-003    -1.6531670187914196E-014
   1.0200000000000001E-002     8.5237297201896869E-014
   1.0500000000000002E-002    -3.3975066898584949E-013
   1.0800000000000004E-002     1.0397326133203060E-012
   1.1099999999999999E-002    -2.1120977970129767E-012
   1.1400000000000000E-002     5.7222450984365793E-013
   1.1700000000000002E-002     1.5718945900737012E-011
   1.2000000000000004E-002    -6.7086022807300440E-011
   1.2300000000000002E-002     1.2123994390497712E-010
   1.2600000000000000E-002     8.1589148799172767E-011
   1.2900000000000002E-002    -9.9219603320121424E-010
   1.3200000000000000E-002     1.8607933249879984E-009
   1.3500000000000002E-002     1.7552911620204534E-009
   1.3800000000000003E-002    -1.1959720732182568E-008
   1.4100000000000001E-002     6.2989655276426783E-009
   1.4400000000000000E-002     4.3809735848815606E-008
   1.4700000000000001E-002    -4.9741164876874442E-008
   1.4999999999999999E-002    -1.5418026304160657E-007
   1.5300000000000001E-002     1.3794856410615554E-007
   1.5600000000000003E-002     4.9563802003268809E-007
   1.5899999999999997E-002    -1.8757387306878709E-007
   1.6199999999999999E-002    -1.4363879156274558E-006
   1.6500000000000001E-002    -6.1495246471294242E-008
   1.6800000000000002E-002     5.9145360558044042E-006
   1.7100000000000004E-002     1.3246683108837582E-005
   1.7400000000000006E-002     1.7526677545217866E-005
   1.7700000000000000E-002     2.1104475171304546E-005
   1.8000000000000002E-002     3.2372339353053458E-005
   1.8300000000000004E-002     5.6261839809881266E-005
   1.8600000000000005E-002     9.0331921342691444E-005
   1.8900000000000000E-002     1.3365151565642854E-004
   1.9200000000000002E-002     1.9588398718126942E-004
   1.9500000000000003E-002     2.9309496537403964E-004
   1.9799999999999998E-002     4.3815592373056412E-004
   2.0100000000000000E-002     6.4157905236407649E-004
   2.0400000000000001E-002     9.2089129006211036E-004
   2.0700000000000003E-002     1.3033234577966384E-003
   2.0999999999999998E-002     1.8183471390400806E-003
   2.1299999999999999E-002     2.4944549257301671E-003
   2.1600000000000001E-002     3.3655700094805548E-003
   2.1900000000000003E-002     4.4732882802107406E-003
   2.2200000000000004E-002     5.8582663899704943E-003
   2.2500000000000006E-002     7.5499229587322721E-003
   2.2800000000000001E-002     9.5646935059241316E-003
   2.3100000000000002E-002     1.1906755480663883E-002
   2.3400000000000004E-002     1.4560681058817285E-002
   2.3699999999999999E-002     1.7474318975144457E-002
   2.4000000000000000E-002     2.0550801446934091E-002
   2.4300000000000002E-002     2.3648123212297149E-002
   2.4599999999999997E-002     2.6579779484411637E-002
   2.4900000000000005E-002     2.9115249308958577E-002
   2.5200000000000000E-002     3.0983404204404895E-002
   2.5499999999999995E-002     3.1880251178455034E-002
   2.5800000000000003E-002     3.1491185746209203E-002
   2.6099999999999998E-002     2.9514992111391719E-002
   2.6400000000000007E-002     2.5695174720330932E-002
   2.6700000000000002E-002     1.9865356508825441E-002
   2.6999999999999996E-002     1.1960622418537839E-002
   2.7300000000000005E-002     2.0491664338636770E-003
   2.7600000000000000E-002    -9.6296776325593067E-003
   2.7900000000000008E-002    -2.2684620909751371E-002
   2.8200000000000003E-002    -3.6566575886171265E-002
   2.8499999999999998E-002    -5.0592654958097012E-002
   2.8800000000000006E-002    -6.3984801451576673E-002
   2.9100000000000001E-002    -7.5905670696486030E-002
   2.9400000000000003E-002    -8.5538101631694077E-002
   2.9700000000000004E-002    -9.2119721033383312E-002
   3.0000000000000006E-002    -9.5003408711082413E-002
   3.0300000000000001E-002    -9.3727459612463801E-002
   3.0600000000000002E-002    -8.8017863716473604E-002
   3.0900000000000004E-002    -7.7811477340357288E-002
   3.1199999999999999E-002    -6.3250241498183063E-002
   3.1500000000000007E-002    -4.4680220775357576E-002
   3.1800000000000002E-002    -2.2677128996554274E-002
   3.2099999999999997E-002     2.0070311142267754E-003
   3.2400000000000005E-002     2.8437746462311835E-002
   3.2700000000000000E-002     5.5472490737844139E-002
   3.3000000000000002E-002     8.1773185041809651E-002
   3.3300000000000003E-002    0.10574334133305507     
   3.3599999999999998E-002    0.12562961821627430     
   3.3900000000000000E-002    0.13952375812145837     
   3.4200000000000001E-002    0.14538758776109792     
   3.4500000000000003E-002    0.14128200420588385     
   3.4799999999999998E-002    0.12547455385360287     
   3.5099999999999999E-002     9.6751336032472018E-002
   3.5400000000000001E-002     5.4602101531477376E-002
   3.5699999999999996E-002    -5.4081592638516676E-004
   3.6000000000000004E-002    -6.7059310657103854E-002
   3.6299999999999999E-002   -0.14209629716014657     
   3.6600000000000008E-002   -0.22155508379530123     
   3.6900000000000002E-002   -0.30022641846137393     
   3.7199999999999997E-002   -0.37211405916903023     
   3.7500000000000006E-002   -0.43084579273345569     
   3.7800000000000000E-002   -0.47020637480614880     
   3.8100000000000009E-002   -0.48467161725966895     
   3.8400000000000004E-002   -0.47001236205274616     
   3.8699999999999998E-002   -0.42380252137161412     
   3.9000000000000007E-002   -0.34567570545253579     
   3.9300000000000002E-002   -0.23758188016844958     
   3.9600000000000003E-002   -0.10375828738722540     
   3.9900000000000005E-002     4.9446925152260575E-002
   4.0200000000000000E-002    0.21394963938632861     
   4.0500000000000001E-002    0.38047866608493403     
   4.0800000000000003E-002    0.53922013804787927     
   4.1100000000000005E-002    0.68030129125146932     
   4.1399999999999999E-002    0.79444597431899400     
   4.1700000000000008E-002    0.87361054064022892     
   4.2000000000000003E-002    0.91155408592317444     
   4.2299999999999997E-002    0.90414511411326071     
   4.2600000000000006E-002    0.84959995601832139     
   4.2900000000000001E-002    0.74883294657230515     
   4.3200000000000002E-002    0.60553176505827455     
   4.3500000000000004E-002    0.42612101672360569     
   4.3799999999999999E-002    0.21972325140135013     
   4.4100000000000000E-002    -2.3184044366255686E-003
   4.4400000000000002E-002   -0.22680305928735583     
   4.4700000000000004E-002   -0.43948181910484241     
   4.4999999999999998E-002   -0.62580725237160828     
   4.5300000000000000E-002   -0.77197066178604357     
   4.5600000000000002E-002   -0.86621026268202528     
   4.5899999999999996E-002   -0.89973079333288308     
   4.6200000000000005E-002   -0.86791599258288743     
   4.6500000000000000E-002   -0.77090026812742241     
   4.6799999999999994E-002   -0.61403975203071237     
   4.7100000000000003E-002   -0.40807859766841620     
   4.7399999999999998E-002   -0.16830481426307733     
   4.7700000000000006E-002     8.6311169238576485E-002
   4.8000000000000001E-002    0.33456908415783715     
   4.8300000000000010E-002    0.55495177348784364     
   4.8600000000000004E-002    0.72735201295161767     
   4.8899999999999999E-002    0.83502208946925838     
   4.9200000000000008E-002    0.86617452856759714     
   4.9500000000000002E-002    0.81498303526960536     
   4.9800000000000011E-002    0.68218825616253487     
   5.0100000000000006E-002    0.47514018802926783     
   5.0400000000000000E-002    0.20696544153633309     
   5.0700000000000009E-002   -0.10474360633510373     
   5.1000000000000004E-002   -0.43940123332758879     
   5.1299999999999998E-002   -0.77490774431731457     
   5.1600000000000007E-002    -1.0897211050949349     
   5.1900000000000002E-002    -1.3645176989936529     
   5.2200000000000010E-002    -1.5829769402299119     
   5.2500000000000005E-002    -1.7324296235389607     
   5.2800000000000000E-002    -1.8042316451501268     
   5.3099999999999994E-002    -1.7938679532373349     
   5.3400000000000003E-002    -1.7004205168849651     
   5.3699999999999998E-002    -1.5254621833100859     
   5.4000000000000006E-002    -1.2731879270836766     
   5.4300000000000001E-002   -0.94974966229767988     
   5.4599999999999996E-002   -0.56302479771633940     
   5.4900000000000004E-002   -0.12269201672326852     
   5.5199999999999999E-002    0.35973751215243543     
   5.5499999999999994E-002    0.87019425514120452     
   5.5800000000000002E-002     1.3920044027045193     
   5.6099999999999997E-002     1.9059646209294563     
   5.6400000000000006E-002     2.3902803534773280     
   5.6700000000000000E-002     2.8216632322461277     
   5.6999999999999995E-002     3.1760860298332467     
   5.7300000000000004E-002     3.4302585897209759     
   5.7599999999999998E-002     3.5639086574025067     
   5.7900000000000007E-002     3.5615197133942846     
   5.8200000000000002E-002     3.4139960886468304     
   5.8499999999999996E-002     3.1207045427369704     
   5.8800000000000005E-002     2.6904977947890387     
   5.9100000000000000E-002     2.1416804298439369     
   5.9400000000000008E-002     1.5023317173709236     
   5.9700000000000003E-002    0.80834265195901356     
   6.0000000000000012E-002    0.10136231241113565     
   6.0300000000000006E-002   -0.57372991899938042     
   6.0600000000000001E-002    -1.1729095243680365     
   6.0900000000000010E-002    -1.6564356223671139     
   6.1200000000000004E-002    -1.9924290273955285     
   6.1500000000000013E-002    -2.1605392836142663     
   6.1800000000000008E-002    -2.1544293441334581     
   6.2100000000000002E-002    -1.9831109535000655     
   6.2399999999999997E-002    -1.6713802383722320     
   6.2700000000000006E-002    -1.2584935309080834     
   6.3000000000000000E-002   -0.79571320715601879     
   6.3300000000000009E-002   -0.34239678795215328     
   6.3600000000000004E-002     3.9330587049159677E-002
   6.3899999999999998E-002    0.29006343365562487     
   6.4199999999999993E-002    0.35889314041618670     
   6.4500000000000002E-002    0.20886580914197758     
   6.4800000000000010E-002   -0.17843913623315671     
   6.5100000000000005E-002   -0.79961692955314811     
   6.5400000000000000E-002    -1.6284659065238141     
   6.5700000000000008E-002    -2.6168274535246532     
   6.5999999999999989E-002    -3.6973530338729437     
   6.6299999999999998E-002    -4.7883928712426194     
   6.6600000000000006E-002    -5.8006117667939323     
   6.6900000000000001E-002    -6.6441986384563148     
   6.7199999999999996E-002    -7.2372443106273581     
   6.7500000000000004E-002    -7.5125404967364071     
   6.7800000000000013E-002    -7.4241043618459734     
   6.8099999999999994E-002    -6.9519535692271059     
   6.8400000000000002E-002    -6.1038829760064894     
   6.8700000000000011E-002    -4.9160578181764532     
   6.8999999999999992E-002    -3.4497156667418785     
   6.9300000000000000E-002    -1.7865823537986023     
   6.9600000000000009E-002    -2.2778567509063850E-002
   6.9900000000000004E-002     1.7395912044521948     
   7.0199999999999999E-002     3.4010077809348722     
   7.0500000000000007E-002     4.8714249767515128     
   7.0800000000000016E-002     6.0778186415716018     
   7.1099999999999997E-002     6.9691412144987197     
   7.1400000000000005E-002     7.5202233240166736     
   7.1700000000000000E-002     7.7317344496289619     
   7.1999999999999995E-002     7.6293022031923590     
   7.2300000000000003E-002     7.2600800555273404     
   7.2600000000000012E-002     6.6873414337047778     
   7.2900000000000006E-002     5.9839728014813689     
   7.3200000000000001E-002     5.2258322717082137     
   7.3499999999999996E-002     4.4847310404302076     
   7.3800000000000004E-002     3.8223918602954394     
   7.4099999999999999E-002     3.2853025375541933     
   7.4400000000000008E-002     2.9019064073255723     
   7.4700000000000003E-002     2.6812474009987097     
   7.5000000000000011E-002     2.6136743345375115     
   7.5299999999999992E-002     2.6729923978630232     
   7.5600000000000001E-002     2.8201545895837716     
   7.5900000000000009E-002     3.0084408834869021     
   7.6200000000000004E-002     3.1883665518251361     
   7.6499999999999999E-002     3.3127456987360633     
   7.6800000000000007E-002     3.3412185909503469     
   7.7099999999999988E-002     3.2438796726197752     
   7.7399999999999997E-002     3.0026291607152178     
   7.7700000000000005E-002     2.6134954796482761     
   7.8000000000000014E-002     2.0853110847441210     
   7.8299999999999995E-002     1.4372201538372935     
   7.8600000000000003E-002    0.69741407432471736     
   7.8900000000000012E-002    -9.9822563326547875E-002
   7.9199999999999993E-002   -0.91834610028772401     
   7.9500000000000001E-002    -1.7234426743667333     
   7.9800000000000010E-002    -2.4841998289868727     
   8.0100000000000018E-002    -3.1754689370434726     
   8.0399999999999999E-002    -3.7806837249614733     
   8.0700000000000008E-002    -4.2910005352993705     
   8.1000000000000003E-002    -4.7069026448833169     
   8.1299999999999997E-002    -5.0381027514156829     
   8.1600000000000006E-002    -5.2994142795170571     
   8.1900000000000014E-002    -5.5113335978353399     
   8.2199999999999995E-002    -5.6978718406313957     
   8.2500000000000004E-002    -5.8829385751059249     
   8.2799999999999999E-002    -6.0876457640748862     
   8.3100000000000007E-002    -6.3277047122076588     
   8.3400000000000002E-002    -6.6119364267845624     
   8.3700000000000011E-002    -6.9390782395127388     
   8.4000000000000005E-002    -7.2966198476914412     
   8.4300000000000000E-002    -7.6611480674380061     
   8.4599999999999995E-002    -7.9982691093891098     
   8.4900000000000003E-002    -8.2652187855773960     
   8.5199999999999998E-002    -8.4129172008213597     
   8.5500000000000007E-002    -8.3904925067855292     
   8.5800000000000001E-002    -8.1490345640612212     
   8.6100000000000010E-002    -7.6467700555010145     
   8.6399999999999991E-002    -6.8538709118589090     
   8.6699999999999999E-002    -5.7556100199069364     
   8.7000000000000008E-002    -4.3553104601635004     
   8.7300000000000003E-002    -2.6761059895302570     
   8.7599999999999997E-002   -0.76149929742728661     
   8.7900000000000006E-002     1.3276775921001143     
   8.8200000000000014E-002     3.5161874046139014     
   8.8499999999999995E-002     5.7174563020503548     
   8.8800000000000004E-002     7.8415955936362618     
   8.9100000000000013E-002     9.7989453516634129     
   8.9399999999999993E-002     11.505185986913347     
   8.9700000000000002E-002     12.889672168084100     
   9.0000000000000011E-002     13.895977848604433     
   9.0299999999999991E-002     14.484760149389807     
   9.0600000000000000E-002     14.637766697691136     
   9.0900000000000009E-002     14.355050899276842     
   9.1200000000000017E-002     13.653528075068097     
   9.1499999999999998E-002     12.566340313673843     
   9.1800000000000007E-002     11.139085644038536     
   9.2100000000000001E-002     9.4271219980126233     
   9.2399999999999996E-002     7.4928721263704974     
   9.2700000000000005E-002     5.4026740909220159     
   9.3000000000000013E-002     3.2274381060845077     
   9.3300000000000008E-002     1.0380532868707451     
   9.3600000000000003E-002    -1.0954564713456929     
   9.3899999999999997E-002    -3.1003347592817221     
   9.4200000000000006E-002    -4.9086915275933860     
   9.4500000000000001E-002    -6.4576522190900034     
   9.4800000000000009E-002    -7.6876570109032922     
   9.5100000000000004E-002    -8.5502330200525432     
   9.5399999999999999E-002    -9.0101739274060542     
   9.5699999999999993E-002    -9.0472880624526244     
   9.6000000000000002E-002    -8.6606217499026528     
   9.6300000000000011E-002    -7.8700676820418574     
   9.6600000000000005E-002    -6.7181444749416661     
   9.6900000000000000E-002    -5.2694225551278366     
   9.7200000000000009E-002    -3.6053690755765095     
   9.7499999999999989E-002    -1.8238914619150111     
   9.7799999999999998E-002    -3.2674811895609779E-002
   9.8100000000000007E-002     1.6605248757648861     
   9.8400000000000015E-002     3.1509165312936820     
   9.8699999999999996E-002     4.3455731806657614     
   9.9000000000000005E-002     5.1724717870032206     
   9.9300000000000013E-002     5.5815303801837306     
   9.9599999999999994E-002     5.5499704471775457     
   9.9900000000000003E-002     5.0852602100252149     
  0.10020000000000001          4.2230308481544041     
  0.10049999999999999          3.0243592410363074     
  0.10080000000000000          1.5717056737584119     
  0.10110000000000001         -3.5500363441635499E-002
  0.10140000000000000         -1.6896288539261428     
  0.10170000000000000         -3.2824818670193801     
  0.10200000000000001         -4.7119693974462296     
  0.10230000000000002         -5.8875671261160551     
  0.10260000000000000         -6.7403823314102045     
  0.10290000000000001         -7.2257763757316766     
  0.10320000000000000         -7.3235556796115864     
  0.10350000000000001         -7.0441405629972307     
  0.10380000000000000         -6.4240729634594516     
  0.10410000000000001         -5.5219156367467859     
  0.10440000000000001         -4.4170166709161425     
  0.10470000000000000         -3.1980444151635945     
  0.10500000000000000         -1.9585252364463999     
  0.10530000000000000        -0.78908704723356526     
  0.10560000000000000         0.23295764753256445     
  0.10590000000000001          1.0455328410931979     
  0.10620000000000000          1.6106564521656936     
  0.10650000000000001          1.9156447566834449     
  0.10679999999999999          1.9714288862205667     
  0.10710000000000000          1.8136583769042602     
  0.10740000000000001          1.4970488614245103     
  0.10770000000000000          1.0880889649051817     
  0.10800000000000000         0.66050182720411443     
  0.10830000000000001         0.28605668980925569     
  0.10859999999999999          2.6899037182543148E-002
  0.10890000000000000         -6.7459380595062179E-002
  0.10920000000000001          3.1163507528249788E-002
  0.10950000000000001         0.32959741362731604     
  0.10979999999999999         0.81319441943090032     
  0.11009999999999999          1.4456638768625492     
  0.11040000000000001          2.1757407851934913     
  0.11070000000000001          2.9400604588427965     
  0.11100000000000000          3.6694093864468713     
  0.11130000000000000          4.2991775587510839     
  0.11160000000000002          4.7703189412964164     
  0.11190000000000001          5.0366840367862977     
  0.11220000000000001          5.0717592629094650     
  0.11250000000000000          4.8665075978108971     
  0.11280000000000000          4.4310284492699106     
  0.11309999999999999          3.7956696392071221     
  0.11340000000000001          3.0042603705639102     
  0.11369999999999998          2.1110756809754987     
  0.11400000000000000          1.1779011515393671     
  0.11430000000000000         0.26480935810214318     
  0.11460000000000002        -0.56994846363326901     
  0.11489999999999999         -1.2782600063077072     
  0.11520000000000001         -1.8247536936577391     
  0.11550000000000001         -2.1845395180617397     
  0.11580000000000000         -2.3499841494072755     
  0.11609999999999999         -2.3268058185163474     
  0.11640000000000002         -2.1312508458325867     
  0.11670000000000001         -1.7927758480440643     
  0.11700000000000001         -1.3454253321982459     
  0.11730000000000000        -0.82731378956293078     
  0.11760000000000000        -0.28057836731230157     
  0.11789999999999999         0.25631489612545955     
  0.11820000000000001         0.74831995881468072     
  0.11850000000000001          1.1648142198633327     
  0.11880000000000000          1.4818774419131542     
  0.11910000000000000          1.6821759998207104     
  0.11940000000000002          1.7547863911378760     
  0.11970000000000001          1.6975978968827725     
  0.12000000000000001          1.5120119433016619     
  0.12030000000000000          1.2047878176311009     
  0.12060000000000000         0.78997188988139988     
  0.12089999999999999         0.28165982424868369     
  0.12119999999999999        -0.30109939215457832     
  0.12150000000000001        -0.93694786745490943     
  0.12180000000000001         -1.6054404348577860     
  0.12210000000000000         -2.2817816844232959     
  0.12239999999999999         -2.9432966399884997     
  0.12270000000000002         -3.5684470448941172     
  0.12300000000000001         -4.1333376376811914     
  0.12330000000000001         -4.6192861767237039     
  0.12360000000000000         -5.0084262892751470     
  0.12390000000000000         -5.2849555919895854     
  0.12419999999999999         -5.4383188164884277     
  0.12450000000000001         -5.4611569342888284     
  0.12480000000000001         -5.3498259555662395     
  0.12509999999999999         -5.1066199424454171     
  0.12540000000000001         -4.7358938491499005     
  0.12570000000000003         -4.2474047177167362     
  0.12600000000000000         -3.6547395459662786     
  0.12630000000000002         -2.9722365904856951     
  0.12659999999999999         -2.2202048228340918     
  0.12690000000000001         -1.4191865077656500     
  0.12719999999999998        -0.58967527300539568     
  0.12750000000000000         0.24342634485187176     
  0.12780000000000002          1.0576724145127947     
  0.12809999999999999          1.8326965214871302     
  0.12840000000000001          2.5474227795735271     
  0.12869999999999998          3.1869254726281184     
  0.12900000000000000          3.7404208122319105     
  0.12930000000000003          4.2024223131702900     
  0.12959999999999999          4.5760031921111599     
  0.12990000000000002          4.8684178128958235     
  0.13019999999999998          5.0920401004301770     
  0.13050000000000000          5.2655849578234690     
  0.13080000000000003          5.4061174320162850     
  0.13109999999999999          5.5290813235268006     
  0.13140000000000002          5.6473431271273951     
  0.13169999999999998          5.7634472457515864     
  0.13200000000000001          5.8740477126209676     
  0.13229999999999997          5.9668354541663389     
  0.13260000000000000          6.0199722853084454     
  0.13290000000000002          6.0094108334280731     
  0.13319999999999999          5.9090447433714743     
  0.13350000000000001          5.6950145163767640     
  0.13380000000000003          5.3512593230335908     
  0.13410000000000000          4.8685967095760496     
  0.13440000000000002          4.2496940997442785     
  0.13469999999999999          3.5085569107141303     
  0.13500000000000001          2.6653055199139239     
  0.13529999999999998          1.7448029269495202     
  0.13560000000000000         0.77364930947390476     
  0.13590000000000002        -0.22526603309301010     
  0.13619999999999999         -1.2352663316104282     
  0.13650000000000001         -2.2488690388451245     
  0.13680000000000003         -3.2669418576371103     
  0.13710000000000000         -4.2934801998941499     
  0.13740000000000002         -5.3377358902773286     
  0.13769999999999999         -6.4064990828091908     
  0.13800000000000001         -7.4960266024772819     
  0.13829999999999998         -8.5937199341994575     
  0.13860000000000000         -9.6715243684262209     
  0.13890000000000002         -10.685803591906017     
  0.13919999999999999         -11.582217253884485     
  0.13950000000000001         -12.296227367873808     
  0.13979999999999998         -12.761958895613079     
  0.14010000000000000         -12.920510063450767     
  0.14040000000000002         -12.725767867038947     
  0.14069999999999999         -12.151878200842551     
  0.14100000000000001         -11.199104276398611     
  0.14130000000000004         -9.8932000607553778     
  0.14160000000000000         -8.2880233424537373     
  0.14189999999999997         -6.4570218069190188     
  0.14219999999999999         -4.4847105288165068     
  0.14250000000000002         -2.4622640898001831     
  0.14279999999999998        -0.47155732027742447     
  0.14310000000000000          1.4262237139308160     
  0.14339999999999997          3.1933368779813147     
  0.14369999999999999          4.8254801399658334     
  0.14400000000000002          6.3506810182602518     
  0.14429999999999998          7.8240568584717964     
  0.14460000000000001          9.3200977017117115     
  0.14490000000000003          10.916329134833456     
  0.14520000000000000          12.679355269121816     
  0.14550000000000002          14.648376867570009     
  0.14579999999999999          16.817303758830043     
  0.14610000000000001          19.124714555508778     
  0.14640000000000003          21.450655170099633     
  0.14670000000000000          23.614690459184082     
  0.14699999999999996          25.390330451154327     
  0.14729999999999999          26.522082039130108     
  0.14760000000000001          26.747202286736407     
  0.14789999999999998          25.829662577424461     
  0.14820000000000000          23.585060489855167     