  -1.4999999999999999E-002     0.0000000000000000     
  -1.4700000000000000E-002     0.0000000000000000     
  -1.4400000000000000E-002     0.0000000000000000     
  -1.4100000000000000E-002     0.0000000000000000     
  -1.3800000000000000E-002     0.0000000000000000     
  -1.3500000000000000E-002     0.0000000000000000     
  -1.3200000000000000E-002     0.0000000000000000     
  -1.2899999999999998E-002     0.0000000000000000     
  -1.2600000000000000E-002     0.0000000000000000     
  -1.2299999999999998E-002     0.0000000000000000     
  -1.2000000000000000E-002     0.0000000000000000     
  -1.1699999999999999E-002     0.0000000000000000     
  -1.1399999999999999E-002     0.0000000000000000     
  -1.1099999999999999E-002     0.0000000000000000     
  -1.0799999999999999E-002     0.0000000000000000     
  -1.0499999999999999E-002     0.0000000000000000     
  -1.0199999999999999E-002     0.0000000000000000     
  -9.8999999999999991E-003     0.0000000000000000     
  -9.5999999999999992E-003     0.0000000000000000     
  -9.2999999999999992E-003     0.0000000000000000     
  -8.9999999999999993E-003     0.0000000000000000     
  -8.6999999999999994E-003     0.0000000000000000     
  -8.3999999999999995E-003     0.0000000000000000     
  -8.0999999999999996E-003     0.0000000000000000     
  -7.7999999999999988E-003     0.0000000000000000     
  -7.4999999999999997E-003     0.0000000000000000     
  -7.1999999999999998E-003     0.0000000000000000     
  -6.8999999999999981E-003     0.0000000000000000     
  -6.5999999999999982E-003     0.0000000000000000     
  -6.3000000000000000E-003     0.0000000000000000     
  -6.0000000000000001E-003     0.0000000000000000     
  -5.6999999999999985E-003     0.0000000000000000     
  -5.3999999999999986E-003     0.0000000000000000     
  -5.1000000000000004E-003     0.0000000000000000     
  -4.7999999999999987E-003    -3.6075280485288388E-045
  -4.5000000000000005E-003     1.4309155212721963E-043
  -4.1999999999999989E-003    -6.1473298787457421E-037
  -3.8999999999999990E-003    -2.6354982214562087E-036
  -3.5999999999999990E-003     6.5435174607615298E-035
  -3.2999999999999991E-003    -2.4788612466049602E-034
  -2.9999999999999992E-003    -3.3589513033812908E-034
  -2.6999999999999993E-003     7.1648746727623023E-033
  -2.3999999999999994E-003    -3.4337077544435961E-032
  -2.0999999999999977E-003     9.3758668387638936E-032
  -1.7999999999999995E-003    -1.0949897605113150E-031
  -1.4999999999999979E-003    -3.8280718297257145E-031
  -1.1999999999999997E-003     2.8887228719003772E-030
  -8.9999999999999976E-004    -1.0937448402436153E-029
  -5.9999999999999810E-004     3.1306412065308782E-029
  -2.9999999999999992E-004    -7.6429911345870377E-029
   0.0000000000000000          1.7123868441993051E-028
   3.0000000000000165E-004    -3.6290258346793620E-028
   5.9999999999999984E-004     6.9229131877947679E-028
   9.0000000000000149E-004    -9.6979877313084371E-028
   1.2000000000000031E-003     8.7116199674558688E-030
   1.5000000000000013E-003     6.1311753600375155E-027
   1.8000000000000030E-003    -2.6969534236517239E-026
   2.1000000000000012E-003     8.0357485840600647E-026
   2.3999999999999994E-003    -1.9202164527037483E-025
   2.7000000000000010E-003     3.8673158814054325E-025
   2.9999999999999992E-003    -6.6391209911539318E-025
   3.3000000000000008E-003     9.4506232261405446E-025
   3.6000000000000025E-003    -9.6275495298151189E-025
   3.9000000000000007E-003     2.2535809468921173E-026
   4.2000000000000023E-003     3.4846676080920090E-024
   4.5000000000000005E-003    -1.2976685016123326E-023
   4.7999999999999987E-003     3.5096082652935355E-023
   5.1000000000000004E-003    -8.1584958463329415E-023
   5.4000000000000020E-003     1.7112850785073989E-022
   5.7000000000000037E-003    -3.2964723555004857E-022
   5.9999999999999984E-003     5.8558093177332351E-022
   6.3000000000000000E-003    -9.5707240685496541E-022
   6.6000000000000017E-003     1.4484945344158048E-021
   6.9000000000000034E-003    -2.1622337171638489E-021
   7.2000000000000015E-003     3.8368618394365492E-021
   7.5000000000000032E-003    -9.2341024082958729E-021
   7.8000000000000014E-003     2.4258062785231692E-020
   8.0999999999999996E-003    -4.7707941365928772E-020
   8.4000000000000012E-003    -6.3847539897066592E-021
   8.7000000000000029E-003     6.9608450331549105E-019
   9.0000000000000011E-003    -4.7726934637409323E-018
   9.2999999999999992E-003     2.4654113693901253E-017
   9.6000000000000009E-003    -1.1488064918743490E-016
   9.8999999999999991E-003     5.1083545689411722E-016
   1.0200000000000001E-002    -2.1918132628382748E-015
   1.0500000000000002E-002     8.9502216362524423E-015
   1.0800000000000004E-002    -3.3781376316157547E-014
   1.1099999999999999E-002     1.1261114660914555E-013
   1.1400000000000000E-002    -3.0476136347492402E-013
   1.1700000000000002E-002     5.1758219319165446E-013
   1.2000000000000004E-002     4.7445188024708515E-013
   1.2300000000000002E-002    -8.0305981193082517E-012
   1.2600000000000000E-002     3.5042178322077234E-011
   1.2900000000000002E-002    -8.5800442608980746E-011
   1.3200000000000000E-002     6.1937050279986483E-011
   1.3500000000000002E-002     4.1077628619984279E-010
   1.3800000000000003E-002    -1.7018182173880057E-009
   1.4100000000000001E-002     2.0991375638242025E-009
   1.4400000000000000E-002     4.7005641685227298E-009
   1.4700000000000001E-002    -1.9628924848922941E-008
   1.4999999999999999E-002     7.9053055672046562E-009
   1.5300000000000001E-002     7.3872454283936793E-008
   1.5600000000000003E-002    -9.0831676995590805E-008
   1.5899999999999997E-002    -2.3657796734061980E-007
   1.6199999999999999E-002     2.9953484645523022E-007
   1.6500000000000001E-002     7.5067448106978730E-007
   1.6800000000000002E-002    -6.4279158649162151E-007
   1.7100000000000004E-002    -2.6409551927365035E-006
   1.7400000000000006E-002     5.4304218264663771E-007
   1.7700000000000000E-002     1.4003042751202946E-005
   1.8000000000000002E-002     3.6406363225405377E-005
   1.8300000000000004E-002     6.2714592029186738E-005
   1.8600000000000005E-002     9.2200097452872667E-005
   1.8900000000000000E-002     1.3266898124628403E-004
   1.9200000000000002E-002     1.9908776391696395E-004
   1.9500000000000003E-002     3.0928559007667726E-004
   1.9799999999999998E-002     4.8098378230732649E-004
   2.0100000000000000E-002     7.3431012785040741E-004
   2.0400000000000001E-002     1.0981539907991410E-003
   2.0700000000000003E-002     1.6156989069130766E-003
   2.0999999999999998E-002     2.3466544109983665E-003
   2.1299999999999999E-002     3.3667352816641612E-003
   2.1600000000000001E-002     4.7660823675649642E-003
   2.1900000000000003E-002     6.6477856267323637E-003
   2.2200000000000004E-002     9.1283795899957474E-003
   2.2500000000000006E-002     1.2336907846992087E-002
   2.2800000000000001E-002     1.6402339481084525E-002
   2.3100000000000002E-002     2.1433450174248466E-002
   2.3400000000000004E-002     2.7502680059118427E-002
   2.3699999999999999E-002     3.4628275607902548E-002
   2.4000000000000000E-002     4.2741641187533305E-002
   2.4300000000000002E-002     5.1645640023592725E-002
   2.4599999999999997E-002     6.0974057454980843E-002
   2.4900000000000005E-002     7.0155530810771458E-002
   2.5200000000000000E-002     7.8380524710398247E-002
   2.5499999999999995E-002     8.4590002457098940E-002
   2.5800000000000003E-002     8.7477989037467174E-002
   2.6099999999999998E-002     8.5533760034130060E-002
   2.6400000000000007E-002     7.7113620518524550E-002
   2.6700000000000002E-002     6.0537140473272660E-002
   2.6999999999999996E-002     3.4246492912381986E-002
   2.7300000000000005E-002    -3.0151089096321511E-003
   2.7600000000000000E-002    -5.1970973404809495E-002
   2.7900000000000008E-002   -0.11259373226091031     
   2.8200000000000003E-002   -0.18390124948227621     
   2.8499999999999998E-002   -0.26378199328330132     
   2.8800000000000006E-002   -0.34890952531188824     
   2.9100000000000001E-002   -0.43474143521525299     
   2.9400000000000003E-002   -0.51566952199700844     
   2.9700000000000004E-002   -0.58527815034192954     
   3.0000000000000006E-002   -0.63675826447852246     
   3.0300000000000001E-002   -0.66345297930154035     
   3.0600000000000002E-002   -0.65942149989582943     
   3.0900000000000004E-002   -0.62013131028707591     
   3.1199999999999999E-002   -0.54306900183806273     
   3.1500000000000007E-002   -0.42816653583952613     
   3.1800000000000002E-002   -0.27827954102297858     
   3.2099999999999997E-002    -9.9128126100968897E-002
   3.2400000000000005E-002    0.10079218444020599     
   3.2700000000000000E-002    0.31070840245245601     
   3.3000000000000002E-002    0.51831555142772479     
   3.3300000000000003E-002    0.71059584289125943     
   3.3599999999999998E-002    0.87503045377050082     
   3.3900000000000000E-002     1.0005614708261825     
   3.4200000000000001E-002     1.0786091035076317     
   3.4500000000000003E-002     1.1039606276354756     
   3.4799999999999998E-002     1.0752303544353379     
   3.5099999999999999E-002    0.99495881266477404     
   3.5400000000000001E-002    0.86950551986319935     
   3.5699999999999996E-002    0.70848035404507037     
   3.6000000000000004E-002    0.52375667958234362     
   3.6299999999999999E-002    0.32858577123711807     
   3.6600000000000008E-002    0.13630406390198713     
   3.6900000000000002E-002    -4.0787727640525920E-002
   3.7199999999999997E-002   -0.19235023901487108     
   3.7500000000000006E-002   -0.31087183960421688     
   3.7800000000000000E-002   -0.39196780311943580     
   3.8100000000000009E-002   -0.43460714799914496     
   3.8400000000000004E-002   -0.44092959156861433     
   3.8699999999999998E-002   -0.41545680171267851     
   3.9000000000000007E-002   -0.36473739170645958     
   3.9300000000000002E-002   -0.29630050100951316     
   3.9600000000000003E-002   -0.21783095642033912     
   3.9900000000000005E-002   -0.13654372135153431     
   4.0200000000000000E-002    -5.8371141758557947E-002
   4.0500000000000001E-002     1.2226903925721136E-002
   4.0800000000000003E-002     7.2542861649871990E-002
   4.1100000000000005E-002    0.12155637252338580     
   4.1399999999999999E-002    0.15948781534048048     
   4.1700000000000008E-002    0.18751804749463255     
   4.2000000000000003E-002    0.20704917878058240     
   4.2299999999999997E-002    0.21935163746417555     
   4.2600000000000006E-002    0.22496337032978286     
   4.2900000000000001E-002    0.22326748418225542     
   4.3200000000000002E-002    0.21241060240011705     
   4.3500000000000004E-002    0.18917553448636509     
   4.3799999999999999E-002    0.14941077226011426     
   4.4100000000000000E-002     8.8335486819625969E-002
   4.4400000000000002E-002     1.2074381314998277E-003
   4.4700000000000004E-002   -0.11582403447729731     
   4.4999999999999998E-002   -0.26510345779674704     
   4.5300000000000000E-002   -0.44634672853072682     
   4.5600000000000002E-002   -0.65639883126839860     
   4.5899999999999996E-002   -0.88850956974828410     
   4.6200000000000005E-002    -1.1323423362763376     
   4.6500000000000000E-002    -1.3742201298925398     
   4.6799999999999994E-002    -1.5974938832104242     
   4.7100000000000003E-002    -1.7838690234995922     
   4.7399999999999998E-002    -1.9141317551777681     
   4.7700000000000006E-002    -1.9700410304767901     
   4.8000000000000001E-002    -1.9357906514322156     
   4.8300000000000010E-002    -1.7992758684240375     
   4.8600000000000004E-002    -1.5541087326299265     
   4.8899999999999999E-002    -1.1999987310593119     
   4.9200000000000008E-002   -0.74379372218939177     
   4.9500000000000002E-002   -0.19969257551067465     
   4.9800000000000011E-002    0.41151222476770655     
   5.0100000000000006E-002     1.0631025986849563     
   5.0400000000000000E-002     1.7242170494651383     
   5.0700000000000009E-002     2.3615457898221344     
   5.1000000000000004E-002     2.9413664192868474     
   5.1299999999999998E-002     3.4321951687198897     
   5.1600000000000007E-002     3.8064663206442635     
   5.1900000000000002E-002     4.0424809235656385     
   5.2200000000000010E-002     4.1259541284777486     
   5.2500000000000005E-002     4.0506424681491104     
   5.2800000000000000E-002     3.8186125548579133     
   5.3099999999999994E-002     3.4399764357193501     
   5.3400000000000003E-002     2.9318332527040183     
   5.3699999999999998E-002     2.3166499035212667     
   5.4000000000000006E-002     1.6210774127951222     
   5.4300000000000001E-002    0.87360233002609877     
   5.4599999999999996E-002    0.10302241558836020     
   5.4900000000000004E-002   -0.66325639828797700     
   5.5199999999999999E-002    -1.4001965399838414     
   5.5499999999999994E-002    -2.0863048877436388     
   5.5800000000000002E-002    -2.7036697689700833     
   5.6099999999999997E-002    -3.2386081031008866     
   5.6400000000000006E-002    -3.6802909180987906     
   5.6700000000000000E-002    -4.0215177344189454     
   5.6999999999999995E-002    -4.2569927984009377     
   5.7300000000000004E-002    -4.3830132308392820     
   5.7599999999999998E-002    -4.3978295161816883     
   5.7900000000000007E-002    -4.2998113478704596     
   5.8200000000000002E-002    -4.0893702364096605     
   5.8499999999999996E-002    -3.7678046092864661     
   5.8800000000000005E-002    -3.3383965366275037     
   5.9100000000000000E-002    -2.8076717735401067     
   5.9400000000000008E-002    -2.1845941433096705     
   5.9700000000000003E-002    -1.4829023975922957     
   6.0000000000000012E-002   -0.72048746664259700     
   6.0300000000000006E-002     8.0325461541834911E-002
   6.0600000000000001E-002    0.89261442907257404     
   6.0900000000000010E-002     1.6862422249272413     
   6.1200000000000004E-002     2.4285092343566315     
   6.1500000000000013E-002     3.0860137893566999     
   6.1800000000000008E-002     3.6266977703879495     
   6.2100000000000002E-002     4.0213713525344312     
   6.2399999999999997E-002     4.2466459118542650     
   6.2700000000000006E-002     4.2864785008521347     
   6.3000000000000000E-002     4.1337294369281468     
   6.3300000000000009E-002     3.7916753068557663     
   6.3600000000000004E-002     3.2740216027654809     
   6.3899999999999998E-002     2.6048736351749966     
   6.4199999999999993E-002     1.8181297577110651     
   6.4500000000000002E-002    0.95482270178419404     
   6.4800000000000010E-002     6.1036699881157459E-002
   6.5100000000000005E-002   -0.81450993721774245     
   6.5400000000000000E-002    -1.6246084015471580     
   6.5700000000000008E-002    -2.3251953113783523     
   6.5999999999999989E-002    -2.8799166618170204     
   6.6299999999999998E-002    -3.2611033810134034     
   6.6600000000000006E-002    -3.4516467903434935     
   6.6900000000000001E-002    -3.4472257919513027     
   6.7199999999999996E-002    -3.2537925057095824     
   6.7500000000000004E-002    -2.8893620781064744     
   6.7800000000000013E-002    -2.3810813255626906     
   6.8099999999999994E-002    -1.7626474953263043     
   6.8400000000000002E-002    -1.0743003985384165     
   6.8700000000000011E-002   -0.35684233464731113     
   6.8999999999999992E-002    0.34796699696630612     
   6.9300000000000000E-002     1.0014737759057624     
   6.9600000000000009E-002     1.5708079188239126     
   6.9900000000000004E-002     2.0281572132735604     
   7.0199999999999999E-002     2.3550488692803313     
   7.0500000000000007E-002     2.5406450938108245     
   7.0800000000000016E-002     2.5833658873237875     
   7.1099999999999997E-002     2.4905986497646193     
   7.1400000000000005E-002     2.2773499233139565     
   7.1700000000000000E-002     1.9657951391176720     
   7.1999999999999995E-002     1.5834935772487750     
   7.2300000000000003E-002     1.1617094231324623     
   7.2600000000000012E-002    0.73328090147823954     
   7.2900000000000006E-002    0.33066753892518341     
   7.3200000000000001E-002    -1.6860692551445563E-002
   7.3499999999999996E-002   -0.28423956165041298     
   7.3800000000000004E-002   -0.45402085415281340     
   7.4099999999999999E-002   -0.51672514646154388     
   7.4400000000000008E-002   -0.47143309661009697     
   7.4700000000000003E-002   -0.32732811152396146     
   7.5000000000000011E-002   -0.10152581352319684     
   7.5299999999999992E-002    0.18064529567050103     
   7.5600000000000001E-002    0.48885984864939719     
   7.5900000000000009E-002    0.78962011028445411     
   7.6200000000000004E-002     1.0488665119070630     
   7.6499999999999999E-002     1.2358095597670085     
   7.6800000000000007E-002     1.3244243761898302     
   7.7099999999999988E-002     1.2969996798960806     
   7.7399999999999997E-002     1.1448820686022270     
   7.7700000000000005E-002    0.87045286713640080     
   7.8000000000000014E-002    0.48605110094766801     
   7.8299999999999995E-002     1.3792352301807986E-002
   7.8600000000000003E-002   -0.51592612610294863     
   7.8900000000000012E-002    -1.0677908645787924     
   7.9199999999999993E-002    -1.6030825316671524     
   7.9500000000000001E-002    -2.0843925376376280     
   7.9800000000000010E-002    -2.4772057403783410     
   8.0100000000000018E-002    -2.7536167951109145     
   8.0399999999999999E-002    -2.8946850149859564     
   8.0700000000000008E-002    -2.8901169160556104     
   8.1000000000000003E-002    -2.7419094925143481     
   8.1299999999999997E-002    -2.4611616056799011     
   8.1600000000000006E-002    -2.0683546034209903     
   8.1900000000000014E-002    -1.5920755884520623     
   8.2199999999999995E-002    -1.0646859484929396     
   8.2500000000000004E-002   -0.52222920818150798     
   8.2799999999999999E-002     6.7702628627367973E-004
   8.3100000000000007E-002    0.47199944219349999     
   8.3400000000000002E-002    0.86419764271146426     
   8.3700000000000011E-002     1.1577558195790976     
   8.4000000000000005E-002     1.3397611033865151     
   8.4300000000000000E-002     1.4061858297445760     
   8.4599999999999995E-002     1.3604561929639218     
   8.4900000000000003E-002     1.2128691338950728     
   8.5199999999999998E-002    0.97957226613937398     
   8.5500000000000007E-002    0.68052879442625358     
   8.5800000000000001E-002    0.33838782802883455     
   8.6100000000000010E-002    -2.4780661372598232E-002
   8.6399999999999991E-002   -0.38727480544588044     
   8.6699999999999999E-002   -0.73018371609634836     
   8.7000000000000008E-002    -1.0381629342898933     
   8.7300000000000003E-002    -1.2995031875005680     
   8.7599999999999997E-002    -1.5076468926865305     
   8.7900000000000006E-002    -1.6577570138207516     
   8.8200000000000014E-002    -1.7499854240433088     
   8.8499999999999995E-002    -1.7855022818362001     
   8.8800000000000004E-002    -1.7659877227005503     
   8.9100000000000013E-002    -1.6945011340374956     
   8.9399999999999993E-002    -1.5700926553840826     
   8.9700000000000002E-002    -1.3926739525739269     
   9.0000000000000011E-002    -1.1579631464363769     
   9.0299999999999991E-002   -0.85934346506979220     
   9.0600000000000000E-002   -0.49033302238142923     
   9.0900000000000009E-002    -4.1679667935630001E-002
   9.1200000000000017E-002    0.49260984898554327     
   9.1499999999999998E-002     1.1168696766963471     
   9.1800000000000007E-002     1.8300539138497622     
   9.2100000000000001E-002     2.6233293901195638     
   9.2399999999999996E-002     3.4805736451052556     
   9.2700000000000005E-002     4.3750657968099436     
   9.3000000000000013E-002     5.2715501743058093     
   9.3300000000000008E-002     6.1262836437112371     
   9.3600000000000003E-002     6.8886165617117339     
   9.3899999999999997E-002     7.5047740944494565     
   9.4200000000000006E-002     7.9211502085912286     
   9.4500000000000001E-002     8.0881433491614114     
   9.4800000000000009E-002     7.9658350936989093     
   9.5100000000000004E-002     7.5265107131683715     
   9.5399999999999999E-002     6.7584004361282792     
   9.5699999999999993E-002     5.6688632909708803     
   9.6000000000000002E-002     4.2827110223672058     
   9.6300000000000011E-002     2.6448545384252089     
   9.6600000000000005E-002    0.81644659545513854     
   9.6900000000000000E-002    -1.1294151605447540     
   9.7200000000000009E-002    -3.1092832133612358     
   9.7499999999999989E-002    -5.0382008579424813     
   9.7799999999999998E-002    -6.8313984878027796     
   9.8100000000000007E-002    -8.4109716402807759     
   9.8400000000000015E-002    -9.7110586138096622     
   9.8699999999999996E-002    -10.679800029525929     
   9.9000000000000005E-002    -11.283051485936110     
   9.9300000000000013E-002    -11.504360193679505     
   9.9599999999999994E-002    -11.345427507475755     
   9.9900000000000003E-002    -10.825406068329864     
  0.10020000000000001         -9.9788694309429768     
  0.10049999999999999         -8.8519773392154573     
  0.10080000000000000         -7.5002508043592027     
  0.10110000000000001         -5.9855813819409160     
  0.10140000000000000         -4.3726506019819853     
  0.10170000000000000         -2.7265155042120170     
  0.10200000000000001         -1.1084534784069728     
  0.10230000000000002         0.42433417869664547     
  0.10260000000000000          1.8213391757413424     
  0.10290000000000001          3.0410669342337466     
  0.10320000000000000          4.0486832171371816     
  0.10350000000000001          4.8213444249841313     
  0.10380000000000000          5.3446217033878467     
  0.10410000000000001          5.6135387794641840     
  0.10440000000000001          5.6346025737680749     
  0.10470000000000000          5.4206361911931893     
  0.10500000000000000          4.9952888484734590     
  0.10530000000000000          4.3890576206275114     
  0.10560000000000000          3.6391250778830817     
  0.10590000000000001          2.7903034239630826     
  0.10620000000000000          1.8887777952690741     
  0.10650000000000001         0.98562126697533170     
  0.10679999999999999         0.13271869938768882     
  0.10710000000000000        -0.62020231866149045     
  0.10740000000000001         -1.2255608594229668     
  0.10770000000000000         -1.6424740080745313     
  0.10800000000000000         -1.8377508589803173     
  0.10830000000000001         -1.7891454096066182     
  0.10859999999999999         -1.4870166092676400     
  0.10890000000000000        -0.93576602328812497     
  0.10920000000000001        -0.15411448755647961     
  0.10950000000000001         0.82396445257482165     
  0.10979999999999999          1.9501966075117008     
  0.11009999999999999          3.1650493050423547     
  0.11040000000000001          4.3982148133156835     
  0.11070000000000001          5.5748534212413476     
  0.11100000000000000          6.6187276889219229     
  0.11130000000000000          7.4561534008256762     
  0.11160000000000002          8.0224847902044658     
  0.11190000000000001          8.2647409570984873     
  0.11220000000000001          8.1481838380865490     
  0.11250000000000000          7.6572833237585822     
  0.11280000000000000          6.7982578476095261     
  0.11309999999999999          5.6002459746593161     
  0.11340000000000001          4.1137590650414007     
  0.11369999999999998          2.4080107473749557     
  0.11400000000000000         0.56748637363011878     
  0.11430000000000000         -1.3130439228328470     
  0.11460000000000002         -3.1364960371558310     
  0.11489999999999999         -4.8079003987783961     
  0.11520000000000001         -6.2417068186794005     
  0.11550000000000001         -7.3690113740723682     
  0.11580000000000000         -8.1411351896080379     
  0.11609999999999999         -8.5348729851038829     
  0.11640000000000002         -8.5526475699207474     
  0.11670000000000001         -8.2228889288661264     
  0.11700000000000001         -7.5985331389247630     
  0.11730000000000000         -6.7509345889092769     
  0.11760000000000000         -5.7660059830938373     
  0.11789999999999999         -4.7352514183257162     
  0.11820000000000001         -3.7478411117684405     
  0.11850000000000001         -2.8840892229342816     
  0.11880000000000000         -2.2070531743102997     
  0.11910000000000000         -1.7585211865176380     
  0.11940000000000002         -1.5540736754598237     
  0.11970000000000001         -1.5819666189323280     
  0.12000000000000001         -1.8056649928096566     
  0.12030000000000000         -2.1665827960812232     
  0.12060000000000000         -2.5906190578744299     
  0.12089999999999999         -2.9957592180730885     
  0.12119999999999999         -3.2994184189082580     
  0.12150000000000001         -3.4281022263655587     
  0.12180000000000001         -3.3249032252713597     
  0.12210000000000000         -2.9541973882550829     
  0.12239999999999999         -2.3068230045229443     
  0.12270000000000002         -1.3997559534231987     
  0.12300000000000001        -0.27407036124823264     
  0.12330000000000001          1.0060100355729142     
  0.12360000000000000          2.3650490930045573     
  0.12390000000000000          3.7189380713814435     
  0.12419999999999999          4.9856218792287272     
  0.12450000000000001          6.0949706462643203     
  0.12480000000000001          6.9888114307331266     
  0.12509999999999999          7.6337394065209647     
  0.12540000000000001          8.0148505509718131     
  0.12570000000000003          8.1405963257076941     
  0.12600000000000000          8.0399131169811131     
  0.12630000000000002          7.7515696920785668     
  0.12659999999999999          7.3256678081697686     
  0.12690000000000001          6.8114471000971939     
  0.12719999999999998          6.2533549892304761     
  0.12750000000000000          5.6875433616119002     
  0.12780000000000002          5.1360792867745095     
  0.12809999999999999          4.6089072035336391     
  0.12840000000000001          4.1031985139561016     
  0.12869999999999998          3.6052160162551012     
  0.12900000000000000          3.0964834626914706     
  0.12930000000000003          2.5569663020172722     
  0.12959999999999999          1.9671993259764804     
  0.12990000000000002          1.3162708318672767     
  0.13019999999999998         0.59976125449241768     
  0.13050000000000000        -0.17951824269980882     
  0.13080000000000003         -1.0069564447545714     
  0.13109999999999999         -1.8646439148121463     
  0.13140000000000002         -2.7289285461964901     
  0.13169999999999998         -3.5737890963706449     
  0.13200000000000001         -4.3782911037465970     
  0.13229999999999997         -5.1204271020492333     
  0.13260000000000000         -5.7873062762097707     
  0.13290000000000002         -6.3684663420650471     
  0.13319999999999999         -6.8582348444003962     
  0.13350000000000001         -7.2587523058906935     
  0.13380000000000003         -7.5696429782339383     
  0.13410000000000000         -7.7943448577121446     
  0.13440000000000002         -7.9347300070818445     
  0.13469999999999999         -7.9893030646058190     
  0.13500000000000001         -7.9561624042976442     
  0.13529999999999998         -7.8290886386967795     
  0.13560000000000000         -7.6021303636070314     
  0.13590000000000002         -7.2667889102109964     
  0.13619999999999999         -6.8164677135132488     
  0.13650000000000001         -6.2479862696586927     
  0.13680000000000003         -5.5611166506385912     
  0.13710000000000000         -4.7610745013080296     
  0.13740000000000002         -3.8579275229387422     
  0.13769999999999999         -2.8678891327246010     
  0.13800000000000001         -1.8097035606900629     
  0.13829999999999998        -0.70612446280051755     
  0.13860000000000000         0.41959823678127894     
  0.13890000000000002          1.5458351453527461     
  0.13919999999999999          2.6508319380854610     
  0.13950000000000001          3.7180371207991962     
  0.13979999999999998          4.7322859604292207     
  0.14010000000000000          5.6819042910471129     
  0.14040000000000002          6.5590076108379556     
  0.14069999999999999          7.3522614999438689     
  0.14100000000000001          8.0551261374149430     
  0.14130000000000004          8.6569280005391356     
  0.14160000000000000          9.1447705514096764     
  0.14189999999999997          9.5090235881870679     
  0.14219999999999999          9.7342347252956163     
  0.14250000000000002          9.8113507336442840     
  0.14279999999999998          9.7326258706340862     
  0.14310000000000000          9.4933165600437714     
  0.14339999999999997          9.0984734615688012     
  0.14369999999999999          8.5554799209990406     
  0.14400000000000002          7.8788427549538103     
  0.14429999999999998          7.0870813646386726     
  0.14460000000000001          6.1986569764129635     
  0.14490000000000003          5.2337340798800547     
  0.14520000000000000          4.2079777288729945     
  0.14550000000000002          3.1341600063084911     
  0.14579999999999999          2.0213887406872080     
  0.14610000000000001         0.87487534506269360     
  0.14640000000000003        -0.30138869555696579     
  0.14670000000000000         -1.5003300972278519     
  0.14699999999999996         -2.7131226040842713     
  0.14729999999999999         -3.9234299536708832     
  0.14760000000000001         -5.1061587093811127     
  0.14789999999999998         -6.2344636557414974     
  0.14820000000000000         -7.2715830317162169     