  -1.4999999999999999E-002     0.0000000000000000     
  -1.4700000000000000E-002    -3.5963977274596709E-029
  -1.4400000000000000E-002    -2.2353069674857713E-023
  -1.4100000000000000E-002    -2.4024970050389542E-020
  -1.3800000000000000E-002    -1.3491991927244611E-018
  -1.3500000000000000E-002     1.8153358074005245E-017
  -1.3200000000000000E-002     4.0703883550519744E-016
  -1.2899999999999998E-002    -1.6588520743744993E-015
  -1.2600000000000000E-002    -1.4190495663813995E-014
  -1.2299999999999998E-002     3.2862773842983627E-014
  -1.2000000000000000E-002     1.9223526129754822E-013
  -1.1699999999999999E-002    -5.1333738290768358E-014
  -1.1399999999999999E-002    -2.0062014808196027E-012
  -1.1099999999999999E-002    -3.2001653289282721E-012
  -1.0799999999999999E-002     2.1482752549029866E-011
  -1.0499999999999999E-002     2.1590815881929835E-011
  -1.0199999999999999E-002    -1.6493740836201462E-010
  -9.8999999999999991E-003     9.4423511490960838E-011
  -9.5999999999999992E-003     4.6494166315429129E-010
  -9.2999999999999992E-003    -1.0475072569888047E-009
  -8.9999999999999993E-003     7.6921538653529413E-010
  -8.6999999999999994E-003     1.6040844263309612E-009
  -8.3999999999999995E-003    -5.4973042995038643E-009
  -8.0999999999999996E-003     4.5387090059654273E-009
  -7.7999999999999988E-003     4.6962580336311353E-009
  -7.4999999999999997E-003    -1.2191415739011932E-008
  -7.1999999999999998E-003     7.5378805164962919E-009
  -6.8999999999999981E-003     6.0468830616502080E-009
  -6.5999999999999982E-003    -6.6610666064424993E-009
  -6.3000000000000000E-003    -1.7441656777219325E-008
  -6.0000000000000001E-003     7.6762705133307259E-009
  -5.6999999999999985E-003     5.9798742601558520E-008
  -5.3999999999999986E-003    -6.0913535951476152E-008
  -5.1000000000000004E-003    -4.0011489622354957E-008
  -4.7999999999999987E-003     9.9657702386039801E-008
  -4.5000000000000005E-003    -3.9605620755089138E-008
  -4.1999999999999989E-003    -7.4093144599131543E-008
  -3.8999999999999990E-003     4.1058716828244465E-008
  -3.5999999999999990E-003     8.0747621168975864E-008
  -3.2999999999999991E-003     4.9294814979732093E-008
  -2.9999999999999992E-003    -4.3977119415514281E-008
  -2.6999999999999993E-003    -2.7402075289383606E-007
  -2.3999999999999994E-003    -2.9995935139537017E-007
  -2.0999999999999977E-003     1.0363944710042730E-006
  -1.7999999999999995E-003     1.1977111327136144E-006
  -1.4999999999999979E-003    -3.1402323463508286E-006
  -1.1999999999999997E-003    -3.7546996080243137E-006
  -8.9999999999999976E-004     6.8388804812586234E-006
  -5.9999999999999810E-004     1.1782642074627409E-005
  -2.9999999999999992E-004    -8.1992837750578165E-006
   0.0000000000000000         -3.4434454646867730E-005
   3.0000000000000165E-004    -7.5157457540997259E-006
   5.9999999999999984E-004     1.1648618071442964E-004
   9.0000000000000149E-004     2.9288818599555581E-004
   1.2000000000000031E-003     4.5122447792589446E-004
   1.5000000000000013E-003     6.2749657507261427E-004
   1.8000000000000030E-003     9.4586518637176952E-004
   2.1000000000000012E-003     1.5147460824110994E-003
   2.3999999999999994E-003     2.3919366432267161E-003
   2.7000000000000010E-003     3.6732834961457502E-003
   2.9999999999999992E-003     5.5773810876808020E-003
   3.3000000000000008E-003     8.3803355776767771E-003
   3.6000000000000025E-003     1.2410971109713145E-002
   3.9000000000000007E-003     1.8162935667965719E-002
   4.2000000000000023E-003     2.6267056870627227E-002
   4.5000000000000005E-003     3.7419780554651984E-002
   4.7999999999999987E-003     5.2482444159637404E-002
   5.1000000000000004E-003     7.2544492081412421E-002
   5.4000000000000020E-003     9.8789907263707566E-002
   5.7000000000000037E-003    0.13241422108660239     
   5.9999999999999984E-003    0.17465588402136414     
   6.3000000000000000E-003    0.22662785640342037     
   6.6000000000000017E-003    0.28903752624510298     
   6.9000000000000034E-003    0.36204999854778813     
   7.2000000000000015E-003    0.44502824880827030     
   7.5000000000000032E-003    0.53609669778771085     
   7.8000000000000014E-003    0.63185656953326208     
   8.0999999999999996E-003    0.72716273157712286     
   8.4000000000000012E-003    0.81478418688147614     
   8.7000000000000029E-003    0.88532593213244770     
   9.0000000000000011E-003    0.92742565299174151     
   9.2999999999999992E-003    0.92797730105538279     
   9.6000000000000009E-003    0.87254916086511902     
   9.8999999999999991E-003    0.74636434629943793     
   1.0200000000000001E-002    0.53561991095664374     
   1.0500000000000002E-002    0.22882291614404734     
   1.0800000000000004E-002   -0.18138049632075670     
   1.1099999999999999E-002   -0.69658792570786132     
   1.1400000000000000E-002    -1.3113668715338529     
   1.1700000000000002E-002    -2.0118241028143813     
   1.2000000000000004E-002    -2.7749028149084558     
   1.2300000000000002E-002    -3.5683822866479780     
   1.2600000000000000E-002    -4.3516564956547912     
   1.2900000000000002E-002    -5.0777112043292796     
   1.3200000000000000E-002    -5.6953989499819437     
   1.3500000000000002E-002    -6.1527473410548295     
   1.3800000000000003E-002    -6.4009177592919171     
   1.4100000000000001E-002    -6.3982875628287799     
   1.4400000000000000E-002    -6.1139638994620462     
   1.4700000000000001E-002    -5.5308163913153248     
   1.4999999999999999E-002    -4.6486709901696175     
   1.5300000000000001E-002    -3.4845252698689793     
   1.5600000000000003E-002    -2.0720601453079670     
   1.5899999999999997E-002   -0.46083565667957554     
   1.6199999999999999E-002     1.2873447645352478     
   1.6500000000000001E-002     3.1024133230581445     
   1.6800000000000002E-002     4.9106903003204954     
   1.7100000000000004E-002     6.6393152132783220     
   1.7400000000000006E-002     8.2209503065215692     
   1.7700000000000000E-002     9.5981352676830554     
   1.8000000000000002E-002     10.725903871840712     
   1.8300000000000004E-002     11.573234043583422     
   1.8600000000000005E-002     12.123209505037128     
   1.8900000000000000E-002     12.373258194167612     
   1.9200000000000002E-002     12.331744787018456     
   1.9500000000000003E-002     12.016050950884827     
   1.9799999999999998E-002     11.449630397986310     
   2.0100000000000000E-002     10.658729199396252     
   2.0400000000000001E-002     9.6701856579138070     
   2.0700000000000003E-002     8.5080581162751940     
   2.0999999999999998E-002     7.1943631000497694     
   2.1299999999999999E-002     5.7466706286389133     
   2.1600000000000001E-002     4.1802480746357169     
   2.1900000000000003E-002     2.5084156463108482     
   2.2200000000000004E-002    0.74416894581536630     
   2.2500000000000006E-002    -1.0953835851602185     
   2.2800000000000001E-002    -2.9904782356615249     
   2.3100000000000002E-002    -4.9140986009543361     
   2.3400000000000004E-002    -6.8314719227254495     
   2.3699999999999999E-002    -8.6996933418400673     
   2.4000000000000000E-002    -10.469370628863674     
   2.4300000000000002E-002    -12.086212051545075     
   2.4599999999999997E-002    -13.491445516657965     
   2.4900000000000005E-002    -14.630521800701308     
   2.5200000000000000E-002    -15.453164142603287     
   2.5499999999999995E-002    -15.917606373078755     
   2.5800000000000003E-002    -15.999296145686012     
   2.6099999999999998E-002    -15.689477778593789     
   2.6400000000000007E-002    -14.998789513215605     
   2.6700000000000002E-002    -13.958922907699419     
   2.6999999999999996E-002    -12.620864261371063     
   2.7300000000000005E-002    -11.052230047565295     
   2.7600000000000000E-002    -9.3352708719308950     
   2.7900000000000008E-002    -7.5592387405696719     
   2.8200000000000003E-002    -5.8158327858374417     
   2.8499999999999998E-002    -4.1947575272353088     
   2.8800000000000006E-002    -2.7743456305559140     
   2.9100000000000001E-002    -1.6187698392386900     
   2.9400000000000003E-002   -0.77061629621650096     
   2.9700000000000004E-002   -0.24794992387616419     
   3.0000000000000006E-002    -4.1060748832136819E-002
   3.0300000000000001E-002   -0.10710723524929118     
   3.0600000000000002E-002   -0.37486624592498646     
   3.0900000000000004E-002   -0.74290787626245947     
   3.1199999999999999E-002    -1.0821406717402173     
   3.1500000000000007E-002    -1.2451285200726694     
   3.1800000000000002E-002    -1.0733405369266025     
   3.2099999999999997E-002   -0.40996931276938681     
   3.2400000000000005E-002    0.88455304543159119     
   3.2700000000000000E-002     2.9187739034542859     
   3.3000000000000002E-002     5.7528350974790063     
   3.3300000000000003E-002     9.3813345756454201     
   3.3599999999999998E-002     13.724372053904871     
   3.3900000000000000E-002     18.620636847854414     
   3.4200000000000001E-002     23.827194729542327     
   3.4500000000000003E-002     29.029329370291933     
   3.4799999999999998E-002     33.855697180237691     
   3.5099999999999999E-002     37.907187399025425     
   3.5400000000000001E-002     40.786581364014957     
   3.5699999999999996E-002     42.128686709519400     
   3.6000000000000004E-002     41.643521640316330     
   3.6299999999999999E-002     39.143494646066273     
   3.6600000000000008E-002     34.566510118814016     
   3.6900000000000002E-002     27.993327127983335     
   3.7199999999999997E-002     19.653203262296486     
   3.7500000000000006E-002     9.9094312052871274     
   3.7800000000000000E-002   -0.76007318705507521     
   3.8100000000000009E-002    -11.794121615338698     
   3.8400000000000004E-002    -22.591022526462719     
   3.8699999999999998E-002    -32.548930355582854     
   3.9000000000000007E-002    -41.114454657363908     
   3.9300000000000002E-002    -47.820539210871829     
   3.9600000000000003E-002    -52.318394846014314     
   3.9900000000000005E-002    -54.403996326846141     
   4.0200000000000000E-002    -54.027443616718145     
   4.0500000000000001E-002    -51.290753166519501     
   4.0800000000000003E-002    -46.436829626682737     
   4.1100000000000005E-002    -39.826547146871604     
   4.1399999999999999E-002    -31.906698292278765     
   4.1700000000000008E-002    -23.173910826535174     
   4.2000000000000003E-002    -14.140427973072143     
   4.2299999999999997E-002    -5.2959953029929965     
   4.2600000000000006E-002     2.9240043826144340     
   4.2900000000000001E-002     10.161363414472238     
   4.3200000000000002E-002     16.150343329715920     
   4.3500000000000004E-002     20.730796951200073     
   4.3799999999999999E-002     23.842098251221742     
   4.4100000000000000E-002     25.517673507393962     
   4.4400000000000002E-002     25.870294691707262     
   4.4700000000000004E-002     25.072153403411225     
   4.4999999999999998E-002     23.337751952313617     
   4.5300000000000000E-002     20.900238888154835     
   4.5600000000000002E-002     17.994082647722344     
   4.5899999999999996E-002     14.839895736443662     
   4.6200000000000005E-002     11.634216109615480     
   4.6500000000000000E-002     8.5381326999715554     
   4.6799999999999994E-002     5.6788737605457760     
   4.7100000000000003E-002     3.1478294221118479     
   4.7399999999999998E-002     1.0015847593207576     
   4.7700000000000006E-002   -0.73031432163463217     
   4.8000000000000001E-002    -2.0439666916213399     
   4.8300000000000010E-002    -2.9540533262991633     
   4.8600000000000004E-002    -3.4896997916580759     
   4.8899999999999999E-002    -3.6938927128104622     
   4.9200000000000008E-002    -3.6136949588565530     
   4.9500000000000002E-002    -3.3048685773131847     
   4.9800000000000011E-002    -2.8276543089086110     
   5.0100000000000006E-002    -2.2394561911062474     
   5.0400000000000000E-002    -1.5981201702865164     
   5.0700000000000009E-002   -0.95870245794261666     
   5.1000000000000004E-002   -0.36706721666923520     
   5.1299999999999998E-002    0.13947307687432042     
   5.1600000000000007E-002    0.53223622102667945     
   5.1900000000000002E-002    0.79645596819187203     
   5.2200000000000010E-002    0.92748699940106027     
   5.2500000000000005E-002    0.93137226929702888     
   5.2800000000000000E-002    0.82177697387013693     
   5.3099999999999994E-002    0.61821078433844778     
   5.3400000000000003E-002    0.34505342804083539     
   5.3699999999999998E-002     2.4029442985693022E-002
   5.4000000000000006E-002   -0.32197640555517554     
   5.4300000000000001E-002   -0.67214490975878172     
   5.4599999999999996E-002    -1.0117621713832978     
   5.4900000000000004E-002    -1.3266667514525776     
   5.5199999999999999E-002    -1.6054629551644017     
   5.5499999999999994E-002    -1.8405507117852922     
   5.5800000000000002E-002    -2.0240963017312552     
   5.6099999999999997E-002    -2.1497729300723702     
   5.6400000000000006E-002    -2.2134809901688235     
   5.6700000000000000E-002    -2.2134676298522993     
   5.6999999999999995E-002    -2.1498990284347776     
   5.7300000000000004E-002    -2.0260524895120153     
   5.7599999999999998E-002    -1.8499794097917723     
   5.7900000000000007E-002    -1.6331718035729983     
   5.8200000000000002E-002    -1.3879493552458679     
   5.8499999999999996E-002    -1.1302073117264255     
   5.8800000000000005E-002   -0.87621094450020387     
   5.9100000000000000E-002   -0.63745560443783300     
   5.9400000000000008E-002   -0.42461829998778744     
   5.9700000000000003E-002   -0.24373037960156163     
   6.0000000000000012E-002    -9.5590276689833831E-002
   6.0300000000000006E-002     2.3090095274863665E-002
   6.0600000000000001E-002    0.11840989610161742     
   6.0900000000000010E-002    0.19780008442562216     
   6.1200000000000004E-002    0.26949106623964741     
   6.1500000000000013E-002    0.33920528866884864     
   6.1800000000000008E-002    0.40999298904577497     
   6.2100000000000002E-002    0.48207142640208062     
   6.2399999999999997E-002    0.55314880248522680     
   6.2700000000000006E-002    0.61807280293328182     
   6.3000000000000000E-002    0.67032628690656992     
   6.3300000000000009E-002    0.70800595921562426     
   6.3600000000000004E-002    0.72604268421403728     
   6.3899999999999998E-002    0.72331565646781260     
   6.4199999999999993E-002    0.70563030774223390     
   6.4500000000000002E-002    0.67563511096699558     
   6.4800000000000010E-002    0.64030684791870807     
   6.5100000000000005E-002    0.60695674239050168     
   6.5400000000000000E-002    0.58154817924296953     
   6.5700000000000008E-002    0.56878211605927786     
   6.5999999999999989E-002    0.56758060328125870     
   6.6299999999999998E-002    0.57898702061642771     
   6.6600000000000006E-002    0.59979833423951900     
   6.6900000000000001E-002    0.62268400897162035     
   6.7199999999999996E-002    0.64440006261269922     
   6.7500000000000004E-002    0.66129565191681472     
   6.7800000000000013E-002    0.66815006664511123     
   6.8099999999999994E-002    0.66395843167613333     
   6.8400000000000002E-002    0.65116954361166368     
   6.8700000000000011E-002    0.63009680333115892     
   6.8999999999999992E-002    0.60358472130744634     
   6.9300000000000000E-002    0.57305969599610596     
   6.9600000000000009E-002    0.53965063836348437     
   6.9900000000000004E-002    0.50232185702923682     
   7.0199999999999999E-002    0.45646105603171777     
   7.0500000000000007E-002    0.39944893909733858     
   7.0800000000000016E-002    0.32560569123117694     
   7.1099999999999997E-002    0.22922357299934462     
   7.1400000000000005E-002    0.10941106337724882     
   7.1700000000000000E-002    -3.5577026395810632E-002
   7.1999999999999995E-002   -0.20317213447818153     
   7.2300000000000003E-002   -0.38538913491233590     
   7.2600000000000012E-002   -0.57390530073707358     
   7.2900000000000006E-002   -0.75732243678264088     
   7.3200000000000001E-002   -0.92226451707986501     
   7.3499999999999996E-002    -1.0581980905961210     
   7.3800000000000004E-002    -1.1553858455501638     
   7.4099999999999999E-002    -1.2068819941795319     
   7.4400000000000008E-002    -1.2123224710980562     
   7.4700000000000003E-002    -1.1728802958251490     
   7.5000000000000011E-002    -1.0958736062997252     
   7.5299999999999992E-002   -0.99019606997185505     
   7.5600000000000001E-002   -0.86644670291335879     
   7.5900000000000009E-002   -0.73740461971363025     
   7.6200000000000004E-002   -0.61180416460765674     
   7.6499999999999999E-002   -0.49653691600279837     
   7.6800000000000007E-002   -0.39705967822983113     
   7.7099999999999988E-002   -0.31303881494845209     
   7.7399999999999997E-002   -0.24125238353488440     
   7.7700000000000005E-002   -0.17730387232022385     
   7.8000000000000014E-002   -0.11484868176162639     
   7.8299999999999995E-002    -4.6953057732133076E-002
   7.8600000000000003E-002     2.8551672516415567E-002
   7.8900000000000012E-002    0.11406877034461922     
   7.9199999999999993E-002    0.20758042086615702     
   7.9500000000000001E-002    0.30165987510786713     
   7.9800000000000010E-002    0.38912842451804935     
   8.0100000000000018E-002    0.45756270575512920     
   8.0399999999999999E-002    0.49723437851706670     
   8.0700000000000008E-002    0.50002463677504849     
   8.1000000000000003E-002    0.45761351022300872     
   8.1299999999999997E-002    0.37244169068861488     
   8.1600000000000006E-002    0.24926446792249116     
   8.1900000000000014E-002     9.8065776943594293E-002
   8.2199999999999995E-002    -6.1000236121154142E-002
   8.2500000000000004E-002   -0.20868538527669797     
   8.2799999999999999E-002   -0.32197946482769996     
   8.3100000000000007E-002   -0.37768057355462287     
   8.3400000000000002E-002   -0.35878823378587660     
   8.3700000000000011E-002   -0.25353112797942190     
   8.4000000000000005E-002    -5.8952973111109322E-002
   8.4300000000000000E-002    0.21543794806174735     
   8.4599999999999995E-002    0.55273850270484282     
   8.4900000000000003E-002    0.92373773795613623     
   8.5199999999999998E-002     1.2917150094485750     
   8.5500000000000007E-002     1.6188421736731196     
   8.5800000000000001E-002     1.8628293244329071     
   8.6100000000000010E-002     1.9890672689753071     
   8.6399999999999991E-002     1.9722901992403818     
   8.6699999999999999E-002     1.7964690007694295     
   8.7000000000000008E-002     1.4638505322900768     
   8.7300000000000003E-002    0.99175477127670464     
   8.7599999999999997E-002    0.41063527887007734     
   8.7900000000000006E-002   -0.23545540789217831     
   8.8200000000000014E-002   -0.89446688297245169     
   8.8499999999999995E-002    -1.5124271469895867     
   8.8800000000000004E-002    -2.0376454499005674     
   8.9100000000000013E-002    -2.4261839954664994     
   8.9399999999999993E-002    -2.6476669499174319     
   8.9700000000000002E-002    -2.6845750816570502     
   9.0000000000000011E-002    -2.5384769469010044     
   9.0299999999999991E-002    -2.2243833783014306     
   9.0600000000000000E-002    -1.7702156925426580     
   9.0900000000000009E-002    -1.2179689327718979     
   9.1200000000000017E-002   -0.60883807002341572     
   9.1499999999999998E-002     1.1221420290851667E-002
   9.1800000000000007E-002    0.59734751720387025     
   9.2100000000000001E-002     1.1166001883154191     
   9.2399999999999996E-002     1.5407768455225672     
   9.2700000000000005E-002     1.8507598371208842     
   9.3000000000000013E-002     2.0400455807698621     
   9.3300000000000008E-002     2.1091175892767668     
   9.3600000000000003E-002     2.0653730358220712     
   9.3899999999999997E-002     1.9229533582469851     
   9.4200000000000006E-002     1.6994663629730078     
   9.4500000000000001E-002     1.4154670667408833     
   9.4800000000000009E-002     1.0896540406622690     
   9.5100000000000004E-002    0.74178753446963142     
   9.5399999999999999E-002    0.39381454228323753     
   9.5699999999999993E-002     6.0626173470548814E-002
   9.6000000000000002E-002   -0.24443606356055370     
   9.6300000000000011E-002   -0.50617312765103561     
   9.6600000000000005E-002   -0.71813981194274068     
   9.6900000000000000E-002   -0.87630574007043671     
   9.7200000000000009E-002   -0.97863994350778527     
   9.7499999999999989E-002    -1.0292305248411200     
   9.7799999999999998E-002    -1.0341834435121171     
   9.8100000000000007E-002    -1.0028835089140256     
   9.8400000000000015E-002   -0.94662717055080003     
   9.8699999999999996E-002   -0.87570475232465961     
   9.9000000000000005E-002   -0.80132436963139009     
   9.9300000000000013E-002   -0.73213930426550111     
   9.9599999999999994E-002   -0.67186477327481797     
   9.9900000000000003E-002   -0.62499246250078144     
  0.10020000000000001        -0.59066460145994837     
  0.10049999999999999        -0.56362155804701564     
  0.10080000000000000        -0.54111484277453514     
  0.10110000000000001        -0.51575550740111631     
  0.10140000000000000        -0.48209133694466810     
  0.10170000000000000        -0.43752312166153234     
  0.10200000000000001        -0.37723811572659566     
  0.10230000000000002        -0.30193250092660218     
  0.10260000000000000        -0.21294557864333438     
  0.10290000000000001        -0.11277402361985563     
  0.10320000000000000         -5.8156068559537272E-003
  0.10350000000000001         0.10450576947958078     
  0.10380000000000000         0.21386796668299518     
  0.10410000000000001         0.31778056364697566     
  0.10440000000000001         0.41396097770722567     
  0.10470000000000000         0.50003697334465769     
  0.10500000000000000         0.57189907857736133     
  0.10530000000000000         0.62865438524200612     
  0.10560000000000000         0.66826805014400958     
  0.10590000000000001         0.68579485547165620     
  0.10620000000000000         0.68088110631369447     
  0.10650000000000001         0.65102001099268214     
  0.10679999999999999         0.59416647488126162     
  0.10710000000000000         0.51068486108844846     
  0.10740000000000001         0.40188191285446595     
  0.10770000000000000         0.27206168126209279     
  0.10800000000000000         0.12514105581760132     
  0.10830000000000001         -3.2114213849100584E-002
  0.10859999999999999        -0.19083297876652686     
  0.10890000000000000        -0.34366024583409732     
  0.10920000000000001        -0.48409061090176431     
  0.10950000000000001        -0.60276867826675207     
  0.10979999999999999        -0.69469716437623352     
  0.11009999999999999        -0.75767835597316513     
  0.11040000000000001        -0.78602066542888138     
  0.11070000000000001        -0.77992233690242274     
  0.11100000000000000        -0.74154266747845110     
  0.11130000000000000        -0.67021682749252842     
  0.11160000000000002        -0.57006689453168102     
  0.11190000000000001        -0.44315447498214888     
  0.11220000000000001        -0.29452846980713582     
  0.11250000000000000        -0.12931580219085981     
  0.11280000000000000          4.9690080323069610E-002
  0.11309999999999999         0.23429878446652269     
  0.11340000000000001         0.41853220269294095     
  0.11369999999999998         0.59809865059597733     
  0.11400000000000000         0.76459850832641674     
  0.11430000000000000         0.91350390870768228     
  0.11460000000000002          1.0407660272731001     
  0.11489999999999999          1.1420220433097792     
  0.11520000000000001          1.2172024571636917     
  0.11550000000000001          1.2657783373420706     
  0.11580000000000000          1.2893270614247834     
  0.11609999999999999          1.2919805419247807     
  0.11640000000000002          1.2756942881431308     
  0.11670000000000001          1.2436743146619595     
  0.11700000000000001          1.2007739886905613     
  0.11730000000000000          1.1469445544499675     
  0.11760000000000000          1.0828959026223373     
  0.11789999999999999          1.0088786117372832     
  0.11820000000000001         0.92202486460661448     
  0.11850000000000001         0.81970138733952369     
  0.11880000000000000         0.70001835539294532     
  0.11910000000000000         0.55977345022871405     
  0.11940000000000002         0.39785441910938729     
  0.11970000000000001         0.21413931032085368     
  0.12000000000000001          8.9092198729781077E-003
  0.12030000000000000        -0.21450358057686439     
  0.12060000000000000        -0.45379687687630604     
  0.12089999999999999        -0.70377667525006038     
  0.12119999999999999        -0.95709284457890365     
  0.12150000000000001         -1.2098640486545624     
  0.12180000000000001         -1.4538336136093872     
  0.12210000000000000         -1.6801129969930400     
  0.12239999999999999         -1.8827621176963374     
  0.12270000000000002         -2.0520959367227927     
  0.12300000000000001         -2.1800325404150600     
  0.12330000000000001         -2.2581754223538102     
  0.12360000000000000         -2.2791429054799073     
  0.12390000000000000         -2.2383971684246076     
  0.12419999999999999         -2.1322138749627029     
  0.12450000000000001         -1.9586944988457768     
  0.12480000000000001         -1.7227180369516142     
  0.12509999999999999         -1.4308821279653530     
  0.12540000000000001         -1.0915318991592240     
  0.12570000000000003        -0.72004940125965977     
  0.12600000000000000        -0.33155379978628907     
  0.12630000000000002          5.7569469407283962E-002
  0.12659999999999999         0.42862302569220673     
  0.12690000000000001         0.76760514117567513     
  0.12719999999999998          1.0584858917498330     
  0.12750000000000000          1.2916142117545468     
  0.12780000000000002          1.4616128671360102     
  0.12809999999999999          1.5619611096015960     
  0.12840000000000001          1.5965251336301418     
  0.12869999999999998          1.5698434746531873     
  0.12900000000000000          1.4871984159345519     
  0.12930000000000003          1.3604190945764523     
  0.12959999999999999          1.1999961670188946     
  0.12990000000000002          1.0177509043367552     
  0.13019999999999998         0.82632479621366617     
  0.13050000000000000         0.63646319048558042     
  0.13080000000000003         0.46003003472425646     
  0.13109999999999999         0.30582762379153994     
  0.13140000000000002         0.17916025080464332     
  0.13169999999999998          8.5697933807546756E-002
  0.13200000000000001          2.7387054730083921E-002
  0.13229999999999997          1.4791799016070052E-003
  0.13260000000000000          3.7801789074904365E-003
  0.13290000000000002          2.7978040134034345E-002
  0.13319999999999999          6.4000440447047044E-002
  0.13350000000000001         0.10183328692789746     
  0.13380000000000003         0.12989737241117050     
  0.13410000000000000         0.13809502163340137     
  0.13440000000000002         0.11900052405574355     
  0.13469999999999999          6.4950071428061099E-002
  0.13500000000000001         -2.5310950841201104E-002
  0.13529999999999998        -0.14911952281092242     
  0.13560000000000000        -0.30453129992998818     
  0.13590000000000002        -0.48112936901898729     
  0.13619999999999999        -0.66827012893360860     
  0.13650000000000001        -0.85649020968741141     
  0.13680000000000003         -1.0315616259015210     
  0.13710000000000000         -1.1830375307870211     
  0.13740000000000002         -1.3013056617143659     
  0.13769999999999999         -1.3782906627595133     
  0.13800000000000001         -1.4103347148633794     
  0.13829999999999998         -1.3931338857977702     
  0.13860000000000000         -1.3274747183091204     
  0.13890000000000002         -1.2156753555090607     
  0.13919999999999999         -1.0585154267455321     
  0.13950000000000001        -0.86185657174333652     
  0.13979999999999998        -0.63042192256920804     
  0.14010000000000000        -0.36843798600039473     
  0.14040000000000002         -8.2826612352633333E-002
  0.14069999999999999         0.21875747891595243     
  0.14100000000000001         0.52891901214354309     
  0.14130000000000004         0.83906975533908434     
  0.14160000000000000          1.1392675940012587     
  0.14189999999999997          1.4197970905105926     
  0.14219999999999999          1.6692533739073430     
  0.14250000000000002          1.8787762135875734     
  0.14279999999999998          2.0400431329738336     
  0.14310000000000000          2.1446302081650583     
  0.14339999999999997          2.1892876746991865     
  0.14369999999999999          2.1717169390853872     
  0.14400000000000002          2.0921139814889327     
  0.14429999999999998          1.9554003566184479     
  0.14460000000000001          1.7658530556250598     
  0.14490000000000003          1.5334580017667372     
  0.14520000000000000          1.2679786736173679     
  0.14550000000000002         0.97876161659403527     
  0.14579999999999999         0.67883598875323536     
  0.14610000000000001         0.37973066941309103     
  0.14640000000000003          9.1142388884020528E-002
  0.14670000000000000        -0.17576334579239086     
  0.14699999999999996        -0.41280648927754410     
  0.14729999999999999        -0.61379105690337021     
  0.14760000000000001        -0.77347702575135480     
  0.14789999999999998        -0.89075118927601049     
  0.14820000000000000        -0.96622980047490870     