  -1.4999999999999999E-002     0.0000000000000000     
  -1.4700000000000000E-002     0.0000000000000000     
  -1.4400000000000000E-002     0.0000000000000000     
  -1.4100000000000000E-002     0.0000000000000000     
  -1.3800000000000000E-002     0.0000000000000000     
  -1.3500000000000000E-002     0.0000000000000000     
  -1.3200000000000000E-002     0.0000000000000000     
  -1.2899999999999998E-002     0.0000000000000000     
  -1.2600000000000000E-002     0.0000000000000000     
  -1.2299999999999998E-002     0.0000000000000000     
  -1.2000000000000000E-002     0.0000000000000000     
  -1.1699999999999999E-002     0.0000000000000000     
  -1.1399999999999999E-002     0.0000000000000000     
  -1.1099999999999999E-002     0.0000000000000000     
  -1.0799999999999999E-002     0.0000000000000000     
  -1.0499999999999999E-002     0.0000000000000000     
  -1.0199999999999999E-002     0.0000000000000000     
  -9.8999999999999991E-003     0.0000000000000000     
  -9.5999999999999992E-003     0.0000000000000000     
  -9.2999999999999992E-003     0.0000000000000000     
  -8.9999999999999993E-003     0.0000000000000000     
  -8.6999999999999994E-003     0.0000000000000000     
  -8.3999999999999995E-003     0.0000000000000000     
  -8.0999999999999996E-003     0.0000000000000000     
  -7.7999999999999988E-003     0.0000000000000000     
  -7.4999999999999997E-003     0.0000000000000000     
  -7.1999999999999998E-003     0.0000000000000000     
  -6.8999999999999981E-003     0.0000000000000000     
  -6.5999999999999982E-003     0.0000000000000000     
  -6.3000000000000000E-003     0.0000000000000000     
  -6.0000000000000001E-003     0.0000000000000000     
  -5.6999999999999985E-003     0.0000000000000000     
  -5.3999999999999986E-003     0.0000000000000000     
  -5.1000000000000004E-003     0.0000000000000000     
  -4.7999999999999987E-003     0.0000000000000000     
  -4.5000000000000005E-003     0.0000000000000000     
  -4.1999999999999989E-003     0.0000000000000000     
  -3.8999999999999990E-003     0.0000000000000000     
  -3.5999999999999990E-003     0.0000000000000000     
  -3.2999999999999991E-003     0.0000000000000000     
  -2.9999999999999992E-003     0.0000000000000000     
  -2.6999999999999993E-003     0.0000000000000000     
  -2.3999999999999994E-003     0.0000000000000000     
  -2.0999999999999977E-003     0.0000000000000000     
  -1.7999999999999995E-003     0.0000000000000000     
  -1.4999999999999979E-003     0.0000000000000000     
  -1.1999999999999997E-003     0.0000000000000000     
  -8.9999999999999976E-004     0.0000000000000000     
  -5.9999999999999810E-004     0.0000000000000000     
  -2.9999999999999992E-004     0.0000000000000000     
   0.0000000000000000          0.0000000000000000     
   3.0000000000000165E-004     0.0000000000000000     
   5.9999999999999984E-004     0.0000000000000000     
   9.0000000000000149E-004     0.0000000000000000     
   1.2000000000000031E-003     0.0000000000000000     
   1.5000000000000013E-003     0.0000000000000000     
   1.8000000000000030E-003     0.0000000000000000     
   2.1000000000000012E-003     0.0000000000000000     
   2.3999999999999994E-003     0.0000000000000000     
   2.7000000000000010E-003     0.0000000000000000     
   2.9999999999999992E-003     0.0000000000000000     
   3.3000000000000008E-003     0.0000000000000000     
   3.6000000000000025E-003     0.0000000000000000     
   3.9000000000000007E-003     0.0000000000000000     
   4.2000000000000023E-003     0.0000000000000000     
   4.5000000000000005E-003     0.0000000000000000     
   4.7999999999999987E-003     0.0000000000000000     
   5.1000000000000004E-003     0.0000000000000000     
   5.4000000000000020E-003     0.0000000000000000     
   5.7000000000000037E-003     0.0000000000000000     
   5.9999999999999984E-003     0.0000000000000000     
   6.3000000000000000E-003     0.0000000000000000     
   6.6000000000000017E-003     0.0000000000000000     
   6.9000000000000034E-003     0.0000000000000000     
   7.2000000000000015E-003     0.0000000000000000     
   7.5000000000000032E-003     0.0000000000000000     
   7.8000000000000014E-003     0.0000000000000000     
   8.0999999999999996E-003     0.0000000000000000     
   8.4000000000000012E-003     0.0000000000000000     
   8.7000000000000029E-003     0.0000000000000000     
   9.0000000000000011E-003     0.0000000000000000     
   9.2999999999999992E-003     0.0000000000000000     
   9.6000000000000009E-003     0.0000000000000000     
   9.8999999999999991E-003     0.0000000000000000     
   1.0200000000000001E-002     0.0000000000000000     
   1.0500000000000002E-002     0.0000000000000000     
   1.0800000000000004E-002     0.0000000000000000     
   1.1099999999999999E-002     1.0659380694501833E-041
   1.1400000000000000E-002     3.3419508530294431E-041
   1.1700000000000002E-002     1.7630964335797318E-038
   1.2000000000000004E-002     1.0999774560004442E-036
   1.2300000000000002E-002     7.6232206585574015E-037
   1.2600000000000000E-002    -2.2027090607551533E-035
   1.2900000000000002E-002     5.7261800060742314E-035
   1.3200000000000000E-002     1.0955947679500837E-033
   1.3500000000000002E-002    -7.5574806112768067E-033
   1.3800000000000003E-002    -7.5892581016166049E-033
   1.4100000000000001E-002     1.9577379929514802E-031
   1.4400000000000000E-002    -4.6535476958430892E-031
   1.4700000000000001E-002    -1.6545199484945990E-030
   1.4999999999999999E-002     1.2248606064780226E-029
   1.5300000000000001E-002    -3.2794149071936275E-029
   1.5600000000000003E-002     3.5215775132636610E-029
   1.5899999999999997E-002     2.9030333577532095E-028
   1.6199999999999999E-002    -2.8888524649954254E-027
   1.6500000000000001E-002     1.2409379785531151E-026
   1.6800000000000002E-002    -1.7191334946271660E-026
   1.7100000000000004E-002    -1.1495594467620211E-025
   1.7400000000000006E-002     8.7312700863488215E-025
   1.7700000000000000E-002    -2.8769350814575860E-024
   1.8000000000000002E-002     2.9291944997759423E-024
   1.8300000000000004E-002     2.0744226217340249E-023
   1.8600000000000005E-002    -1.3434416563146745E-022
   1.8900000000000000E-002     4.8752469177626710E-022
   1.9200000000000002E-002    -1.8114712203410157E-021
   1.9500000000000003E-002     1.0101924512006388E-020
   1.9799999999999998E-002    -6.4314250562896136E-020
   2.0100000000000000E-002     3.6145709967380620E-019
   2.0400000000000001E-002    -1.7393732813264467E-018
   2.0700000000000003E-002     7.4034356654460927E-018
   2.0999999999999998E-002    -2.9068896665409973E-017
   2.1299999999999999E-002     1.0993867320414218E-016
   2.1600000000000001E-002    -4.1689356231670206E-016
   2.1900000000000003E-002     1.6272347659361327E-015
   2.2200000000000004E-002    -6.5387702868818493E-015
   2.2500000000000006E-002     2.6340730106658039E-014
   2.2800000000000001E-002    -1.0196564953806539E-013
   2.3100000000000002E-002     3.6067972614552285E-013
   2.3400000000000004E-002    -1.0913314580144576E-012
   2.3699999999999999E-002     2.4818343859383911E-012
   2.4000000000000000E-002    -2.3195149763001237E-012
   2.4300000000000002E-002    -1.2540602811492290E-011
   2.4599999999999997E-002     8.1047144789712588E-011
   2.4900000000000005E-002    -2.4625165873312978E-010
   2.5200000000000000E-002     3.4029962261609695E-010
   2.5499999999999995E-002     5.3173184266874502E-010
   2.5800000000000003E-002    -3.7494175130182620E-009
   2.6099999999999998E-002     6.7424265488690079E-009
   2.6400000000000007E-002     4.6843607691348837E-009
   2.6700000000000002E-002    -4.0638772313581461E-008
   2.6999999999999996E-002     3.9471408860382981E-008
   2.7300000000000005E-002     1.1436509240622268E-007
   2.7600000000000000E-002    -2.3084517978265893E-007
   2.7900000000000008E-002    -2.8125619997371778E-007
   2.8200000000000003E-002     6.8467649306026147E-007
   2.8499999999999998E-002     8.4991280725336840E-007
   2.8800000000000006E-002    -1.5103952435720884E-006
   2.9100000000000001E-002    -3.3197616555432601E-006
   2.9400000000000003E-002     1.8895993173163107E-006
   2.9700000000000004E-002     1.7173683660423147E-005
   3.0000000000000006E-002     3.9377701298495214E-005
   3.0300000000000001E-002     6.5660667272888031E-005
   3.0600000000000002E-002     1.0032375482248182E-004
   3.0900000000000004E-002     1.5436024618531051E-004
   3.1199999999999999E-002     2.4287779300997096E-004
   3.1500000000000007E-002     3.8357625548275014E-004
   3.1800000000000002E-002     5.9752853725749723E-004
   3.2099999999999997E-002     9.1424000712979282E-004
   3.2400000000000005E-002     1.3768014597159363E-003
   3.2700000000000000E-002     2.0458590915977924E-003
   3.3000000000000002E-002     3.0037570144436304E-003
   3.3300000000000003E-002     4.3564757722691222E-003
   3.3599999999999998E-002     6.2350446529753252E-003
   3.3900000000000000E-002     8.7987744928086937E-003
   3.4200000000000001E-002     1.2238868976238554E-002
   3.4500000000000003E-002     1.6778847014257203E-002
   3.4799999999999998E-002     2.2665674088531498E-002
   3.5099999999999999E-002     3.0155057732325997E-002
   3.5400000000000001E-002     3.9495224615461108E-002
   3.5699999999999996E-002     5.0902799451190479E-002
   3.6000000000000004E-002     6.4524497207275558E-002
   3.6299999999999999E-002     8.0386441122111282E-002
   3.6600000000000008E-002     9.8341373884312785E-002
   3.6900000000000002E-002    0.11801087434910260     
   3.7199999999999997E-002    0.13872774961377382     
   3.7500000000000006E-002    0.15947763532708586     
   3.7800000000000000E-002    0.17886304637892109     
   3.8100000000000009E-002    0.19508783614782538     
   3.8400000000000004E-002    0.20598206577074568     
   3.8699999999999998E-002    0.20906034925487832     
   3.9000000000000007E-002    0.20163011131253986     
   3.9300000000000002E-002    0.18097734209853830     
   3.9600000000000003E-002    0.14458225627656340     
   3.9900000000000005E-002     9.0380122840953814E-002
   4.0200000000000000E-002     1.7075944870536024E-002
   4.0500000000000001E-002    -7.5598971362704631E-002
   4.0800000000000003E-002   -0.18658274207583189     
   4.1100000000000005E-002   -0.31329442915452432     
   4.1399999999999999E-002   -0.45151782840575860     
   4.1700000000000008E-002   -0.59539553729914696     
   4.2000000000000003E-002   -0.73761950333766613     
   4.2299999999999997E-002   -0.86972564695404486     
   4.2600000000000006E-002   -0.98256217153608083     
   4.2900000000000001E-002    -1.0669116689370746     
   4.3200000000000002E-002    -1.1141454635840025     
   4.3500000000000004E-002    -1.1169494362860450     
   4.3799999999999999E-002    -1.0700405354992302     
   4.4100000000000000E-002   -0.97072302260221810     
   4.4400000000000002E-002   -0.81934533410113686     
   4.4700000000000004E-002   -0.61950216970208616     
   4.4999999999999998E-002   -0.37799078481843362     
   4.5300000000000000E-002   -0.10454094865391070     
   4.5600000000000002E-002    0.18875709513685249     
   4.5899999999999996E-002    0.48815188785098584     
   4.6200000000000005E-002    0.77921021033485616     
   4.6500000000000000E-002     1.0476946341249611     
   4.6799999999999994E-002     1.2805746087443430     
   4.7100000000000003E-002     1.4669030895541317     
   4.7399999999999998E-002     1.5984248902421818     
   4.7700000000000006E-002     1.6701429647523884     
   4.8000000000000001E-002     1.6805117647936307     
   4.8300000000000010E-002     1.6313310515330104     
   4.8600000000000004E-002     1.5275466467702810     
   4.8899999999999999E-002     1.3767009331897446     
   4.9200000000000008E-002     1.1882406947474662     
   4.9500000000000002E-002    0.97289790686623889     
   4.9800000000000011E-002    0.74178627099553118     
   5.0100000000000006E-002    0.50572328742859263     
   5.0400000000000000E-002    0.27470328531450988     
   5.0700000000000009E-002     5.7223545930539951E-002
   5.1000000000000004E-002   -0.13997441688519360     
   5.1299999999999998E-002   -0.31196135114804630     
   5.1600000000000007E-002   -0.45592940957376604     
   5.1900000000000002E-002   -0.57073150852036414     
   5.2200000000000010E-002   -0.65687657157028090     
   5.2500000000000005E-002   -0.71623605931417533     
   5.2800000000000000E-002   -0.75145494943823310     
   5.3099999999999994E-002   -0.76596479447889121     
   5.3400000000000003E-002   -0.76333639796643382     
   5.3699999999999998E-002   -0.74713274279851349     
   5.4000000000000006E-002   -0.72077931176942278     
   5.4300000000000001E-002   -0.68710518160634226     
   5.4599999999999996E-002   -0.64855869591317861     
   5.4900000000000004E-002   -0.60702278257632014     
   5.5199999999999999E-002   -0.56377523674726593     
   5.5499999999999994E-002   -0.51972078650567355     
   5.5800000000000002E-002   -0.47529828039133548     
   5.6099999999999997E-002   -0.43070490356634239     
   5.6400000000000006E-002   -0.38604946230040438     
   5.6700000000000000E-002   -0.34130589396083144     
   5.6999999999999995E-002   -0.29657704375519789     
   5.7300000000000004E-002   -0.25217527653714228     
   5.7599999999999998E-002   -0.20852001903511888     
   5.7900000000000007E-002   -0.16641077502380436     
   5.8200000000000002E-002   -0.12683508875914890     
   5.8499999999999996E-002    -9.0917049201335920E-002
   5.8800000000000005E-002    -6.0040766585530397E-002
   5.9100000000000000E-002    -3.5410406282247481E-002
   5.9400000000000008E-002    -1.8142534684922312E-002
   5.9700000000000003E-002    -9.0584272138795018E-003
   6.0000000000000012E-002    -8.3457136589616503E-003
   6.0300000000000006E-002    -1.5712364755307125E-002
   6.0600000000000001E-002    -3.0023631163023770E-002
   6.0900000000000010E-002    -4.9348523859999410E-002
   6.1200000000000004E-002    -7.1131879270591808E-002
   6.1500000000000013E-002    -9.2052522119989127E-002
   6.1800000000000008E-002   -0.10848769707105782     
   6.2100000000000002E-002   -0.11668808881324322     
   6.2399999999999997E-002   -0.11300759755407458     
   6.2700000000000006E-002    -9.4538543600534916E-002
   6.3000000000000000E-002    -5.9179542914424343E-002
   6.3300000000000009E-002    -6.0594365064145748E-003
   6.3600000000000004E-002     6.4192367313649884E-002
   6.3899999999999998E-002    0.14959596254457588     
   6.4199999999999993E-002    0.24659142142628432     
   6.4500000000000002E-002    0.35038059139350236     
   6.4800000000000010E-002    0.45530662603355909     
   6.5100000000000005E-002    0.55497589349545440     
   6.5400000000000000E-002    0.64305626177131747     
   6.5700000000000008E-002    0.71359960716662330     
   6.5999999999999989E-002    0.76140313891937894     
   6.6299999999999998E-002    0.78268829787088168     
   6.6600000000000006E-002    0.77500304539721276     
   6.6900000000000001E-002    0.73763075069622031     
   6.7199999999999996E-002    0.67162668837757411     
   6.7500000000000004E-002    0.57944520488699580     
   6.7800000000000013E-002    0.46510808541591819     
   6.8099999999999994E-002    0.33359358102542097     
   6.8400000000000002E-002    0.19056620625522275     
   6.8700000000000011E-002     4.2265242032460286E-002
   6.8999999999999992E-002   -0.10528901675507336     
   6.9300000000000000E-002   -0.24616961051411179     
   6.9600000000000009E-002   -0.37503611525141456     
   6.9900000000000004E-002   -0.48734286594226284     
   7.0199999999999999E-002   -0.57923739675720320     
   7.0500000000000007E-002   -0.64799747063274915     
   7.0800000000000016E-002   -0.69170381013490789     
   7.1099999999999997E-002   -0.70941186210643981     
   7.1400000000000005E-002   -0.70120628281627173     
   7.1700000000000000E-002   -0.66794132670995776     
   7.1999999999999995E-002   -0.61139067352855536     
   7.2300000000000003E-002   -0.53406854573034868     
   7.2600000000000012E-002   -0.43917763495167877     
   7.2900000000000006E-002   -0.33055029879248232     
   7.3200000000000001E-002   -0.21244659274163424     
   7.3499999999999996E-002    -8.9470516508409328E-002
   7.3800000000000004E-002     3.3663601988980558E-002
   7.4099999999999999E-002    0.15232782782707421     
   7.4400000000000008E-002    0.26223498538528311     
   7.4700000000000003E-002    0.35963259315371243     
   7.5000000000000011E-002    0.44153393472962416     
   7.5299999999999992E-002    0.50584006904352263     
   7.5600000000000001E-002    0.55145627944832798     
   7.5900000000000009E-002    0.57835545632730323     
   7.6200000000000004E-002    0.58743048376343077     
   7.6499999999999999E-002    0.58038647582082348     
   7.6800000000000007E-002    0.55948708437687289     
   7.7099999999999988E-002    0.52726653799389367     
   7.7399999999999997E-002    0.48628186207547874     
   7.7700000000000005E-002    0.43882620652306858     
   7.8000000000000014E-002    0.38671048203245895     
   7.8299999999999995E-002    0.33109767035914350     
   7.8600000000000003E-002    0.27249279586581010     
   7.8900000000000012E-002    0.21075500031861924     
   7.9199999999999993E-002    0.14536736489968660     
   7.9500000000000001E-002     7.5588234878169749E-002
   7.9800000000000010E-002     7.2392201177338619E-004
   8.0100000000000018E-002    -7.9418033661411133E-002
   8.0399999999999999E-002   -0.16449267461344408     
   8.0700000000000008E-002   -0.25323056783729553     
   8.1000000000000003E-002   -0.34345413555045728     
   8.1299999999999997E-002   -0.43211709922365032     
   8.1600000000000006E-002   -0.51531460290684483     
   8.1900000000000014E-002   -0.58883050936880199     
   8.2199999999999995E-002   -0.64820060653464395     
   8.2500000000000004E-002   -0.68929257043349745     
   8.2799999999999999E-002   -0.70878644827483017     
   8.3100000000000007E-002   -0.70429514765830592     
   8.3400000000000002E-002   -0.67501399836775910     
   8.3700000000000011E-002   -0.62164578644338797     
   8.4000000000000005E-002   -0.54648350512429400     
   8.4300000000000000E-002   -0.45342744364681054     
   8.4599999999999995E-002   -0.34751218253610544     
   8.4900000000000003E-002   -0.23474256832741980     
   8.5199999999999998E-002   -0.12144983636702758     
   8.5500000000000007E-002    -1.3820272180673061E-002
   8.5800000000000001E-002     8.2385627515089752E-002
   8.6100000000000010E-002    0.16258454329147842     
   8.6399999999999991E-002    0.22349199779851181     
   8.6699999999999999E-002    0.26330341204706798     
   8.7000000000000008E-002    0.28188566313182983     
   8.7300000000000003E-002    0.28051090572266135     
   8.7599999999999997E-002    0.26174879804543821     
   8.7900000000000006E-002    0.22915566041083058     
   8.8200000000000014E-002    0.18689098104998680     
   8.8499999999999995E-002    0.13938182425028559     
   8.8800000000000004E-002     9.0940703224502456E-002
   8.9100000000000013E-002     4.5477679782559857E-002
   8.9399999999999993E-002     6.4660221431064244E-003
   8.9700000000000002E-002    -2.3391831063005838E-002
   9.0000000000000011E-002    -4.2175485391695577E-002
   9.0299999999999991E-002    -4.8558821056233929E-002
   9.0600000000000000E-002    -4.2134099218191695E-002
   9.0900000000000009E-002    -2.3018428750083687E-002
   9.1200000000000017E-002     8.0779076962887841E-003
   9.1499999999999998E-002     4.9697625772895909E-002
   9.1800000000000007E-002    0.10006984511887801     
   9.2100000000000001E-002    0.15668651372902995     
   9.2399999999999996E-002    0.21658277653823260     
   9.2700000000000005E-002    0.27652293516520171     
   9.3000000000000013E-002    0.33269730857294555     
   9.3300000000000008E-002    0.38130459798725647     
   9.3600000000000003E-002    0.41853072564860644     
   9.3899999999999997E-002    0.44077784156701305     
   9.4200000000000006E-002    0.44519016435373926     
   9.4500000000000001E-002    0.42951883168021665     
   9.4800000000000009E-002    0.39259141901444650     
   9.5100000000000004E-002    0.33447188089770297     
   9.5399999999999999E-002    0.25632488872323672     
   9.5699999999999993E-002    0.16049309071666323     
   9.6000000000000002E-002     5.0407924648273386E-002
   9.6300000000000011E-002    -6.9752005933178846E-002
   9.6600000000000005E-002   -0.19525673351955763     
   9.6900000000000000E-002   -0.32105226359543493     
   9.7200000000000009E-002   -0.44212254777562360     
   9.7499999999999989E-002   -0.55351838939308029     
   9.7799999999999998E-002   -0.65070529917851072     
   9.8100000000000007E-002   -0.72960599217628808     
   9.8400000000000015E-002   -0.78644440419222628     
   9.8699999999999996E-002   -0.81807676966038012     
   9.9000000000000005E-002   -0.82170709740359205     
   9.9300000000000013E-002   -0.79509887108169464     
   9.9599999999999994E-002   -0.73671153619193130     
   9.9900000000000003E-002   -0.64577381928953193     
  0.10020000000000001        -0.52263778965266261     
  0.10049999999999999        -0.36886896844247097     
  0.10080000000000000        -0.18771446387206825     
  0.10110000000000001          1.5799125497503761E-002
  0.10140000000000000         0.23495191243847866     
  0.10170000000000000         0.46114177615310825     
  0.10200000000000001         0.68447656721629180     
  0.10230000000000002         0.89398276102482932     
  0.10260000000000000          1.0784392155307199     
  0.10290000000000001          1.2272669964236638     
  0.10320000000000000          1.3310805454864996     
  0.10350000000000001          1.3828655112656050     
  0.10380000000000000          1.3783569865547523     
  0.10410000000000001          1.3167009967971275     
  0.10440000000000001          1.2006195168024645     
  0.10470000000000000          1.0360357665130844     
  0.10500000000000000         0.83203974364012434     
  0.10530000000000000         0.59982617695608020     
  0.10560000000000000         0.35180617363281447     
  0.10590000000000001         0.10059637073761769     
  0.10620000000000000        -0.14208074383020464     
  0.10650000000000001        -0.36627650582074517     
  0.10679999999999999        -0.56479861305218559     
  0.10710000000000000        -0.73326724716172631     
  0.10740000000000001        -0.87046374636582780     
  0.10770000000000000        -0.97786750422952773     
  0.10800000000000000         -1.0589913141181411     
  0.10830000000000001         -1.1185675188378577     
  0.10859999999999999         -1.1615155836683422     
  0.10890000000000000         -1.1918489600670812     
  0.10920000000000001         -1.2118295139086181     
  0.10950000000000001         -1.2214034028309222     
  0.10979999999999999         -1.2178807877781033     
  0.11009999999999999         -1.1960992003500959     
  0.11040000000000001         -1.1489622156019030     
  0.11070000000000001         -1.0685186732580687     
  0.11100000000000000        -0.94722723452385860     
  0.11130000000000000        -0.77896837580267819     
  0.11160000000000002        -0.56069399719568369     
  0.11190000000000001        -0.29310040100540208     
  0.11220000000000001          1.8497625448165189E-002
  0.11250000000000000         0.36387685660269176     
  0.11280000000000000         0.72858476705259800     
  0.11309999999999999          1.0944164208411173     
  0.11340000000000001          1.4409248947766458     
  0.11369999999999998          1.7470387894839967     
  0.11400000000000000          1.9926311977809679     
  0.11430000000000000          2.1606099264483021     
  0.11460000000000002          2.2380209544920593     
  0.11489999999999999          2.2173518232723683     
  0.11520000000000001          2.0973469565808127     
  0.11550000000000001          1.8827784558509175     
  0.11580000000000000          1.5843943993310075     
  0.11609999999999999          1.2177608018030843     
  0.11640000000000002         0.80196663321182482     
  0.11670000000000001         0.35839505102933333     
  0.11700000000000001         -9.1090162491532567E-002
  0.11730000000000000        -0.52573197211913836     
  0.11760000000000000        -0.92709301977693892     
  0.11789999999999999         -1.2802743647819617     
  0.11820000000000001         -1.5742990449948842     
  0.11850000000000001         -1.8027274506441324     
  0.11880000000000000         -1.9633402246038631     
  0.11910000000000000         -2.0575769253821559     
  0.11940000000000002         -2.0902043194354718     
  0.11970000000000001         -2.0680692575418709     
  0.12000000000000001         -1.9990140277685633     
  0.12030000000000000         -1.8912418964655457     
  0.12060000000000000         -1.7520595871371900     
  0.12089999999999999         -1.5874050457394102     
  0.12119999999999999         -1.4014768573027181     
  0.12150000000000001         -1.1963827219168233     
  0.12180000000000001        -0.97273344415622742     
  0.12210000000000000        -0.72987015817022227     
  0.12239999999999999        -0.46658594681209631     
  0.12270000000000002        -0.18235723457830039     
  0.12300000000000001         0.12214635650971978     
  0.12330000000000001         0.44414800057461434     
  0.12360000000000000         0.77782451560630084     
  0.12390000000000000          1.1144545264524932     
  0.12419999999999999          1.4422347604811716     
  0.12450000000000001          1.7467517329866447     
  0.12480000000000001          2.0122125797110586     
  0.12509999999999999          2.2223411972645537     
  0.12540000000000001          2.3621641810992382     
  0.12570000000000003          2.4196191869805377     
  0.12600000000000000          2.3866820200374916     
  0.12630000000000002          2.2609366070278951     
  0.12659999999999999          2.0460397642846258     
  0.12690000000000001          1.7519502650140959     
  0.12719999999999998          1.3946493396377189     
  0.12750000000000000         0.99482409378009695     
  0.12780000000000002         0.57639179921915618     
  0.12809999999999999         0.16439578760292750     
  0.12840000000000001        -0.21712481143063464     
  0.12869999999999998        -0.54726881601626809     
  0.12900000000000000        -0.81031141372197746     
  0.12930000000000003        -0.99712602756319546     
  0.12959999999999999         -1.1057684165624544     
  0.12990000000000002         -1.1416704969230749     
  0.13019999999999998         -1.1171840500839703     
  0.13050000000000000         -1.0495336263119586     
  0.13080000000000003        -0.95941414893819510     
  0.13109999999999999        -0.86832068286143704     
  0.13140000000000002        -0.79629984674377119     
  0.13169999999999998        -0.75983146254682832     
  0.13200000000000001        -0.76938057950024663     
  0.13229999999999997        -0.82895592579018140     
  0.13260000000000000        -0.93479887088731539     
  0.13290000000000002         -1.0757840303350654     
  0.13319999999999999         -1.2351362745985250     
  0.13350000000000001         -1.3908853899430886     
  0.13380000000000003         -1.5190710987318212     
  0.13410000000000000         -1.5956625686683164     
  0.13440000000000002         -1.5987601571597481     
  0.13469999999999999         -1.5116769410411168     
  0.13500000000000001         -1.3236093533776976     
  0.13529999999999998         -1.0317539450893050     
  0.13560000000000000        -0.64175471467329759     
  0.13590000000000002        -0.16667767004005188     
  0.13619999999999999         0.37257699469051447     
  0.13650000000000001         0.94950168764251774     
  0.13680000000000003          1.5337019728945134     
  0.13710000000000000          2.0926473079145405     
  0.13740000000000002          2.5944309555283969     
  0.13769999999999999          3.0093686248620930     
  0.13800000000000001          3.3121246790556040     
  0.13829999999999998          3.4832485416965397     
  0.13860000000000000          3.5101671268868779     
  0.13890000000000002          3.3878076826122054     
  0.13919999999999999          3.1189276135020094     
  0.13950000000000001          2.7136106300839264     
  0.13979999999999998          2.1888136988089562     
  0.14010000000000000          1.5672808379693950     
  0.14040000000000002         0.87603731754598657     
  0.14069999999999999         0.14554927194684647     
  0.14100000000000001        -0.59221462043888373     
  0.14130000000000004         -1.3052618957167270     
  0.14160000000000000         -1.9625324010296876     
  0.14189999999999997         -2.5362981685816308     
  0.14219999999999999         -3.0021329671196328     
  0.14250000000000002         -3.3407599679473972     
  0.14279999999999998         -3.5390126839668525     
  0.14310000000000000         -3.5896315530811602     
  0.14339999999999997         -3.4927336896723831     
  0.14369999999999999         -3.2549442777973301     
  0.14400000000000002         -2.8897064061011850     
  0.14429999999999998         -2.4171502069832353     
  0.14460000000000001         -1.8622194670699121     
  0.14490000000000003         -1.2547396182163681     
  0.14520000000000000        -0.62718308572077786     
  0.14550000000000002         -1.3052282177134361E-002
  0.14579999999999999         0.55431328158924631     
  0.14610000000000001          1.0444687340833043     
  0.14640000000000003          1.4316607291435330     
  0.14670000000000000          1.6961565152068805     
  0.14699999999999996          1.8261148764274702     
  0.14729999999999999          1.8188015527476700     
  0.14760000000000001          1.6804175967551434     
  0.14789999999999998          1.4267689019686838     
  0.14820000000000000          1.0820302957835557     