  -1.4999999999999999E-002     0.0000000000000000     
  -1.4700000000000000E-002     0.0000000000000000     
  -1.4400000000000000E-002     0.0000000000000000     
  -1.4100000000000000E-002     0.0000000000000000     
  -1.3800000000000000E-002     0.0000000000000000     
  -1.3500000000000000E-002     0.0000000000000000     
  -1.3200000000000000E-002     0.0000000000000000     
  -1.2899999999999998E-002     0.0000000000000000     
  -1.2600000000000000E-002     0.0000000000000000     
  -1.2299999999999998E-002     0.0000000000000000     
  -1.2000000000000000E-002     0.0000000000000000     
  -1.1699999999999999E-002     0.0000000000000000     
  -1.1399999999999999E-002     0.0000000000000000     
  -1.1099999999999999E-002     0.0000000000000000     
  -1.0799999999999999E-002     0.0000000000000000     
  -1.0499999999999999E-002     0.0000000000000000     
  -1.0199999999999999E-002     0.0000000000000000     
  -9.8999999999999991E-003     0.0000000000000000     
  -9.5999999999999992E-003     0.0000000000000000     
  -9.2999999999999992E-003     0.0000000000000000     
  -8.9999999999999993E-003     0.0000000000000000     
  -8.6999999999999994E-003     0.0000000000000000     
  -8.3999999999999995E-003     0.0000000000000000     
  -8.0999999999999996E-003     0.0000000000000000     
  -7.7999999999999988E-003     0.0000000000000000     
  -7.4999999999999997E-003     0.0000000000000000     
  -7.1999999999999998E-003     0.0000000000000000     
  -6.8999999999999981E-003     0.0000000000000000     
  -6.5999999999999982E-003     0.0000000000000000     
  -6.3000000000000000E-003     0.0000000000000000     
  -6.0000000000000001E-003     0.0000000000000000     
  -5.6999999999999985E-003     0.0000000000000000     
  -5.3999999999999986E-003     0.0000000000000000     
  -5.1000000000000004E-003     0.0000000000000000     
  -4.7999999999999987E-003     0.0000000000000000     
  -4.5000000000000005E-003     0.0000000000000000     
  -4.1999999999999989E-003     0.0000000000000000     
  -3.8999999999999990E-003     0.0000000000000000     
  -3.5999999999999990E-003     0.0000000000000000     
  -3.2999999999999991E-003     0.0000000000000000     
  -2.9999999999999992E-003     0.0000000000000000     
  -2.6999999999999993E-003     0.0000000000000000     
  -2.3999999999999994E-003     0.0000000000000000     
  -2.0999999999999977E-003     0.0000000000000000     
  -1.7999999999999995E-003     0.0000000000000000     
  -1.4999999999999979E-003     0.0000000000000000     
  -1.1999999999999997E-003     0.0000000000000000     
  -8.9999999999999976E-004     0.0000000000000000     
  -5.9999999999999810E-004     0.0000000000000000     
  -2.9999999999999992E-004     0.0000000000000000     
   0.0000000000000000          0.0000000000000000     
   3.0000000000000165E-004     0.0000000000000000     
   5.9999999999999984E-004     0.0000000000000000     
   9.0000000000000149E-004     0.0000000000000000     
   1.2000000000000031E-003     0.0000000000000000     
   1.5000000000000013E-003     0.0000000000000000     
   1.8000000000000030E-003     0.0000000000000000     
   2.1000000000000012E-003     0.0000000000000000     
   2.3999999999999994E-003     0.0000000000000000     
   2.7000000000000010E-003     0.0000000000000000     
   2.9999999999999992E-003     0.0000000000000000     
   3.3000000000000008E-003     0.0000000000000000     
   3.6000000000000025E-003     0.0000000000000000     
   3.9000000000000007E-003    -4.4416924996901748E-043
   4.2000000000000023E-003     3.3133651860710923E-041
   4.5000000000000005E-003     1.2952988078280583E-038
   4.7999999999999987E-003    -5.4036788185014351E-039
   5.1000000000000004E-003    -1.4794436400930728E-037
   5.4000000000000020E-003    -1.0942428092588056E-035
   5.7000000000000037E-003     3.2388722563931780E-035
   5.9999999999999984E-003     1.9011900743169288E-034
   6.3000000000000000E-003    -4.5340434013759211E-034
   6.6000000000000017E-003    -4.1915940202279577E-033
   6.9000000000000034E-003     3.1612151680442413E-033
   7.2000000000000015E-003     4.1124468374289829E-032
   7.5000000000000032E-003     8.4343051779725747E-032
   7.8000000000000014E-003    -6.9467331110412772E-031
   8.0999999999999996E-003    -2.3161288395038469E-030
   8.4000000000000012E-003     2.3212335160569810E-029
   8.7000000000000029E-003    -4.7689764327678621E-029
   9.0000000000000011E-003    -1.8929930025248771E-028
   9.2999999999999992E-003     1.9475467565705673E-027
   9.6000000000000009E-003    -8.3623583952635412E-027
   9.8999999999999991E-003     1.4164298820327804E-026
   1.0200000000000001E-002     6.9171460097039118E-026
   1.0500000000000002E-002    -6.2275995663103211E-025
   1.0800000000000004E-002     2.2848551118446498E-024
   1.1099999999999999E-002    -3.5081840415564566E-024
   1.1400000000000000E-002    -8.7188951458218852E-024
   1.1700000000000002E-002     7.3855288404454130E-023
   1.2000000000000004E-002    -2.4318422598011715E-022
   1.2300000000000002E-002     4.0017829212963703E-022
   1.2600000000000000E-002     4.9515463066562804E-022
   1.2900000000000002E-002    -7.0123432783912593E-021
   1.3200000000000000E-002     3.5428540436050127E-020
   1.3500000000000002E-002    -1.3549964946269643E-019
   1.3800000000000003E-002     4.2970698004971615E-019
   1.4100000000000001E-002    -1.0985020184598072E-018
   1.4400000000000000E-002     1.8348808214998772E-018
   1.4700000000000001E-002     1.2719796177944459E-018
   1.4999999999999999E-002    -2.7881694857364309E-017
   1.5300000000000001E-002     1.4587371038978745E-016
   1.5600000000000003E-002    -4.8756118985812569E-016
   1.5899999999999997E-002     7.3749552056484558E-016
   1.6199999999999999E-002     4.1987638406448801E-015
   1.6500000000000001E-002    -4.7703764916521097E-014
   1.6800000000000002E-002     2.8748020480074298E-013
   1.7100000000000004E-002    -1.2898923961352478E-012
   1.7400000000000006E-002     4.4678866416202532E-012
   1.7700000000000000E-002    -1.1076710467504407E-011
   1.8000000000000002E-002     1.2554487494319854E-011
   1.8300000000000004E-002     4.1610350445684042E-011
   1.8600000000000005E-002    -2.7818702760797420E-010
   1.8900000000000000E-002     7.3033461302371919E-010
   1.9200000000000002E-002    -5.1334452654863121E-010
   1.9500000000000003E-002    -3.0759485771853527E-009
   1.9799999999999998E-002     1.0618144303069800E-008
   2.0100000000000000E-002    -6.4424789313785683E-009
   2.0400000000000001E-002    -3.8667990499504298E-008
   2.0700000000000003E-002     8.0012589652168102E-008
   2.0999999999999998E-002     6.7630638695831864E-008
   2.1299999999999999E-002    -3.3239640625253882E-007
   2.1600000000000001E-002    -1.3234597113858011E-007
   2.1900000000000003E-002     9.3964002829158411E-007
   2.2200000000000004E-002     5.5885900836383836E-007
   2.2500000000000006E-002    -2.3678448749459795E-006
   2.2800000000000001E-002    -3.2116519092085184E-006
   2.3100000000000002E-002     5.8442388657061745E-006
   2.3400000000000004E-002     2.8276289697476869E-005
   2.3699999999999999E-002     6.1375318965046434E-005
   2.4000000000000000E-002     1.0370384543284974E-004
   2.4300000000000002E-002     1.6133211564690138E-004
   2.4599999999999997E-002     2.4826039108921232E-004
   2.4900000000000005E-002     3.8532402274080516E-004
   2.5200000000000000E-002     5.9841763628126006E-004
   2.5499999999999995E-002     9.2058767551845004E-004
   2.5800000000000003E-002     1.3988926638509144E-003
   2.6099999999999998E-002     2.0988405757416681E-003
   2.6400000000000007E-002     3.1084892939592366E-003
   2.6700000000000002E-002     4.5445658509537523E-003
   2.6999999999999996E-002     6.5570503352075146E-003
   2.7300000000000005E-002     9.3314519494377204E-003
   2.7600000000000000E-002     1.3089318273482774E-002
   2.7900000000000008E-002     1.8090237911473829E-002
   2.8200000000000003E-002     2.4629501400547309E-002
   2.8499999999999998E-002     3.3021056370153519E-002
   2.8800000000000006E-002     4.3572230171016482E-002
   2.9100000000000001E-002     5.6555690126554328E-002
   2.9400000000000003E-002     7.2167737663371243E-002
   2.9700000000000004E-002     9.0467688614829192E-002
   3.0000000000000006E-002    0.11130612024552684     
   3.0300000000000001E-002    0.13424518042068184     
   3.0600000000000002E-002    0.15847828492943461     
   3.0900000000000004E-002    0.18276151145429320     
   3.1199999999999999E-002    0.20534353569470798     
   3.1500000000000007E-002    0.22394147986716498     
   3.1800000000000002E-002    0.23576490915279197     
   3.2099999999999997E-002    0.23757453401285555     
   3.2400000000000005E-002    0.22584726205466138     
   3.2700000000000000E-002    0.19698713452799502     
   3.3000000000000002E-002    0.14762897028436112     
   3.3300000000000003E-002     7.5025962177586350E-002
   3.3599999999999998E-002    -2.2554137300099964E-002
   3.3900000000000000E-002   -0.14538585364902629     
   3.4200000000000001E-002   -0.29189268410113095     
   3.4500000000000003E-002   -0.45833628015195127     
   3.4799999999999998E-002   -0.63862350116388500     
   3.5099999999999999E-002   -0.82430727346862698     
   3.5400000000000001E-002    -1.0048396454365958     
   3.5699999999999996E-002    -1.1680016362667649     
   3.6000000000000004E-002    -1.3006506805589824     
   3.6299999999999999E-002    -1.3896125837853843     
   3.6600000000000008E-002    -1.4227353126884412     
   3.6900000000000002E-002    -1.3900475175470244     
   3.7199999999999997E-002    -1.2847793867510726     
   3.7500000000000006E-002    -1.1043404339261562     
   3.7800000000000000E-002   -0.85092662996499346     
   3.8100000000000009E-002   -0.53179440172290915     
   3.8400000000000004E-002   -0.15923317066010267     
   3.8699999999999998E-002    0.25012371094571423     
   3.9000000000000007E-002    0.67617722713029904     
   3.9300000000000002E-002     1.0966758052025756     
   3.9600000000000003E-002     1.4888589657158664     
   3.9900000000000005E-002     1.8309921402831622     
   4.0200000000000000E-002     2.1040141115466096     
   4.0500000000000001E-002     2.2928982373064941     
   4.0800000000000003E-002     2.3877585844613538     
   4.1100000000000005E-002     2.3844279771424430     
   4.1399999999999999E-002     2.2846605512185199     
   4.1700000000000008E-002     2.0958714352942507     
   4.2000000000000003E-002     1.8303048686235988     
   4.2299999999999997E-002     1.5040650496442147     
   4.2600000000000006E-002     1.1357517994022812     
   4.2900000000000001E-002    0.74506647321885477     
   4.3200000000000002E-002    0.35150959161854861     
   4.3500000000000004E-002    -2.7000196625208975E-002
   4.3799999999999999E-002   -0.37496127342389085     
   4.4100000000000000E-002   -0.68009453619068649     
   4.4400000000000002E-002   -0.93373564477189364     
   4.4700000000000004E-002    -1.1307933427670287     
   4.4999999999999998E-002    -1.2697688588174576     
   4.5300000000000000E-002    -1.3521259142740503     
   4.5600000000000002E-002    -1.3818671106522957     
   4.5899999999999996E-002    -1.3649070293256047     
   4.6200000000000005E-002    -1.3082736747083468     
   4.6500000000000000E-002    -1.2198269392238186     
   4.6799999999999994E-002    -1.1074528280940021     
   4.7100000000000003E-002   -0.97880883651671469     
   4.7399999999999998E-002   -0.84116140039749399     
   4.7700000000000006E-002   -0.70092285860474113     
   4.8000000000000001E-002   -0.56383309992671216     
   4.8300000000000010E-002   -0.43479232075928564     
   4.8600000000000004E-002   -0.31778931092336438     
   4.8899999999999999E-002   -0.21605064105928290     
   4.9200000000000008E-002   -0.13183409470943025     
   4.9500000000000002E-002    -6.6457193864199862E-002
   4.9800000000000011E-002    -2.0359679131278639E-002
   5.0100000000000006E-002     7.1050838210612467E-003
   5.0400000000000000E-002     1.7573994072585288E-002
   5.0700000000000009E-002     1.3570305816637969E-002
   5.1000000000000004E-002    -1.3976994073310323E-003
   5.1299999999999998E-002    -2.3272752485236838E-002
   5.1600000000000007E-002    -4.7587440597941517E-002
   5.1900000000000002E-002    -6.9655288406426263E-002
   5.2200000000000010E-002    -8.5280517528622590E-002
   5.2500000000000005E-002    -9.0742904367886151E-002
   5.2800000000000000E-002    -8.3347927173642228E-002
   5.3099999999999994E-002    -6.1714664514211842E-002
   5.3400000000000003E-002    -2.5588581845993275E-002
   5.3699999999999998E-002     2.3648045518759906E-002
   5.4000000000000006E-002     8.3491247641202859E-002
   5.4300000000000001E-002    0.15046198582440864     
   5.4599999999999996E-002    0.22022538933687458     
   5.4900000000000004E-002    0.28843334911000712     
   5.5199999999999999E-002    0.35071028890419709     
   5.5499999999999994E-002    0.40333206003350580     
   5.5800000000000002E-002    0.44352390842547762     
   5.6099999999999997E-002    0.46944186122856268     
   5.6400000000000006E-002    0.48053677270729300     
   5.6700000000000000E-002    0.47727670188591342     
   5.6999999999999995E-002    0.46098865398307431     
   5.7300000000000004E-002    0.43370208749885630     
   5.7599999999999998E-002    0.39766499972957864     
   5.7900000000000007E-002    0.35504771154574033     
   5.8200000000000002E-002    0.30777834840768176     
   5.8499999999999996E-002    0.25718526518266249     
   5.8800000000000005E-002    0.20400960486514536     
   5.9100000000000000E-002    0.14851686638197717     
   5.9400000000000008E-002     9.0422126340016534E-002
   5.9700000000000003E-002     2.9456571021659085E-002
   6.0000000000000012E-002    -3.4601392235546223E-002
   6.0300000000000006E-002   -0.10159174862951521     
   6.0600000000000001E-002   -0.17043096428952426     
   6.0900000000000010E-002   -0.23947343044930247     
   6.1200000000000004E-002   -0.30603878911757165     
   6.1500000000000013E-002   -0.36670760719727696     
   6.1800000000000008E-002   -0.41775411577959343     
   6.2100000000000002E-002   -0.45507405868768624     
   6.2399999999999997E-002   -0.47507910552717181     
   6.2700000000000006E-002   -0.47482083851396684     
   6.3000000000000000E-002   -0.45238875577944593     
   6.3300000000000009E-002   -0.40748083133496354     
   6.3600000000000004E-002   -0.34118304898245028     
   6.3899999999999998E-002   -0.25620728715608521     
   6.4199999999999993E-002   -0.15669137182682297     
   6.4500000000000002E-002    -4.7687230653937068E-002
   6.4800000000000010E-002     6.5100806943805198E-002
   6.5100000000000005E-002    0.17588655319343915     
   6.5400000000000000E-002    0.27940000479616667     
   6.5700000000000008E-002    0.37122846780050678     
   6.5999999999999989E-002    0.44824865362383226     
   6.6299999999999998E-002    0.50892279641454086     
   6.6600000000000006E-002    0.55316402745234705     
   6.6900000000000001E-002    0.58242410657037413     
   6.7199999999999996E-002    0.59934751434943923     
   6.7500000000000004E-002    0.60722836241650735     
   6.7800000000000013E-002    0.60982785916643500     
   6.8099999999999994E-002    0.61049098922810374     
   6.8400000000000002E-002    0.61186240401315817     
   6.8700000000000011E-002    0.61543404220714226     
   6.8999999999999992E-002    0.62090040322353501     
   6.9300000000000000E-002    0.62646242518459583     
   6.9600000000000009E-002    0.62848268455321132     
   6.9900000000000004E-002    0.62171865827803718     
   7.0199999999999999E-002    0.59985830603079471     
   7.0500000000000007E-002    0.55576911047688948     
   7.0800000000000016E-002    0.48244710312531680     
   7.1099999999999997E-002    0.37373405452230024     
   7.1400000000000005E-002    0.22493876277389219     
   7.1700000000000000E-002     3.3773989798933271E-002
   7.1999999999999995E-002   -0.19910071151600539     
   7.2300000000000003E-002   -0.46964705418820385     
   7.2600000000000012E-002   -0.77008508575815737     
   7.2900000000000006E-002    -1.0891157320209917     
   7.3200000000000001E-002    -1.4123093962344762     
   7.3499999999999996E-002    -1.7225085678023655     
   7.3800000000000004E-002    -2.0011304019527918     
   7.4099999999999999E-002    -2.2290971871531555     
   7.4400000000000008E-002    -2.3880509368870193     
   7.4700000000000003E-002    -2.4621338905910846     
   7.5000000000000011E-002    -2.4386450106901583     
   7.5299999999999992E-002    -2.3097517724580641     
   7.5600000000000001E-002    -2.0732549687699477     
   7.5900000000000009E-002    -1.7326202527524259     
   7.6200000000000004E-002    -1.2979386003470816     
   7.6499999999999999E-002   -0.78502251848170690     
   7.6800000000000007E-002   -0.21505548620485077     
   7.7099999999999988E-002    0.38649138578514397     
   7.7399999999999997E-002    0.99158809481170174     
   7.7700000000000005E-002     1.5707050110337644     
   7.8000000000000014E-002     2.0950517984893375     
   7.8299999999999995E-002     2.5381993500876083     
   7.8600000000000003E-002     2.8774305069886603     
   7.8900000000000012E-002     3.0956104740639248     
   7.9199999999999993E-002     3.1818909501080741     
   7.9500000000000001E-002     3.1323904610185682     
   7.9800000000000010E-002     2.9506386843116124     
   8.0100000000000018E-002     2.6468891181512930     
   8.0399999999999999E-002     2.2375924349593408     
   8.0700000000000008E-002     1.7443667821705864     
   8.1000000000000003E-002     1.1921278976085945     
   8.1299999999999997E-002    0.60783858885655140     
   8.1600000000000006E-002     1.8548337065201842E-002
   8.1900000000000014E-002   -0.55036566853486424     
   8.2199999999999995E-002    -1.0761624373098440     
   8.2500000000000004E-002    -1.5402463685066627     
   8.2799999999999999E-002    -1.9287657005395409     
   8.3100000000000007E-002    -2.2326536897071461     
   8.3400000000000002E-002    -2.4479637494275255     
   8.3700000000000011E-002    -2.5747743865161592     
   8.4000000000000005E-002    -2.6167029807953854     
   8.4300000000000000E-002    -2.5800004851103902     
   8.4599999999999995E-002    -2.4722140275826434     
   8.4900000000000003E-002    -2.3015625280878504     
   8.5199999999999998E-002    -2.0761671447834225     
   8.5500000000000007E-002    -1.8033719754999318     
   8.5800000000000001E-002    -1.4899343618476104     
   8.6100000000000010E-002    -1.1418341424649316     
   8.6399999999999991E-002   -0.76466061399648155     
   8.6699999999999999E-002   -0.36436876877070729     
   8.7000000000000008E-002     5.2591037152038826E-002
   8.7300000000000003E-002    0.47863341501097245     
   8.7599999999999997E-002    0.90441791840440300     
   8.7900000000000006E-002     1.3194048240629885     
   8.8200000000000014E-002     1.7112997192410531     
   8.8499999999999995E-002     2.0665933697545804     
   8.8800000000000004E-002     2.3716933208679398     
   8.9100000000000013E-002     2.6128540206320610     
   8.9399999999999993E-002     2.7776747395883552     
   8.9700000000000002E-002     2.8555826080996503     
   9.0000000000000011E-002     2.8387535291558965     
   9.0299999999999991E-002     2.7231364174578081     
   9.0600000000000000E-002     2.5083511822675302     
   9.0900000000000009E-002     2.1986924995279815     
   9.1200000000000017E-002     1.8030115590839637     
   9.1499999999999998E-002     1.3343183197482935     
   9.1800000000000007E-002    0.80998937522027203     
   9.2100000000000001E-002    0.25074213871935264     
   9.2399999999999996E-002   -0.32021558616521301     
   9.2700000000000005E-002   -0.87800626097021506     
   9.3000000000000013E-002    -1.3976823581634576     
   9.3300000000000008E-002    -1.8552951984118318     
   9.3600000000000003E-002    -2.2292907552429138     
   9.3899999999999997E-002    -2.5022535276040183     
   9.4200000000000006E-002    -2.6613190227055954     
   9.4500000000000001E-002    -2.6995414142061778     
   9.4800000000000009E-002    -2.6164860764023246     
   9.5100000000000004E-002    -2.4176982155174178     
   9.5399999999999999E-002    -2.1150722580505081     
   9.5699999999999993E-002    -1.7254080412500217     
   9.6000000000000002E-002    -1.2694340218460745     
   9.6300000000000011E-002   -0.77080610749617084     
   9.6600000000000005E-002   -0.25367947843739042     
   9.6900000000000000E-002    0.25784518824410274     
   9.7200000000000009E-002    0.74163884769300092     
   9.7499999999999989E-002     1.1787189685347343     
   9.7799999999999998E-002     1.5530957791732423     
   9.8100000000000007E-002     1.8533200777646326     
   9.8400000000000015E-002     2.0714043330593781     
   9.8699999999999996E-002     2.2028228194638411     
   9.9000000000000005E-002     2.2465751406700747     
   9.9300000000000013E-002     2.2036380447802064     
   9.9599999999999994E-002     2.0774232027808108     
   9.9900000000000003E-002     1.8729343181379190     
  0.10020000000000001          1.5967901998236378     
  0.10049999999999999          1.2575914236439181     
  0.10080000000000000         0.86574737198143126     
  0.10110000000000001         0.43420312166716513     
  0.10140000000000000         -2.1681665026187069E-002
  0.10170000000000000        -0.48374477422799089     
  0.10200000000000001        -0.93161537815769191     
  0.10230000000000002         -1.3435082756950461     
  0.10260000000000000         -1.6971639327041064     
  0.10290000000000001         -1.9718375837909279     
  0.10320000000000000         -2.1497852936387449     
  0.10350000000000001         -2.2185661614038152     
  0.10380000000000000         -2.1724823834021367     
  0.10410000000000001         -2.0139665308510870     
  0.10440000000000001         -1.7545169131436753     
  0.10470000000000000         -1.4137466264285550     
  0.10500000000000000         -1.0192008392190672     
  0.10530000000000000        -0.60372084179061269     
  0.10560000000000000        -0.20270227995312590     
  0.10590000000000001         0.14873311701510109     
  0.10620000000000000         0.41951020239855874     
  0.10650000000000001         0.58538479394893395     
  0.10679999999999999         0.63194610321210698     
  0.10710000000000000         0.55568724452418139     
  0.10740000000000001         0.36474844330123068     
  0.10770000000000000          7.8607177502668435E-002
  0.10800000000000000        -0.27414961070320543     
  0.10830000000000001        -0.65826458603251536     
  0.10859999999999999         -1.0355346113911319     
  0.10890000000000000         -1.3680507389255805     
  0.10920000000000001         -1.6218791758140632     
  0.10950000000000001         -1.7704673608162902     
  0.10979999999999999         -1.7961178137822342     
  0.11009999999999999         -1.6922747311318289     
  0.11040000000000001         -1.4628579154564425     
  0.11070000000000001         -1.1220608978553395     
  0.11100000000000000        -0.69270943013124109     
  0.11130000000000000        -0.20331682947167506     
  0.11160000000000002         0.31360528949761624     
  0.11190000000000001         0.82539827085995299     
  0.11220000000000001          1.3011738934110755     
  0.11250000000000000          1.7140653729391171     
  0.11280000000000000          2.0435752640518938     
  0.11309999999999999          2.2756959751324235     
  0.11340000000000001          2.4043337922981500     
  0.11369999999999998          2.4305006424866478     
  0.11400000000000000          2.3618889583058977     
  0.11430000000000000          2.2120863082737410     
  0.11460000000000002          1.9984764268950062     
  0.11489999999999999          1.7413331860085641     
  0.11520000000000001          1.4617908197747886     
  0.11550000000000001          1.1803330697932513     
  0.11580000000000000         0.91539445412126685     
  0.11609999999999999         0.68191303578015505     
  0.11640000000000002         0.49054856405137504     
  0.11670000000000001         0.34693470381682789     
  0.11700000000000001         0.25172026793074193     
  0.11730000000000000         0.20052007140420580     
  0.11760000000000000         0.18516874690556168     
  0.11789999999999999         0.19437956418149199     
  0.11820000000000001         0.21543351020089813     
  0.11850000000000001         0.23628990665416238     
  0.11880000000000000         0.24626368318217901     
  0.11910000000000000         0.23830582238744591     
  0.11940000000000002         0.20977658081457179     
  0.11970000000000001         0.16286787725376670     
  0.12000000000000001         0.10506024446116471     
  0.12030000000000000          4.7442437963368840E-002
  0.12060000000000000          4.1632853751847436E-003
  0.12089999999999999         -1.0164443409081805E-002
  0.12119999999999999          1.7405304910590006E-002
  0.12150000000000001          9.6545275100701461E-002
  0.12180000000000001         0.23096689644474094     
  0.12210000000000000         0.41756212436376033     
  0.12239999999999999         0.64569077810908215     
  0.12270000000000002         0.89745135418326105     
  0.12300000000000001          1.1489877017825545     
  0.12330000000000001          1.3724613604264748     
  0.12360000000000000          1.5386684157138071     
  0.12390000000000000          1.6200411843307605     
  0.12419999999999999          1.5934013234732132     
  0.12450000000000001          1.4424643991062753     
  0.12480000000000001          1.1598244995797529     
  0.12509999999999999         0.74767433727953825     
  0.12540000000000001         0.21825334890717274     
  0.12570000000000003        -0.40675928574648673     
  0.12600000000000000         -1.0987702747311741     
  0.12630000000000002         -1.8233679743428399     
  0.12659999999999999         -2.5434657564122340     
  0.12690000000000001         -3.2223865082074514     
  0.12719999999999998         -3.8251389822314454     
  0.12750000000000000         -4.3221290594199324     
  0.12780000000000002         -4.6898800273933610     
  0.12809999999999999         -4.9125906104258608     
  0.12840000000000001         -4.9832533489819859     
  0.12869999999999998         -4.9025247034172326     
  0.12900000000000000         -4.6799046624886946     
  0.12930000000000003         -4.3316618506156654     
  0.12959999999999999         -3.8800410795989366     
  0.12990000000000002         -3.3523271062895206     
  0.13019999999999998         -2.7780629857451764     
  0.13050000000000000         -2.1883226358546866     
  0.13080000000000003         -1.6126224548008370     
  0.13109999999999999         -1.0781409282074594     
  0.13140000000000002        -0.60708201046485022     
  0.13169999999999998        -0.21475894100219667     
  0.13200000000000001          9.0225257387511151E-002
  0.13229999999999997         0.30823063036174286     
  0.13260000000000000         0.44773710156252899     
  0.13290000000000002         0.52500395465750516     
  0.13319999999999999         0.56299544415794300     
  0.13350000000000001         0.58843822753096686     
  0.13380000000000003         0.63040780999785029     
  0.13410000000000000         0.71658861474108404     
  0.13440000000000002         0.87034616730881309     
  0.13469999999999999          1.1086599449143999     
  0.13500000000000001          1.4389216131937066     
  0.13529999999999998          1.8577897979541418     
  0.13560000000000000          2.3512742991326903     
  0.13590000000000002          2.8943818042121729     
  0.13619999999999999          3.4539165457549306     
  0.13650000000000001          3.9904277197104188     
  0.13680000000000003          4.4620139504815173     
  0.13710000000000000          4.8286616798560607     
  0.13740000000000002          5.0549843605172304     
  0.13769999999999999          5.1154889116369260     
  0.13800000000000001          4.9966674167380374     
  0.13829999999999998          4.6982617222361611     
  0.13860000000000000          4.2354800996917206     
  0.13890000000000002          3.6365042515342108     
  0.13919999999999999          2.9416742544180345     
  0.13950000000000001          2.2000587481624505     
  0.13979999999999998          1.4646182813760906     
  0.14010000000000000         0.78903277497803392     
  0.14040000000000002         0.22176636580241593     
  0.14069999999999999        -0.19739605298144772     
  0.14100000000000001        -0.44067800508721161     
  0.14130000000000004        -0.49575177133384896     
  0.14160000000000000        -0.36586431650070972     
  0.14189999999999997         -6.9793531198595660E-002
  0.14219999999999999         0.35894103491605600     
  0.14250000000000002         0.87581563321751221     
  0.14279999999999998          1.4279474991818977     
  0.14310000000000000          1.9585933807599636     
  0.14339999999999997          2.4117414684328340     
  0.14369999999999999          2.7351854691960513     
  0.14400000000000002          2.8856509974171289     
  0.14429999999999998          2.8301664465673264     
  0.14460000000000001          2.5485905164016045     
  0.14490000000000003          2.0353348591552813     
  0.14520000000000000          1.2977899666533681     
  0.14550000000000002         0.35723697175757985     
  0.14579999999999999        -0.75352441376543156     
  0.14610000000000001         -1.9923192539535659     
  0.14640000000000003         -3.3090189054500261     
  0.14670000000000000         -4.6491078055300958     
  0.14699999999999996         -5.9551980251079462     
  0.14729999999999999         -7.1699307026429722     
  0.14760000000000001         -8.2390825092019799     
  0.14789999999999998         -9.1123123611511225     
  0.14820000000000000         -9.7462193809006266     