  -1.4999999999999999E-002     0.0000000000000000     
  -1.4700000000000000E-002     0.0000000000000000     
  -1.4400000000000000E-002     0.0000000000000000     
  -1.4100000000000000E-002     0.0000000000000000     
  -1.3800000000000000E-002     0.0000000000000000     
  -1.3500000000000000E-002     0.0000000000000000     
  -1.3200000000000000E-002     0.0000000000000000     
  -1.2899999999999998E-002     0.0000000000000000     
  -1.2600000000000000E-002     0.0000000000000000     
  -1.2299999999999998E-002     0.0000000000000000     
  -1.2000000000000000E-002     0.0000000000000000     
  -1.1699999999999999E-002     0.0000000000000000     
  -1.1399999999999999E-002     0.0000000000000000     
  -1.1099999999999999E-002     0.0000000000000000     
  -1.0799999999999999E-002     0.0000000000000000     
  -1.0499999999999999E-002     0.0000000000000000     
  -1.0199999999999999E-002     0.0000000000000000     
  -9.8999999999999991E-003     0.0000000000000000     
  -9.5999999999999992E-003     0.0000000000000000     
  -9.2999999999999992E-003     0.0000000000000000     
  -8.9999999999999993E-003     0.0000000000000000     
  -8.6999999999999994E-003     0.0000000000000000     
  -8.3999999999999995E-003     0.0000000000000000     
  -8.0999999999999996E-003     0.0000000000000000     
  -7.7999999999999988E-003     0.0000000000000000     
  -7.4999999999999997E-003     0.0000000000000000     
  -7.1999999999999998E-003     0.0000000000000000     
  -6.8999999999999981E-003     0.0000000000000000     
  -6.5999999999999982E-003     0.0000000000000000     
  -6.3000000000000000E-003     0.0000000000000000     
  -6.0000000000000001E-003     0.0000000000000000     
  -5.6999999999999985E-003     0.0000000000000000     
  -5.3999999999999986E-003     0.0000000000000000     
  -5.1000000000000004E-003     0.0000000000000000     
  -4.7999999999999987E-003     0.0000000000000000     
  -4.5000000000000005E-003     0.0000000000000000     
  -4.1999999999999989E-003     0.0000000000000000     
  -3.8999999999999990E-003     0.0000000000000000     
  -3.5999999999999990E-003     0.0000000000000000     
  -3.2999999999999991E-003     0.0000000000000000     
  -2.9999999999999992E-003     0.0000000000000000     
  -2.6999999999999993E-003     0.0000000000000000     
  -2.3999999999999994E-003     0.0000000000000000     
  -2.0999999999999977E-003     0.0000000000000000     
  -1.7999999999999995E-003     0.0000000000000000     
  -1.4999999999999979E-003     0.0000000000000000     
  -1.1999999999999997E-003     0.0000000000000000     
  -8.9999999999999976E-004     0.0000000000000000     
  -5.9999999999999810E-004     0.0000000000000000     
  -2.9999999999999992E-004     0.0000000000000000     
   0.0000000000000000          0.0000000000000000     
   3.0000000000000165E-004     0.0000000000000000     
   5.9999999999999984E-004     0.0000000000000000     
   9.0000000000000149E-004     0.0000000000000000     
   1.2000000000000031E-003     0.0000000000000000     
   1.5000000000000013E-003     0.0000000000000000     
   1.8000000000000030E-003     0.0000000000000000     
   2.1000000000000012E-003     0.0000000000000000     
   2.3999999999999994E-003     0.0000000000000000     
   2.7000000000000010E-003     0.0000000000000000     
   2.9999999999999992E-003     0.0000000000000000     
   3.3000000000000008E-003     0.0000000000000000     
   3.6000000000000025E-003     0.0000000000000000     
   3.9000000000000007E-003     0.0000000000000000     
   4.2000000000000023E-003     2.7836053578279132E-074
   4.5000000000000005E-003     1.8122566251315083E-045
   4.7999999999999987E-003     1.6942536506093229E-044
   5.1000000000000004E-003    -7.0397494246475940E-044
   5.4000000000000020E-003     1.3179666810229852E-036
   5.7000000000000037E-003     6.8807051600486891E-036
   5.9999999999999984E-003    -3.4350874012015818E-035
   6.3000000000000000E-003    -7.6510461957347507E-035
   6.6000000000000017E-003     7.1345496470137612E-034
   6.9000000000000034E-003     3.4325653699873386E-033
   7.2000000000000015E-003    -1.2969792208534982E-032
   7.5000000000000032E-003    -5.8949293421495099E-032
   7.8000000000000014E-003     3.0758042748014459E-031
   8.0999999999999996E-003     4.6215057494147982E-031
   8.4000000000000012E-003    -8.0663226971343176E-030
   8.7000000000000029E-003     2.5826408299998008E-029
   9.0000000000000011E-003     4.7908726972787409E-029
   9.2999999999999992E-003    -8.2773257355669061E-028
   9.6000000000000009E-003     3.5886474520396316E-027
   9.8999999999999991E-003    -3.4120856040562221E-027
   1.0200000000000001E-002    -4.8186076897286193E-026
   1.0500000000000002E-002     3.1797670882964109E-025
   1.0800000000000004E-002    -9.1233099879858575E-025
   1.1099999999999999E-002     1.5344835368272436E-025
   1.1400000000000000E-002     1.0633427940698855E-023
   1.1700000000000002E-002    -5.0409451576065035E-023
   1.2000000000000004E-002     1.1068940926962299E-022
   1.2300000000000002E-002     3.2435372380831195E-023
   1.2600000000000000E-002    -1.3020590437470958E-021
   1.2900000000000002E-002     5.9863297066257055E-021
   1.3200000000000000E-002    -1.7400224846283063E-020
   1.3500000000000002E-002     3.4535637222272561E-020
   1.3800000000000003E-002    -2.9763468292278467E-020
   1.4100000000000001E-002    -1.3303181412499740E-019
   1.4400000000000000E-002     1.0194916429720182E-018
   1.4700000000000001E-002    -4.9476309531721967E-018
   1.4999999999999999E-002     2.1289705967732660E-017
   1.5300000000000001E-002    -8.5822594567616619E-017
   1.5600000000000003E-002     3.1991995790949685E-016
   1.5899999999999997E-002    -1.0475324494051605E-015
   1.6199999999999999E-002     2.6318471128197617E-015
   1.6500000000000001E-002    -2.1242737269346256E-015
   1.6800000000000002E-002    -2.8692983798806398E-014
   1.7100000000000004E-002     2.4323811075796758E-013
   1.7400000000000006E-002    -1.2491187890044341E-012
   1.7700000000000000E-002     4.7487621283573800E-012
   1.8000000000000002E-002    -1.3064001987898909E-011
   1.8300000000000004E-002     1.9782016838421802E-011
   1.8600000000000005E-002     2.6385298346313673E-011
   1.8900000000000000E-002    -2.7428415783511581E-010
   1.9200000000000002E-002     8.2897188225980665E-010
   1.9500000000000003E-002    -8.6495295754118211E-010
   1.9799999999999998E-002    -2.6559855499976308E-009
   2.0100000000000000E-002     1.1482021039407033E-008
   2.0400000000000001E-002    -1.0294501955694309E-008
   2.0700000000000003E-002    -3.5791561327447118E-008
   2.0999999999999998E-002     9.1010054430783755E-008
   2.1299999999999999E-002     4.6536512701541253E-008
   2.1600000000000001E-002    -3.5331320450319142E-007
   2.1900000000000003E-002    -6.8414153282440733E-008
   2.2200000000000004E-002     9.9309953838800090E-007
   2.2500000000000006E-002     4.1627021629918230E-007
   2.2800000000000001E-002    -2.5848106959418940E-006
   2.3100000000000002E-002    -2.9790105363380236E-006
   2.3400000000000004E-002     6.9514401296906811E-006
   2.3699999999999999E-002     3.0031521616252711E-005
   2.4000000000000000E-002     6.3170095418405687E-005
   2.4300000000000002E-002     1.0532433714536918E-004
   2.4599999999999997E-002     1.6334182497440555E-004
   2.4900000000000005E-002     2.5184501426951932E-004
   2.5200000000000000E-002     3.9177698458957484E-004
   2.5499999999999995E-002     6.0882703163209933E-004
   2.5800000000000003E-002     9.3615303224759382E-004
   2.6099999999999998E-002     1.4212777278642874E-003
   2.6400000000000007E-002     2.1303952181972842E-003
   2.6700000000000002E-002     3.1525410452874127E-003
   2.6999999999999996E-002     4.6055297240171472E-003
   2.7300000000000005E-002     6.6401337610483150E-003
   2.7600000000000000E-002     9.4423738933280127E-003
   2.7900000000000008E-002     1.3234495812637808E-002
   2.8200000000000003E-002     1.8276707780737256E-002
   2.8499999999999998E-002     2.4864354531038531E-002
   2.8800000000000006E-002     3.3310867080887673E-002
   2.9100000000000001E-002     4.3921868239330676E-002
   2.9400000000000003E-002     5.6967782410838635E-002
   2.9700000000000004E-002     7.2641639233118949E-002
   3.0000000000000006E-002     9.0997932251497396E-002
   3.0300000000000001E-002    0.11188143979864271     
   3.0600000000000002E-002    0.13484835315033791     
   3.0900000000000004E-002    0.15908655158978327     
   3.1199999999999999E-002    0.18334747429974549     
   3.1500000000000007E-002    0.20587773148522112     
   3.1800000000000002E-002    0.22439562759443002     
   3.2099999999999997E-002    0.23611819202424619     
   3.2400000000000005E-002    0.23781959167145891     
   3.2700000000000000E-002    0.22599493939304041     
   3.3000000000000002E-002    0.19707262064776010     
   3.3300000000000003E-002    0.14771960338093718     
   3.3599999999999998E-002     7.5224204142444337E-002
   3.3900000000000000E-002    -2.2118158110435913E-002
   3.4200000000000001E-002   -0.14455605709310945     
   3.4500000000000003E-002   -0.29049810098146406     
   3.4799999999999998E-002   -0.45622455024483899     
   3.5099999999999999E-002   -0.63565789192506073     
   3.5400000000000001E-002   -0.82042692207621082     
   3.5699999999999996E-002    -1.0000557669919428     
   3.6000000000000004E-002    -1.1624474258740785     
   3.6299999999999999E-002    -1.2945956886928556     
   3.6600000000000008E-002    -1.3834509532391617     
   3.6900000000000002E-002    -1.4170218381416051     
   3.7199999999999997E-002    -1.3854370991944993     
   3.7500000000000006E-002    -1.2819995586643109     
   3.7800000000000000E-002    -1.1041524157646325     
   3.8100000000000009E-002   -0.85401652291767860     
   3.8400000000000004E-002   -0.53878228627877711     
   3.8699999999999998E-002   -0.17049455258305274     
   3.9000000000000007E-002    0.23445736818507809     
   3.9300000000000002E-002    0.65625242869837874     
   3.9600000000000003E-002     1.0730402223319699     
   3.9900000000000005E-002     1.4623576067282007     
   4.0200000000000000E-002     1.8027396980989054     
   4.0500000000000001E-002     2.0754422665984276     
   4.0800000000000003E-002     2.2655608135151719     
   4.1100000000000005E-002     2.3632478172919633     
   4.1399999999999999E-002     2.3643581326032259     
   4.1700000000000008E-002     2.2704235987871670     
   4.2000000000000003E-002     2.0886160849541087     
   4.2299999999999997E-002     1.8308788119216846     
   4.2600000000000006E-002     1.5128372561720158     
   4.2900000000000001E-002     1.1527610753710757     
   4.3200000000000002E-002    0.76989643006481434     
   4.3500000000000004E-002    0.38329207021832068     
   4.3799999999999999E-002     1.0607503117414138E-002
   4.4100000000000000E-002   -0.33300035430832847     
   4.4400000000000002E-002   -0.63545684554967197     
   4.4700000000000004E-002   -0.88816408275158210     
   4.4999999999999998E-002    -1.0861949672715097     
   4.5300000000000000E-002    -1.2279026228136305     
   4.5600000000000002E-002    -1.3147266803265329     
   4.5899999999999996E-002    -1.3505158116333202     
   4.6200000000000005E-002    -1.3408713034947313     
   4.6500000000000000E-002    -1.2926888171035018     
   4.6799999999999994E-002    -1.2133878192628762     
   4.7100000000000003E-002    -1.1105321392219143     
   4.7399999999999998E-002   -0.99144915460768190     
   4.7700000000000006E-002   -0.86283878497176703     
   4.8000000000000001E-002   -0.73081330768172892     
   4.8300000000000010E-002   -0.60064689921741421     
   4.8600000000000004E-002   -0.47679524509733268     
   4.8899999999999999E-002   -0.36302830921513540     
   4.9200000000000008E-002   -0.26223432398059476     
   4.9500000000000002E-002   -0.17658878437394740     
   4.9800000000000011E-002   -0.10746361047489068     
   5.0100000000000006E-002    -5.5367382631422726E-002
   5.0400000000000000E-002    -2.0036300003799794E-002
   5.0700000000000009E-002    -2.6769898137300741E-004
   5.1000000000000004E-002     5.9523409657794932E-003
   5.1299999999999998E-002     1.4103256287746827E-003
   5.1600000000000007E-002    -1.0411143116430039E-002
   5.1900000000000002E-002    -2.5707715660319177E-002
   5.2200000000000010E-002    -4.0427892673795901E-002
   5.2500000000000005E-002    -5.0702272949820777E-002
   5.2800000000000000E-002    -5.3195524060274987E-002
   5.3099999999999994E-002    -4.5295502308292636E-002
   5.3400000000000003E-002    -2.5498403024869245E-002
   5.3699999999999998E-002     6.5434043703751638E-003
   5.4000000000000006E-002     4.9926741426044474E-002
   5.4300000000000001E-002    0.10254347805298454     
   5.4599999999999996E-002    0.16138799096403056     
   5.4900000000000004E-002    0.22269275260460350     
   5.5199999999999999E-002    0.28245060984734727     
   5.5499999999999994E-002    0.33672141263585820     
   5.5800000000000002E-002    0.38201226925721565     
   5.6099999999999997E-002    0.41571344999642440     
   5.6400000000000006E-002    0.43613414993059674     
   5.6700000000000000E-002    0.44275190455192709     
   5.6999999999999995E-002    0.43610241058889032     
   5.7300000000000004E-002    0.41758107234785247     
   5.7599999999999998E-002    0.38934909459064282     
   5.7900000000000007E-002    0.35382156806254444     
   5.8200000000000002E-002    0.31340812968501153     
   5.8499999999999996E-002    0.27028941533724904     
   5.8800000000000005E-002    0.22601560768969983     
   5.9100000000000000E-002    0.18151561530954721     
   5.9400000000000008E-002    0.13696576363713003     
   5.9700000000000003E-002     9.1950056970165256E-002
   6.0000000000000012E-002     4.5771445081051410E-002
   6.0300000000000006E-002    -2.5150847860343473E-003
   6.0600000000000001E-002    -5.3552980355615759E-002
   6.0900000000000010E-002   -0.10744056623959529     
   6.1200000000000004E-002   -0.16365348944167257     
   6.1500000000000013E-002   -0.22064724091653559     
   6.1800000000000008E-002   -0.27608250977180482     
   6.2100000000000002E-002   -0.32691898235403466     
   6.2399999999999997E-002   -0.36954962406430047     
   6.2700000000000006E-002   -0.40037410582040778     
   6.3000000000000000E-002   -0.41600232412097615     
   6.3300000000000009E-002   -0.41375242764015729     
   6.3600000000000004E-002   -0.39206933122734156     
   6.3899999999999998E-002   -0.35055025650745680     
   6.4199999999999993E-002   -0.29033609595784371     
   6.4500000000000002E-002   -0.21390707329718736     
   6.4800000000000010E-002   -0.12483185264301458     
   6.5100000000000005E-002    -2.7647764830524439E-002
   6.5400000000000000E-002     7.2847118783188156E-002
   6.5700000000000008E-002    0.17179172846167570     
   6.5999999999999989E-002    0.26478826410959055     
   6.6299999999999998E-002    0.34839790287098271     
   6.6600000000000006E-002    0.42014660500793183     
   6.6900000000000001E-002    0.47892947923942619     
   6.7199999999999996E-002    0.52485244301258316     
   6.7500000000000004E-002    0.55899088330677305     
   6.7800000000000013E-002    0.58339898474662910     
   6.8099999999999994E-002    0.60042254768306347     
   6.8400000000000002E-002    0.61241845893254232     
   6.8700000000000011E-002    0.62148289459720452     
   6.8999999999999992E-002    0.62879376165178980     
   6.9300000000000000E-002    0.63456289500480612     
   6.9600000000000009E-002    0.63773690180099007     
   6.9900000000000004E-002    0.63595686868295243     
   7.0199999999999999E-002    0.62579773402921546     
   7.0500000000000007E-002    0.60267184765215009     
   7.0800000000000016E-002    0.56142716299075546     
   7.1099999999999997E-002    0.49678425835496626     
   7.1400000000000005E-002    0.40367703707764252     
   7.1700000000000000E-002    0.27810525271606812     
   7.1999999999999995E-002    0.11754826214318394     
   7.2300000000000003E-002    -7.8569611197746275E-002
   7.2600000000000012E-002   -0.30823671060604330     
   7.2900000000000006E-002   -0.56665663553691148     
   7.3200000000000001E-002   -0.84617082262192467     
   7.3499999999999996E-002    -1.1362796755141726     
   7.3800000000000004E-002    -1.4240104820004844     
   7.4099999999999999E-002    -1.6945315206371150     
   7.4400000000000008E-002    -1.9318338186692139     
   7.4700000000000003E-002    -2.1198522557577535     
   7.5000000000000011E-002    -2.2433289968553298     
   7.5299999999999992E-002    -2.2890684083614383     
   7.5600000000000001E-002    -2.2470464197479618     
   7.5900000000000009E-002    -2.1111971856520761     
   7.6200000000000004E-002    -1.8803112086312188     
   7.6499999999999999E-002    -1.5583195341133442     
   7.6800000000000007E-002    -1.1543650375518293     
   7.7099999999999988E-002   -0.68288575170900867     
   7.7399999999999997E-002   -0.16257224734614828     
   7.7700000000000005E-002    0.38420226168566579     
   7.8000000000000014E-002    0.93272123477858571     
   7.8299999999999995E-002     1.4574601307662869     
   7.8600000000000003E-002     1.9331252125756349     
   7.8900000000000012E-002     2.3367030081583007     
   7.9199999999999993E-002     2.6484341013742130     
   7.9500000000000001E-002     2.8531402889775368     
   7.9800000000000010E-002     2.9411415384418871     
   8.0100000000000018E-002     2.9085909660808147     
   8.0399999999999999E-002     2.7580980631636636     
   8.0700000000000008E-002     2.4978470240698352     
   8.1000000000000003E-002     2.1414155481442965     
   8.1299999999999997E-002     1.7068539479637186     
   8.1600000000000006E-002     1.2150437566800418     
   8.1900000000000014E-002    0.68887411103306928     
   8.2199999999999995E-002    0.15139989338211637     
   8.2500000000000004E-002   -0.37539209931895989     
   8.2799999999999999E-002   -0.87149474894538326     
   8.3100000000000007E-002    -1.3200999185801428     
   8.3400000000000002E-002    -1.7079901295303523     
   8.3700000000000011E-002    -2.0257057672613366     
   8.4000000000000005E-002    -2.2676553201642657     
   8.4300000000000000E-002    -2.4313668644709088     
   8.4599999999999995E-002    -2.5172490496097000     
   8.4900000000000003E-002    -2.5277549642788961     
   8.5199999999999998E-002    -2.4665152465177074     
   8.5500000000000007E-002    -2.3381452030625529     
   8.5800000000000001E-002    -2.1473779194351925     
   8.6100000000000010E-002    -1.8992650083654536     
   8.6399999999999991E-002    -1.5991685035630325     
   8.6699999999999999E-002    -1.2525914633345943     
   8.7000000000000008E-002   -0.86618767322027324     
   8.7300000000000003E-002   -0.44763993333335778     
   8.7599999999999997E-002    -6.1281336183915593E-003
   8.7900000000000006E-002    0.44734610946806147     
   8.8200000000000014E-002    0.90035245615213155     
   8.8499999999999995E-002     1.3387937228149713     
   8.8800000000000004E-002     1.7477063723386363     
   8.9100000000000013E-002     2.1119956479748727     
   8.9399999999999993E-002     2.4169186988036300     
   8.9700000000000002E-002     2.6494802820302250     
   9.0000000000000011E-002     2.7986609295928702     
   9.0299999999999991E-002     2.8563744371405875     
   9.0600000000000000E-002     2.8182677583387656     
   9.0900000000000009E-002     2.6834387173051932     
   9.1200000000000017E-002     2.4551126404934460     
   9.1499999999999998E-002     2.1402925966643558     
   9.1800000000000007E-002     1.7494207232996333     
   9.2100000000000001E-002     1.2962777331550213     
   9.2399999999999996E-002    0.79699824558392418     
   9.2700000000000005E-002    0.27010446312317216     
   9.3000000000000013E-002   -0.26471405474098714     
   9.3300000000000008E-002   -0.78727344720951520     
   9.3600000000000003E-002    -1.2771019630721989     
   9.3899999999999997E-002    -1.7150060726809206     
   9.4200000000000006E-002    -2.0834631433606527     
   9.4500000000000001E-002    -2.3674055980974757     
   9.4800000000000009E-002    -2.5552491552284988     
   9.5100000000000004E-002    -2.6392664303597586     
   9.5399999999999999E-002    -2.6161956189773110     
   9.5699999999999993E-002    -2.4875404270097841     
   9.6000000000000002E-002    -2.2593535867754930     
   9.6300000000000011E-002    -1.9421836896283620     
   9.6600000000000005E-002    -1.5504604236745654     
   9.6900000000000000E-002    -1.1016024114730925     
   9.7200000000000009E-002   -0.61526744321604598     
   9.7499999999999989E-002   -0.11208653372477977     
   9.7799999999999998E-002    0.38715564140783798     
   9.8100000000000007E-002    0.86253181938097068     
   9.8400000000000015E-002     1.2959122346125331     
   9.8699999999999996E-002     1.6712735496228337     
   9.9000000000000005E-002     1.9754545226854785     
   9.9300000000000013E-002     2.1981219735924187     
   9.9599999999999994E-002     2.3319887578290812     
   9.9900000000000003E-002     2.3729078227030653     
  0.10020000000000001          2.3196184107798481     
  0.10049999999999999          2.1740273937920751     
  0.10080000000000000          1.9410118620675789     
  0.10110000000000001          1.6285352343818573     
  0.10140000000000000          1.2480096541691434     
  0.10170000000000000         0.81369219451351882     
  0.10200000000000001         0.34312912133367413     
  0.10230000000000002        -0.14339166466380307     
  0.10260000000000000        -0.62367664270847178     
  0.10290000000000001         -1.0742244469540376     
  0.10320000000000000         -1.4718336719083105     
  0.10350000000000001         -1.7948331421000061     
  0.10380000000000000         -2.0250150694633522     
  0.10410000000000001         -2.1493262754942561     
  0.10440000000000001         -2.1610483632010440     
  0.10470000000000000         -2.0613939294368544     
  0.10500000000000000         -1.8596064622980302     
  0.10530000000000000         -1.5729723812587326     
  0.10560000000000000         -1.2260788401409912     
  0.10590000000000001        -0.84867290715568966     
  0.10620000000000000        -0.47367935286375612     
  0.10650000000000001        -0.13422564832355510     
  0.10679999999999999         0.13936605774580405     
  0.10710000000000000         0.32248961252691111     
  0.10740000000000001         0.39883070355676065     
  0.10770000000000000         0.36181672679176935     
  0.10800000000000000         0.21577472600530881     
  0.10830000000000001         -2.4367610171164428E-002
  0.10859999999999999        -0.33439474424539561     
  0.10890000000000000        -0.68284533750080145     
  0.10920000000000001         -1.0340236181373590     
  0.10950000000000001         -1.3513061686551244     
  0.10979999999999999         -1.6004329552641907     
  0.11009999999999999         -1.7526038487217908     
  0.11040000000000001         -1.7874042586319359     
  0.11070000000000001         -1.6939907890341437     
  0.11100000000000000         -1.4721983350365204     
  0.11130000000000000         -1.1323288439643668     
  0.11160000000000002        -0.69383935756618820     
  0.11190000000000001        -0.18384037731118710     
  0.11220000000000001         0.36584289782245244     
  0.11250000000000000         0.92087224768817810     
  0.11280000000000000          1.4475047236953158     
  0.11309999999999999          1.9149789356202809     
  0.11340000000000001          2.2975866258915847     
  0.11369999999999998          2.5764240626069506     
  0.11400000000000000          2.7399510715151920     
  0.11430000000000000          2.7847892613727478     
  0.11460000000000002          2.7150933141958888     
  0.11489999999999999          2.5420936984129070     
  0.11520000000000001          2.2826210963351534     
  0.11550000000000001          1.9576415604453952     
  0.11580000000000000          1.5910203130821519     
  0.11609999999999999          1.2071265934808750     
  0.11640000000000002         0.82971255401315680     
  0.11670000000000001         0.48016600968454415     
  0.11700000000000001         0.17593116840948267     
  0.11730000000000000         -6.9906165177277685E-002
  0.11760000000000000        -0.25001125964419058     
  0.11789999999999999        -0.36261846890780891     
  0.11820000000000001        -0.41144277895548426     
  0.11850000000000001        -0.40547081159244430     
  0.11880000000000000        -0.35707580529976163     
  0.11910000000000000        -0.28151866471591669     
  0.11940000000000002        -0.19463850425967075     
  0.11970000000000001        -0.11113454428424582     
  0.12000000000000001         -4.3469922045653156E-002
  0.12030000000000000          6.1368276994832780E-004
  0.12060000000000000          1.8297885136011393E-002
  0.12089999999999999          1.2480199756645790E-002
  0.12119999999999999         -8.2446303188062117E-003
  0.12150000000000001         -3.1357152697781325E-002
  0.12180000000000001         -4.1116105200445674E-002
  0.12210000000000000         -2.1318327809338327E-002
  0.12239999999999999          4.2458918088218715E-002
  0.12270000000000002         0.16086287515814049     
  0.12300000000000001         0.33809071059084900     
  0.12330000000000001         0.57105379004403212     
  0.12360000000000000         0.84838364542727263     
  0.12390000000000000          1.1507069795456208     
  0.12419999999999999          1.4523523705333137     
  0.12450000000000001          1.7229183508335120     
  0.12480000000000001          1.9303791071282390     
  0.12509999999999999          2.0441748618886639     
  0.12540000000000001          2.0381195071073903     
  0.12570000000000003          1.8932622232195460     
  0.12600000000000000          1.6000389683217118     
  0.12630000000000002          1.1594950886252999     
  0.12659999999999999         0.58367161614793572     
  0.12690000000000001        -0.10515333447474400     
  0.12719999999999998        -0.87579164848184432     
  0.12750000000000000         -1.6905593480495182     
  0.12780000000000002         -2.5080985443352901     
  0.12809999999999999         -3.2860666946937203     
  0.12840000000000001         -3.9844166312932723     
  0.12869999999999998         -4.5678028005829328     
  0.12900000000000000         -5.0078738962996088     
  0.12930000000000003         -5.2851036756883856     
  0.12959999999999999         -5.3895267192336664     
  0.12990000000000002         -5.3213390070277997     
  0.13019999999999998         -5.0902928124448410     
  0.13050000000000000         -4.7149752475220472     
  0.13080000000000003         -4.2214130374534884     
  0.13109999999999999         -3.6407341112391882     
  0.13140000000000002         -3.0074631472681554     
  0.13169999999999998         -2.3569278176741175     
  0.13200000000000001         -1.7226010172857056     
  0.13229999999999997         -1.1342521659805207     
  0.13260000000000000        -0.61518834820646207     
  0.13290000000000002        -0.18118889485319270     
  0.13319999999999999         0.16064684898944559     
  0.13350000000000001         0.41270251777452832     
  0.13380000000000003         0.58606265297864713     
  0.13410000000000000         0.69954864267827277     
  0.13440000000000002         0.77769164213449704     
  0.13469999999999999         0.84832189378960798     
  0.13500000000000001         0.93963793715458399     
  0.13529999999999998          1.0775288105849405     
  0.13560000000000000          1.2823869910326537     
  0.13590000000000002          1.5665757331287147     
  0.13619999999999999          1.9331243831584086     
  0.13650000000000001          2.3741917117765783     
  0.13680000000000003          2.8719624870314071     
  0.13710000000000000          3.3992375603721721     
  0.13740000000000002          3.9216987238910219     
  0.13769999999999999          4.4015959727385825     
  0.13800000000000001          4.7999147300133114     
  0.13829999999999998          5.0810126111365559     
  0.13860000000000000          5.2161015271076367     
  0.13890000000000002          5.1854108562674615     
  0.13919999999999999          4.9818700574861001     
  0.13950000000000001          4.6106532907706343     
  0.13979999999999998          4.0901788678600974     
  0.14010000000000000          3.4512974369658891     
  0.14040000000000002          2.7334982664927079     
  0.14069999999999999          1.9835851873990009     
  0.14100000000000001          1.2508636375166631     
  0.14130000000000004         0.58297107832368000     
  0.14160000000000000          2.2920746157292154E-002
  0.14189999999999997        -0.39573573392014560     
  0.14219999999999999        -0.65051464859469366     
  0.14250000000000002        -0.73221604360094661     
  0.14279999999999998        -0.64599971416257729     
  0.14310000000000000        -0.40970932363343743     
  0.14339999999999997         -5.3385277050770834E-002
  0.14369999999999999         0.38350769199169815     
  0.14400000000000002         0.85608152769129098     
  0.14429999999999998          1.3159153176847285     
  0.14460000000000001          1.7161562061964866     
  0.14490000000000003          2.0137071154678354     
  0.14520000000000000          2.1721350649095119     
  0.14550000000000002          2.1642312501090042     
  0.14579999999999999          1.9721141589135309     
  0.14610000000000001          1.5891508674463133     
  0.14640000000000003          1.0190430625348446     
  0.14670000000000000         0.27494337307040417     
  0.14699999999999996        -0.62072532150883875     
  0.14729999999999999         -1.6385455964563005     
  0.14760000000000001         -2.7428311682868940     
  0.14789999999999998         -3.8932153287195619     
  0.14820000000000000         -5.0466688896569893     