  -1.4999999999999999E-002     0.0000000000000000     
  -1.4700000000000000E-002     0.0000000000000000     
  -1.4400000000000000E-002     0.0000000000000000     
  -1.4100000000000000E-002     0.0000000000000000     
  -1.3800000000000000E-002     0.0000000000000000     
  -1.3500000000000000E-002     0.0000000000000000     
  -1.3200000000000000E-002     0.0000000000000000     
  -1.2899999999999998E-002     0.0000000000000000     
  -1.2600000000000000E-002     0.0000000000000000     
  -1.2299999999999998E-002     0.0000000000000000     
  -1.2000000000000000E-002     0.0000000000000000     
  -1.1699999999999999E-002     0.0000000000000000     
  -1.1399999999999999E-002     0.0000000000000000     
  -1.1099999999999999E-002     0.0000000000000000     
  -1.0799999999999999E-002     0.0000000000000000     
  -1.0499999999999999E-002     0.0000000000000000     
  -1.0199999999999999E-002     0.0000000000000000     
  -9.8999999999999991E-003     0.0000000000000000     
  -9.5999999999999992E-003     0.0000000000000000     
  -9.2999999999999992E-003     0.0000000000000000     
  -8.9999999999999993E-003     0.0000000000000000     
  -8.6999999999999994E-003     0.0000000000000000     
  -8.3999999999999995E-003    -7.6568177615433185E-046
  -8.0999999999999996E-003     3.3631973268897553E-037
  -7.7999999999999988E-003    -3.0809100877424682E-036
  -7.4999999999999997E-003    -2.7514341795823671E-035
  -7.1999999999999998E-003     3.9329736063906270E-034
  -6.8999999999999981E-003    -1.8731644736473894E-033
  -6.5999999999999982E-003     5.1319054569952969E-033
  -6.3000000000000000E-003    -1.7644593197335929E-032
  -6.0000000000000001E-003     5.3293529707307367E-032
  -5.6999999999999985E-003     8.4517509656426916E-031
  -5.3999999999999986E-003    -1.5379460514576068E-029
  -5.1000000000000004E-003     1.3417442748529598E-028
  -4.7999999999999987E-003    -8.0161336011160282E-028
  -4.5000000000000005E-003     3.6161598441640121E-027
  -4.1999999999999989E-003    -1.2753866692832672E-026
  -3.8999999999999990E-003     3.5118325589064743E-026
  -3.5999999999999990E-003    -7.1622507542535369E-026
  -3.2999999999999991E-003     8.4777295313957847E-026
  -2.9999999999999992E-003     6.3867682073464642E-026
  -2.6999999999999993E-003    -6.4691059141160083E-025
  -2.3999999999999994E-003     1.8357705845813867E-024
  -2.0999999999999977E-003    -2.6352055064964930E-024
  -1.7999999999999995E-003    -2.0172251779963177E-024
  -1.4999999999999979E-003     2.7568400492976511E-023
  -1.1999999999999997E-003    -1.1211345098555647E-022
  -8.9999999999999976E-004     3.3890438978609845E-022
  -5.9999999999999810E-004    -8.7597788079196136E-022
  -2.9999999999999992E-004     2.0416799712690937E-021
   0.0000000000000000         -4.4041436061408282E-021
   3.0000000000000165E-004     8.9237225007040696E-021
   5.9999999999999984E-004    -1.7173737155600032E-020
   9.0000000000000149E-004     3.1778820342884647E-020
   1.2000000000000031E-003    -5.7454399284819620E-020
   1.5000000000000013E-003     1.0342081920309575E-019
   1.8000000000000030E-003    -1.8834570257263508E-019
   2.1000000000000012E-003     3.4894100120105122E-019
   2.3999999999999994E-003    -6.5227380781878283E-019
   2.7000000000000010E-003     1.2089598856862885E-018
   2.9999999999999992E-003    -2.1789309976579628E-018
   3.3000000000000008E-003     3.7534742967368108E-018
   3.6000000000000025E-003    -6.0903502754651838E-018
   3.9000000000000007E-003     9.1843218480898102E-018
   4.2000000000000023E-003    -1.2687217149949762E-017
   4.5000000000000005E-003     1.5720481548062476E-017
   4.7999999999999987E-003    -1.6575301578185628E-017
   5.1000000000000004E-003     1.1558237788495582E-017
   5.4000000000000020E-003     8.7253568552032674E-018
   5.7000000000000037E-003    -6.6627607814136476E-017
   5.9999999999999984E-003     2.0320359935710254E-016
   6.3000000000000000E-003    -4.6831243809653974E-016
   6.6000000000000017E-003     8.8824649193279346E-016
   6.9000000000000034E-003    -1.4512806487716431E-015
   7.2000000000000015E-003     2.2085387797162286E-015
   7.5000000000000032E-003    -3.5418319325845709E-015
   7.8000000000000014E-003     6.3252632284830757E-015
   8.0999999999999996E-003    -1.0477839502962150E-014
   8.4000000000000012E-003     6.8954400981758450E-015
   8.7000000000000029E-003     4.3588827502476285E-014
   9.0000000000000011E-003    -2.1446115700104878E-013
   9.2999999999999992E-003     4.0681871650776640E-013
   9.6000000000000009E-003     5.9923598697897354E-013
   9.8999999999999991E-003    -7.2390597954091548E-012
   1.0200000000000001E-002     2.6989739108209157E-011
   1.0500000000000002E-002    -5.0585368850469422E-011
   1.0800000000000004E-002    -1.7124022346638495E-011
   1.1099999999999999E-002     4.0636988034216512E-010
   1.1400000000000000E-002    -1.0556110437699895E-009
   1.1700000000000002E-002     2.3747099933144871E-010
   1.2000000000000004E-002     5.2005514816053212E-009
   1.2300000000000002E-002    -9.6759653981914761E-009
   1.2600000000000000E-002    -1.1384059032820677E-008
   1.2900000000000002E-002     4.9851228308246659E-008
   1.3200000000000000E-002     1.4414826557316547E-008
   1.3500000000000002E-002    -1.9004577183385457E-007
   1.3800000000000003E-002    -7.4063479500797255E-008
   1.4100000000000001E-002     5.5791419788668428E-007
   1.4400000000000000E-002     4.7047368169027258E-007
   1.4700000000000001E-002    -1.2561385245466820E-006
   1.4999999999999999E-002    -1.9691268418372876E-006
   1.5300000000000001E-002     2.5876698733194590E-006
   1.5600000000000003E-002     1.0743739381470641E-005
   1.5899999999999997E-002     1.4271973001536204E-005
   1.6199999999999999E-002     1.1181645935689680E-005
   1.6500000000000001E-002     1.4327989316488208E-005
   1.6800000000000002E-002     3.7736942137042141E-005
   1.7100000000000004E-002     7.7490575323613015E-005
   1.7400000000000006E-002     1.1940508828566486E-004
   1.7700000000000000E-002     1.6696881524514706E-004
   1.8000000000000002E-002     2.4750842510077735E-004
   1.8300000000000004E-002     3.8599140140493097E-004
   1.8600000000000005E-002     5.8816813745948208E-004
   1.8900000000000000E-002     8.6134093039114590E-004
   1.9200000000000002E-002     1.2418987056461005E-003
   1.9500000000000003E-002     1.7876678032424775E-003
   1.9799999999999998E-002     2.5488882432535428E-003
   2.0100000000000000E-002     3.5688119260890339E-003
   2.0400000000000001E-002     4.9189853783559740E-003
   2.0700000000000003E-002     6.7103125836674316E-003
   2.0999999999999998E-002     9.0552854310740390E-003
   2.1299999999999999E-002     1.2044236620888606E-002
   2.1600000000000001E-002     1.5778541079222042E-002
   2.1900000000000003E-002     2.0396543044980200E-002
   2.2200000000000004E-002     2.6031333166450871E-002
   2.2500000000000006E-002     3.2753522457881830E-002
   2.2800000000000001E-002     4.0574135917825500E-002
   2.3100000000000002E-002     4.9475392737247798E-002
   2.3400000000000004E-002     5.9385674212392929E-002
   2.3699999999999999E-002     7.0113530231097135E-002
   2.4000000000000000E-002     8.1321892814110203E-002
   2.4300000000000002E-002     9.2549783378909289E-002
   2.4599999999999997E-002    0.10321377677795564     
   2.4900000000000005E-002    0.11256545476095325     
   2.5200000000000000E-002    0.11968329974402554     
   2.5499999999999995E-002    0.12353130107334447     
   2.5800000000000003E-002    0.12302232966081740     
   2.6099999999999998E-002    0.11705647867174164     
   2.6400000000000007E-002    0.10457487161721046     
   2.6700000000000002E-002     8.4661593743575805E-002
   2.6999999999999996E-002     5.6657529449521314E-002
   2.7300000000000005E-002     2.0247446533428148E-002
   2.7600000000000000E-002    -2.4461588309359707E-002
   2.7900000000000008E-002    -7.6836583089861660E-002
   2.8200000000000003E-002   -0.13565559234070362     
   2.8499999999999998E-002   -0.19914420819338238     
   2.8800000000000006E-002   -0.26502823039214934     
   2.9100000000000001E-002   -0.33056010840601929     
   2.9400000000000003E-002   -0.39262374129313354     
   2.9700000000000004E-002   -0.44796233134761071     
   3.0000000000000006E-002   -0.49342794873862450     
   3.0300000000000001E-002   -0.52616511381370634     
   3.0600000000000002E-002   -0.54380820767875615     
   3.0900000000000004E-002   -0.54470191997089112     
   3.1199999999999999E-002   -0.52808462254323840     
   3.1500000000000007E-002   -0.49413846716964110     
   3.1800000000000002E-002   -0.44397850769918490     
   3.2099999999999997E-002   -0.37958880387909716     
   3.2400000000000005E-002   -0.30362051062686674     
   3.2700000000000000E-002   -0.21915110507457405     
   3.3000000000000002E-002   -0.12938572260420073     
   3.3300000000000003E-002    -3.7342831762087095E-002
   3.3599999999999998E-002     5.4415800853298439E-002
   3.3900000000000000E-002    0.14396254244136242     
   3.4200000000000001E-002    0.23014055999531161     
   3.4500000000000003E-002    0.31263678383494231     
   3.4799999999999998E-002    0.39183931467809452     
   3.5099999999999999E-002    0.46861286687398046     
   3.5400000000000001E-002    0.54403547979293332     
   3.5699999999999996E-002    0.61901335262529633     
   3.6000000000000004E-002    0.69396106547042968     
   3.6299999999999999E-002    0.76861498699624431     
   3.6600000000000008E-002    0.84175912288428978     
   3.6900000000000002E-002    0.91094497401367691     
   3.7199999999999997E-002    0.97256932051586342     
   3.7500000000000006E-002     1.0222226109037402     
   3.7800000000000000E-002     1.0548869090935542     
   3.8100000000000009E-002     1.0650880054590040     
   3.8400000000000004E-002     1.0473236761900133     
   3.8699999999999998E-002    0.99662658953650152     
   3.9000000000000007E-002    0.90896425296342687     
   3.9300000000000002E-002    0.78169039911114147     
   3.9600000000000003E-002    0.61392788602444759     
   3.9900000000000005E-002    0.40678085988545498     
   4.0200000000000000E-002    0.16361503094806643     
   4.0500000000000001E-002   -0.10961713843525676     
   4.0800000000000003E-002   -0.40443779678535252     
   4.1100000000000005E-002   -0.71010068890640543     
   4.1399999999999999E-002    -1.0137805645412041     
   4.1700000000000008E-002    -1.3009734980537273     
   4.2000000000000003E-002    -1.5563432743542949     
   4.2299999999999997E-002    -1.7645565989617722     
   4.2600000000000006E-002    -1.9113002512390529     
   4.2900000000000001E-002    -1.9844835484652201     
   4.3200000000000002E-002    -1.9752882220265284     
   4.3500000000000004E-002    -1.8791020645547643     
   4.3799999999999999E-002    -1.6964021515314960     
   4.4100000000000000E-002    -1.4333161978211173     
   4.4400000000000002E-002    -1.1015850067573907     
   4.4700000000000004E-002   -0.71797721216422083     
   4.4999999999999998E-002   -0.30362811384826016     
   4.5300000000000000E-002    0.11714887624325207     
   4.5600000000000002E-002    0.51887689329478803     
   4.5899999999999996E-002    0.87673196681838494     
   4.6200000000000005E-002     1.1681695866802142     
   4.6500000000000000E-002     1.3748427283644260     
   4.6799999999999994E-002     1.4843984486679307     
   4.7100000000000003E-002     1.4914163012182144     
   4.7399999999999998E-002     1.3978894651648306     
   4.7700000000000006E-002     1.2131461862672908     
   4.8000000000000001E-002    0.95335869423833752     
   4.8300000000000010E-002    0.64032297649600212     
   4.8600000000000004E-002    0.29954990967499173     
   4.8899999999999999E-002    -4.1862901797203568E-002
   4.9200000000000008E-002   -0.35711501241297505     
   4.9500000000000002E-002   -0.62176010672370252     
   4.9800000000000011E-002   -0.81584081413166976     
   5.0100000000000006E-002   -0.92549231965689727     
   5.0400000000000000E-002   -0.94354567470654316     
   5.0700000000000009E-002   -0.86976323542611123     
   5.1000000000000004E-002   -0.71093403012149214     
   5.1299999999999998E-002   -0.47994106581369500     
   5.1600000000000007E-002   -0.19410923656407247     
   5.1900000000000002E-002    0.12639914410474878     
   5.2200000000000010E-002    0.46034104105240059     
   5.2500000000000005E-002    0.78714820326712154     
   5.2800000000000000E-002     1.0885152401737337     
   5.3099999999999994E-002     1.3496698859791612     
   5.3400000000000003E-002     1.5600364887603304     
   5.3699999999999998E-002     1.7132547561360629     
   5.4000000000000006E-002     1.8066437903285717     
   5.4300000000000001E-002     1.8404560764539977     
   5.4599999999999996E-002     1.8168311826240531     
   5.4900000000000004E-002     1.7383904016862675     
   5.5199999999999999E-002     1.6069786164294828     
   5.5499999999999994E-002     1.4231531301641440     
   5.5800000000000002E-002     1.1858627553307466     
   5.6099999999999997E-002    0.89258132791257050     
   5.6400000000000006E-002    0.54046552762061295     
   5.6700000000000000E-002    0.12782976497826098     
   5.6999999999999995E-002   -0.34438307410138325     
   5.7300000000000004E-002   -0.87085321552380246     
   5.7599999999999998E-002    -1.4401946822302554     
   5.7900000000000007E-002    -2.0341498268615035     
   5.8200000000000002E-002    -2.6279207931714312     
   5.8499999999999996E-002    -3.1909059612094399     
   5.8800000000000005E-002    -3.6885992492874311     
   5.9100000000000000E-002    -4.0855831015305446     
   5.9400000000000008E-002    -4.3491147800403569     
   5.9700000000000003E-002    -4.4525769969101612     
   6.0000000000000012E-002    -4.3788179200070090     
   6.0300000000000006E-002    -4.1228360045146921     
   6.0600000000000001E-002    -3.6929935434790093     
   6.0900000000000010E-002    -3.1111539968974915     
   6.1200000000000004E-002    -2.4112936803623231     
   6.1500000000000013E-002    -1.6363725213025195     
   6.1800000000000008E-002   -0.83426759181147891     
   6.2100000000000002E-002    -5.3296438573838624E-002
   6.2399999999999997E-002    0.66255830331136778     
   6.2700000000000006E-002     1.2778531014926313     
   6.3000000000000000E-002     1.7693117429477510     
   6.3300000000000009E-002     2.1276809643736114     
   6.3600000000000004E-002     2.3578240277633995     
   6.3899999999999998E-002     2.4774121600836758     
   6.4199999999999993E-002     2.5145661167453937     
   6.4500000000000002E-002     2.5042886052893261     
   6.4800000000000010E-002     2.4839791552042754     
   6.5100000000000005E-002     2.4890114534107104     
   6.5400000000000000E-002     2.5491677944884441     
   6.5700000000000008E-002     2.6858016612269875     
   6.5999999999999989E-002     2.9097830333658883     
   6.6299999999999998E-002     3.2206775124390177     
   6.6600000000000006E-002     3.6074839888181436     
   6.6900000000000001E-002     4.0501235656900674     
   6.7199999999999996E-002     4.5213640737715739     
   6.7500000000000004E-002     4.9895099096266113     
   6.7800000000000013E-002     5.4209745720603202     
   6.8099999999999994E-002     5.7823270087418139     
   6.8400000000000002E-002     6.0421865670235944     
   6.8700000000000011E-002     6.1729315014258956     
   6.8999999999999992E-002     6.1515830297174299     
   6.9300000000000000E-002     5.9599140518136995     
   6.9600000000000009E-002     5.5848859326078184     
   6.9900000000000004E-002     5.0189164844505179     
   7.0199999999999999E-002     4.2596949543645151     
   7.0500000000000007E-002     3.3103753815193557     
   7.0800000000000016E-002     2.1800410366089049     
   7.1099999999999997E-002    0.88409745487280678     
   7.1400000000000005E-002   -0.55533667664879349     
   7.1700000000000000E-002    -2.1089772390968342     
   7.1999999999999995E-002    -3.7404299949090785     
   7.2300000000000003E-002    -5.4066904323619012     
   7.2600000000000012E-002    -7.0591104336862465     
   7.2900000000000006E-002    -8.6447598835606776     
   7.3200000000000001E-002    -10.108631802491736     
   7.3499999999999996E-002    -11.396774928428554     
   7.3800000000000004E-002    -12.459056511191180     
   7.4099999999999999E-002    -13.251598950301295     
   7.4400000000000008E-002    -13.740063295542475     
   7.4700000000000003E-002    -13.901877983767003     
   7.5000000000000011E-002    -13.727107636183154     
   7.5299999999999992E-002    -13.219087251743657     
   7.5600000000000001E-002    -12.393757496156800     
   7.5900000000000009E-002    -11.277823156842388     
   7.6200000000000004E-002    -9.9063689572000104     
   7.6499999999999999E-002    -8.3201139283204242     
   7.6800000000000007E-002    -6.5620344483406532     
   7.7099999999999988E-002    -4.6744669799620233     
   7.7399999999999997E-002    -2.6973897877964017     
   7.7700000000000005E-002   -0.66726225715364806     
   7.8000000000000014E-002     1.3832225248164798     
   7.8299999999999995E-002     3.4245275367726435     
   7.8600000000000003E-002     5.4282816241551561     
   7.8900000000000012E-002     7.3646476561861798     
   7.9199999999999993E-002     9.2010972331826544     
   7.9500000000000001E-002     10.900359810008815     
   7.9800000000000010E-002     12.419072770162082     
   8.0100000000000018E-002     13.708666435506109     
   8.0399999999999999E-002     14.717664328649072     
   8.0700000000000008E-002     15.394230437015109     
   8.1000000000000003E-002     15.690246170446645     
   8.1299999999999997E-002     15.566714833398599     
   8.1600000000000006E-002     14.998056020296792     
   8.1900000000000014E-002     13.976407640270427     
   8.2199999999999995E-002     12.515508325170009     
   8.2500000000000004E-002     10.652372081629215     
   8.2799999999999999E-002     8.4469993277738915     
   8.3100000000000007E-002     5.9808929760030658     
   8.3400000000000002E-002     3.3540231261145221     
   8.3700000000000011E-002    0.67933270932241230     
   8.4000000000000005E-002    -1.9233871272658911     
   8.4300000000000000E-002    -4.3337663562545830     
   8.4599999999999995E-002    -6.4382088987351613     
   8.4900000000000003E-002    -8.1370914346752858     
   8.5199999999999998E-002    -9.3503701733303490     
   8.5500000000000007E-002    -10.023322806929654     
   8.5800000000000001E-002    -10.131344538669003     
   8.6100000000000010E-002    -9.6812875183164557     
   8.6399999999999991E-002    -8.7121799126383870     
   8.6699999999999999E-002    -7.2952158917645802     
   8.7000000000000008E-002    -5.5301321437329980     
   8.7300000000000003E-002    -3.5386878418383074     
   8.7599999999999997E-002    -1.4582300849354648     
   8.7900000000000006E-002    0.56559658496470411     
   8.8200000000000014E-002     2.3892945850829297     
   8.8499999999999995E-002     3.8823198520916744     
   8.8800000000000004E-002     4.9352106042287263     
   8.9100000000000013E-002     5.4676517303427952     
   8.9399999999999993E-002     5.4359601793812935     
   8.9700000000000002E-002     4.8365897134521214     
   9.0000000000000011E-002     3.7071553924441321     
   9.0299999999999991E-002     2.1244442094359033     
   9.0600000000000000E-002    0.19884995419355828     
   9.0900000000000009E-002    -1.9329310080594744     
   9.1200000000000017E-002    -4.1175221314796397     
   9.1499999999999998E-002    -6.1964715348241874     
   9.1800000000000007E-002    -8.0185201569542492     
   9.2100000000000001E-002    -9.4503276422502882     
   9.2399999999999996E-002    -10.386046157657653     
   9.2700000000000005E-002    -10.755535819873845     
   9.3000000000000013E-002    -10.529617056506771     
   9.3300000000000008E-002    -9.7212064322147214     
   9.3600000000000003E-002    -8.3838794615315031     
   9.3899999999999997E-002    -6.6082456928228135     
   9.4200000000000006E-002    -4.5138291253897584     
   9.4500000000000001E-002    -2.2388843985321993     
   9.4800000000000009E-002     6.9290505332942315E-002
   9.5100000000000004E-002     2.2656406755780973     
   9.5399999999999999E-002     4.2185748921681956     
   9.5699999999999993E-002     5.8192060888281869     
   9.6000000000000002E-002     6.9887569543218859     
   9.6300000000000011E-002     7.6827309536354367     
   9.6600000000000005E-002     7.8926346637392095     
   9.6900000000000000E-002     7.6451471232439996     
   9.7200000000000009E-002     6.9977119497931390     
   9.7499999999999989E-002     6.0321505832796101     
   9.7799999999999998E-002     4.8464773762076385     
   9.8100000000000007E-002     3.5462044682989782     
   9.8400000000000015E-002     2.2361316044436421     
   9.8699999999999996E-002     1.0116153657802049     
   9.9000000000000005E-002    -4.8066861103825916E-002
   9.9300000000000013E-002   -0.88395521390563425     
   9.9599999999999994E-002    -1.4601598522942147     
   9.9900000000000003E-002    -1.7644655128379605     
  0.10020000000000001         -1.8062368006520055     
  0.10049999999999999         -1.6130387178443057     
  0.10080000000000000         -1.2260535432378523     
  0.10110000000000001        -0.69541307351022907     
  0.10140000000000000         -7.5334161578896233E-002
  0.10170000000000000         0.58149558628127873     
  0.10200000000000001          1.2276387047916930     
  0.10230000000000002          1.8232973452939962     
  0.10260000000000000          2.3378991541106964     
  0.10290000000000001          2.7509986660627903     
  0.10320000000000000          3.0522286074224545     
  0.10350000000000001          3.2394930407410687     
  0.10380000000000000          3.3168460356136977     
  0.10410000000000001          3.2934237918590203     
  0.10440000000000001          3.1820596659923122     
  0.10470000000000000          2.9964426987546426     
  0.10500000000000000          2.7498437446896471     
  0.10530000000000000          2.4547058690336065     
  0.10560000000000000          2.1218654342744894     
  0.10590000000000001          1.7605069198416028     
  0.10620000000000000          1.3785077945825621     
  0.10650000000000001         0.98221321121803640     
  0.10679999999999999         0.57723613904823790     
  0.10710000000000000         0.16900559254883432     
  0.10740000000000001        -0.23697794785880416     
  0.10770000000000000        -0.63490223969922510     
  0.10800000000000000         -1.0195957308180668     
  0.10830000000000001         -1.3864048483479512     
  0.10859999999999999         -1.7311048152797299     
  0.10890000000000000         -2.0513681896084690     
  0.10920000000000001         -2.3467075246652662     
  0.10950000000000001         -2.6187404905548246     
  0.10979999999999999         -2.8712824997448090     
  0.11009999999999999         -3.1090087020653177     
  0.11040000000000001         -3.3370038504373185     
  0.11070000000000001         -3.5602439788799862     
  0.11100000000000000         -3.7822824777780313     
  0.11130000000000000         -4.0038470006174229     
  0.11160000000000002         -4.2220090521206730     
  0.11190000000000001         -4.4309533649536030     
  0.11220000000000001         -4.6233337861124140     
  0.11250000000000000         -4.7899712006436221     
  0.11280000000000000         -4.9213779799607664     
  0.11309999999999999         -5.0100010237144721     
  0.11340000000000001         -5.0507286376835623     
  0.11369999999999998         -5.0417311976415720     
  0.11400000000000000         -4.9838317243358636     
  0.11430000000000000         -4.8786648153170722     
  0.11460000000000002         -4.7277253548456883     
  0.11489999999999999         -4.5298741788232411     
  0.11520000000000001         -4.2790201694925969     
  0.11550000000000001         -3.9626718626482913     
  0.11580000000000000         -3.5610321723508331     
  0.11609999999999999         -3.0488425585615229     
  0.11640000000000002         -2.3984011677936916     
  0.11670000000000001         -1.5830009481090070     
  0.11700000000000001        -0.58199050046601464     
  0.11730000000000000         0.61371809472436756     
  0.11760000000000000          1.9972393089294112     
  0.11789999999999999          3.5425025482065213     
  0.11820000000000001          5.2037580903193552     
  0.11850000000000001          6.9178402729901629     
  0.11880000000000000          8.6081387724242688     
  0.11910000000000000          10.190773644247189     
  0.11940000000000002          11.583326926731237     
  0.11970000000000001          12.713417603040829     
  0.12000000000000001          13.526345777384424     
  0.12030000000000000          13.990380798873039     
  0.12060000000000000          14.099203621346193     
  0.12089999999999999          13.872001217117553     
  0.12119999999999999          13.349170274391614     
  0.12150000000000001          12.584272954779196     
  0.12180000000000001          11.635204915851226     
  0.12210000000000000          10.554002440522794     
  0.12239999999999999          9.3760001142683862     
  0.12270000000000002          8.1130931163945572     
  0.12300000000000001          6.7504775613903005     
  0.12330000000000001          5.2462418495324883     
  0.12360000000000000          3.5364790762768457     
  0.12390000000000000          1.5457728001109199     
  0.12419999999999999        -0.79821639023150248     
  0.12450000000000001         -3.5496821069806241     
  0.12480000000000001         -6.7287262526682063     
  0.12509999999999999         -10.305397731503721     
  0.12540000000000001         -14.190553269654000     
  0.12570000000000003         -18.231822419451721     
  0.12600000000000000         -22.215255031810308     
  0.12630000000000002         -25.876914120788747     
  0.12659999999999999         -28.921481095068600     
  0.12690000000000001         -31.046316959970053     
  0.12719999999999998         -31.969668187856247     
  0.12750000000000000         -31.460964949834501     
  0.12780000000000002         -29.368985024406335     
  0.12809999999999999         -25.643210379179799     
  0.12840000000000001         -20.348427923975439     
  0.12869999999999998         -13.672242556624914     
  0.12900000000000000         -5.9171301951777791     
  0.12930000000000003          2.5180856759857178     
  0.12959999999999999          11.162240610422270     
  0.12990000000000002          19.506650231681526     
  0.13019999999999998          27.044241873026564     
  0.13050000000000000          33.307902058531489     
  0.13080000000000003          37.905870931787433     
  0.13109999999999999          40.552858740157497     
  0.13140000000000002          41.090612774230422     
  0.13169999999999998          39.497076455582231     
  0.13200000000000001          35.886896691473495     
  0.13229999999999997          30.501086045640601     
  0.13260000000000000          23.684804035024175     
  0.13290000000000002          15.858826056480414     
  0.13319999999999999          7.4906003260491225     
  0.13350000000000001        -0.93954843010626921     
  0.13380000000000003         -8.9727064269048213     
  0.13410000000000000         -16.198172882311926     
  0.13440000000000002         -22.275265779764599     
  0.13469999999999999         -26.950579557884382     
  0.13500000000000001         -30.067782206353471     
  0.13529999999999998         -31.568388695812580     
  0.13560000000000000         -31.487334021904410     
  0.13590000000000002         -29.943173248419555     
  0.13619999999999999         -27.124304728668264     
  0.13650000000000001         -23.272585981415233     
  0.13680000000000003         -18.663081463950618     
  0.13710000000000000         -13.585470692022405     
  0.13740000000000002         -8.3276450422386414     
  0.13769999999999999         -3.1593438935267537     
  0.13800000000000001          1.6825130024323338     
  0.13829999999999998          6.0038988249985756     
  0.13860000000000000          9.6581931866074147     
  0.13890000000000002          12.549336887273787     
  0.13919999999999999          14.633774191450710     
  0.13950000000000001          15.915324563882532     
  0.13979999999999998          16.437161792169611     
  0.14010000000000000          16.275536902681750     
  0.14040000000000002          15.531365799734793     
  0.14069999999999999          14.319862826255479     
  0.14100000000000001          12.761769821462861     
  0.14130000000000004          10.975562694655469     
  0.14160000000000000          9.0715272005765399     
  0.14189999999999997          7.1464379137674516     
  0.14219999999999999          5.2814205676221766     
  0.14250000000000002          3.5403787302190675     
  0.14279999999999998          1.9684183343957253     
  0.14310000000000000         0.59387572566328894     
  0.14339999999999997        -0.56893814013050770     
  0.14369999999999999         -1.5192535282756781     
  0.14400000000000002         -2.2676366726207147     
  0.14429999999999998         -2.8322607303844722     
  0.14460000000000001         -3.2365831084405174     
  0.14490000000000003         -3.5075725231971675     
  0.14520000000000000         -3.6734172020935034     
  0.14550000000000002         -3.7612267670016828     
  0.14579999999999999         -3.7955740662336663     
  0.14610000000000001         -3.7969077836989147     
  0.14640000000000003         -3.7804468920001479     
  0.14670000000000000         -3.7566298330030001     
  0.14699999999999996         -3.7311314455336571     
  0.14729999999999999         -3.7043918503149862     
  0.14760000000000001         -3.6728900819737449     
  0.14789999999999998         -3.6305662557615013     
  0.14820000000000000         -3.5701593341675002     