  -1.4999999999999999E-002     0.0000000000000000     
  -1.4700000000000000E-002     0.0000000000000000     
  -1.4400000000000000E-002     0.0000000000000000     
  -1.4100000000000000E-002     0.0000000000000000     
  -1.3800000000000000E-002     0.0000000000000000     
  -1.3500000000000000E-002    -5.1296891953423605E-039
  -1.3200000000000000E-002     1.4264237654245691E-035
  -1.2899999999999998E-002    -1.1643264430259208E-033
  -1.2600000000000000E-002     9.0608297685116318E-033
  -1.2299999999999998E-002     8.6621612291019029E-032
  -1.2000000000000000E-002     4.4322740374418713E-031
  -1.1699999999999999E-002     1.4520094638360543E-029
  -1.1399999999999999E-002    -7.4408372939564062E-028
  -1.1099999999999999E-002     5.5000487160588752E-027
  -1.0799999999999999E-002     6.6267265748085579E-026
  -1.0499999999999999E-002    -1.6450571140046194E-024
  -1.0199999999999999E-002     1.4827223396435276E-023
  -9.8999999999999991E-003    -6.5691996177739971E-023
  -9.5999999999999992E-003     4.5905847023734282E-023
  -9.2999999999999992E-003     1.2550857382831455E-021
  -8.9999999999999993E-003    -9.0217532041562958E-021
  -8.6999999999999994E-003     3.7511001172689243E-020
  -8.3999999999999995E-003    -1.1666261045732944E-019
  -8.0999999999999996E-003     2.9442047780145582E-019
  -7.7999999999999988E-003    -6.0514620177520031E-019
  -7.4999999999999997E-003     9.7957459697840324E-019
  -7.1999999999999998E-003    -1.1929417909440051E-018
  -6.8999999999999981E-003     1.0210128931476477E-018
  -6.5999999999999982E-003    -7.5507945802078573E-019
  -6.3000000000000000E-003     8.5359832904016291E-019
  -6.0000000000000001E-003     9.5840014193636267E-018
  -5.6999999999999985E-003    -8.9918999208513788E-017
  -5.3999999999999986E-003     3.5424340817385784E-016
  -5.1000000000000004E-003    -7.3855416017105066E-016
  -4.7999999999999987E-003     3.5481012627791672E-016
  -4.5000000000000005E-003     3.1215361896752352E-015
  -4.1999999999999989E-003    -1.2220050407125034E-014
  -3.8999999999999990E-003     2.3968400196231355E-014
  -3.5999999999999990E-003    -2.1497742752297890E-014
  -3.2999999999999991E-003    -2.3764267632266115E-014
  -2.9999999999999992E-003     1.2275084134243144E-013
  -2.6999999999999993E-003    -2.2115245997817272E-013
  -2.3999999999999994E-003     1.8417751273825564E-013
  -2.0999999999999977E-003     1.2495043524787142E-013
  -1.7999999999999995E-003    -6.7370543535177252E-013
  -1.4999999999999979E-003     1.1170892053703138E-012
  -1.1999999999999997E-003    -8.8717217235330011E-013
  -8.9999999999999976E-004    -3.3727789910216951E-013
  -5.9999999999999810E-004     2.0021362109668337E-012
  -2.9999999999999992E-004    -2.7876172936572633E-012
   0.0000000000000000          2.1025486198529371E-012
   3.0000000000000165E-004    -1.3285068112927644E-012
   5.9999999999999984E-004     2.0060774088830364E-012
   9.0000000000000149E-004    -2.2528112568396821E-012
   1.2000000000000031E-003    -2.3041915458293196E-012
   1.5000000000000013E-003     1.2335762557549888E-011
   1.8000000000000030E-003    -2.9390641021146236E-011
   2.1000000000000012E-003     7.9649707401006689E-011
   2.3999999999999994E-003    -1.8893963465011749E-010
   2.7000000000000010E-003     1.9980492818154875E-010
   2.9999999999999992E-003     4.1950241679835843E-010
   3.3000000000000008E-003    -2.2228401110130461E-009
   3.6000000000000025E-003     4.5597818761041467E-009
   3.9000000000000007E-003    -3.4020199606292975E-009
   4.2000000000000023E-003    -1.1727942494807788E-008
   4.5000000000000005E-003     4.9797276245609532E-008
   4.7999999999999987E-003    -6.2833433385449807E-008
   5.1000000000000004E-003    -1.0852256199530041E-007
   5.4000000000000020E-003     4.4777693038733428E-007
   5.7000000000000037E-003    -1.2283656511870970E-007
   5.9999999999999984E-003    -1.5470780073235756E-006
   6.3000000000000000E-003     1.0900490916118810E-006
   6.6000000000000017E-003     4.3057190065209276E-006
   6.9000000000000034E-003    -2.6405511148412563E-006
   7.2000000000000015E-003    -1.2895011097339981E-005
   7.5000000000000032E-003     5.6095286869616910E-007
   7.8000000000000014E-003     5.7516783591901709E-005
   8.0999999999999996E-003     1.5351217515762985E-004
   8.4000000000000012E-003     2.7612245178815128E-004
   8.7000000000000029E-003     4.2942152068584414E-004
   9.0000000000000011E-003     6.3860112352818045E-004
   9.2999999999999992E-003     9.5860843771820121E-004
   9.6000000000000009E-003     1.4782165210361531E-003
   9.8999999999999991E-003     2.2989439497260776E-003
   1.0200000000000001E-002     3.5366386958317368E-003
   1.0500000000000002E-002     5.3431159205795092E-003
   1.0800000000000004E-002     7.9281238058841932E-003
   1.1099999999999999E-002     1.1595648952477380E-002
   1.1400000000000000E-002     1.6752512234012425E-002
   1.1700000000000002E-002     2.3891027673611030E-002
   1.2000000000000004E-002     3.3586682414059724E-002
   1.2300000000000002E-002     4.6511990847044639E-002
   1.2600000000000000E-002     6.3442370555598315E-002
   1.2900000000000002E-002     8.5201639043625932E-002
   1.3200000000000000E-002    0.11259585486975038     
   1.3500000000000002E-002    0.14636450825547656     
   1.3800000000000003E-002    0.18705234630362014     
   1.4100000000000001E-002    0.23482371148140521     
   1.4400000000000000E-002    0.28927989674573823     
   1.4700000000000001E-002    0.34927832758438726     
   1.4999999999999999E-002    0.41273341065414670     
   1.5300000000000001E-002    0.47636783965913776     
   1.5600000000000003E-002    0.53557658504098060     
   1.5899999999999997E-002    0.58436760197159632     
   1.6199999999999999E-002    0.61540089536490616     
   1.6500000000000001E-002    0.62018643026666420     
   1.6800000000000002E-002    0.58938334625251820     
   1.7100000000000004E-002    0.51344028180403645     
   1.7400000000000006E-002    0.38342996685094249     
   1.7700000000000000E-002    0.19205979197080561     
   1.8000000000000002E-002    -6.5227746445221987E-002
   1.8300000000000004E-002   -0.38917339508883581     
   1.8600000000000005E-002   -0.77569664996005472     
   1.8900000000000000E-002    -1.2150504082581213     
   1.9200000000000002E-002    -1.6913230704681426     
   1.9500000000000003E-002    -2.1824573347588263     
   1.9799999999999998E-002    -2.6607736119996903     
   2.0100000000000000E-002    -3.0942871489568424     
   2.0400000000000001E-002    -3.4485356728530800     
   2.0700000000000003E-002    -3.6890007127020201     
   2.0999999999999998E-002    -3.7839005541932611     
   2.1299999999999999E-002    -3.7069672296177303     
   2.1600000000000001E-002    -3.4403673586978085     
   2.1900000000000003E-002    -2.9770367791648447     
   2.2200000000000004E-002    -2.3224081183068410     
   2.2500000000000006E-002    -1.4952621285181822     
   2.2800000000000001E-002   -0.52731865571463554     
   2.3100000000000002E-002    0.53808092087493220     
   2.3400000000000004E-002     1.6483869008258345     
   2.3699999999999999E-002     2.7450749514307557     
   2.4000000000000000E-002     3.7677997773487597     
   2.4300000000000002E-002     4.6582996431484744     
   2.4599999999999997E-002     5.3648147560994728     
   2.4900000000000005E-002     5.8457675983869297     
   2.5200000000000000E-002     6.0723713896693639     
   2.5499999999999995E-002     6.0311894506464334     
   2.5800000000000003E-002     5.7244180727388354     
   2.6099999999999998E-002     5.1699184931508251     
   2.6400000000000007E-002     4.4003131726028935     
   2.6700000000000002E-002     3.4596921905403160     
   2.6999999999999996E-002     2.4018831199962682     
   2.7300000000000005E-002     1.2862673333057510     
   2.7600000000000000E-002    0.17406283697492464     
   2.7900000000000008E-002   -0.87418137272408170     
   2.8200000000000003E-002    -1.8031648466789267     
   2.8499999999999998E-002    -2.5649478949875859     
   2.8800000000000006E-002    -3.1211262419630064     
   2.9100000000000001E-002    -3.4460791568163565     
   2.9400000000000003E-002    -3.5262947053713352     
   2.9700000000000004E-002    -3.3625558158046682     
   3.0000000000000006E-002    -2.9691473704107243     
   3.0300000000000001E-002    -2.3723060021980560     
   3.0600000000000002E-002    -1.6108117689284562     
   3.0900000000000004E-002   -0.73207203850176916     
   3.1199999999999999E-002    0.20968764492220271     
   3.1500000000000007E-002     1.1556776446129184     
   3.1800000000000002E-002     2.0475790917593719     
   3.2099999999999997E-002     2.8292892113938772     
   3.2400000000000005E-002     3.4509367870307557     
   3.2700000000000000E-002     3.8723561845020900     
   3.3000000000000002E-002     4.0639113028360807     
   3.3300000000000003E-002     4.0097914406898045     
   3.3599999999999998E-002     3.7079603411927291     
   3.3900000000000000E-002     3.1693455241583188     
   3.4200000000000001E-002     2.4182060424487002     
   3.4500000000000003E-002     1.4885793928091844     
   3.4799999999999998E-002    0.42249044648386902     
   3.5099999999999999E-002   -0.73267189860855075     
   3.5400000000000001E-002    -1.9286132685858211     
   3.5699999999999996E-002    -3.1173774022093501     
   3.6000000000000004E-002    -4.2551455517848638     
   3.6299999999999999E-002    -5.3040650856165419     
   3.6600000000000008E-002    -6.2325278342017922     
   3.6900000000000002E-002    -7.0174365327660482     
   3.7199999999999997E-002    -7.6424897108530647     
   3.7500000000000006E-002    -8.0981304966010725     
   3.7800000000000000E-002    -8.3805735737583777     
   3.8100000000000009E-002    -8.4894228152304319     
   3.8400000000000004E-002    -8.4274281843249135     
   3.8699999999999998E-002    -8.1979345459639337     
   3.9000000000000007E-002    -7.8043184762185689     
   3.9300000000000002E-002    -7.2491681618645316     
   3.9600000000000003E-002    -6.5338685978073823     
   3.9900000000000005E-002    -5.6596150198118469     
   4.0200000000000000E-002    -4.6271804739718583     
   4.0500000000000001E-002    -3.4395223486720656     
   4.0800000000000003E-002    -2.1020535538009493     
   4.1100000000000005E-002   -0.62453695449799507     
   4.1399999999999999E-002    0.97559139314077514     
   4.1700000000000008E-002     2.6750730033362342     
   4.2000000000000003E-002     4.4414470369119474     
   4.2299999999999997E-002     6.2334936470906994     
   4.2600000000000006E-002     8.0037673047424391     
   4.2900000000000001E-002     9.6961913357301341     
   4.3200000000000002E-002     11.251526029877613     
   4.3500000000000004E-002     12.608999250194382     
   4.3799999999999999E-002     13.707633810532620     
   4.4100000000000000E-002     14.493378216122323     
   4.4400000000000002E-002     14.918478036527635     
   4.4700000000000004E-002     14.946198928344643     
   4.4999999999999998E-002     14.554683046720880     
   4.5300000000000000E-002     13.734795415554826     
   4.5600000000000002E-002     12.495937222709923     
   4.5899999999999996E-002     10.863747385373792     
   4.6200000000000005E-002     8.8791682075062148     
   4.6500000000000000E-002     6.6007686773519536     
   4.6799999999999994E-002     4.0980314953049959     
   4.7100000000000003E-002     1.4533200963548367     
   4.7399999999999998E-002    -1.2420273662747148     
   4.7700000000000006E-002    -3.8936983722307392     
   4.8000000000000001E-002    -6.4031359814804478     
   4.8300000000000010E-002    -8.6761338582321947     
   4.8600000000000004E-002    -10.625043397065388     
   4.8899999999999999E-002    -12.171747771356126     
   4.9200000000000008E-002    -13.255648287132336     
   4.9500000000000002E-002    -13.833665046268900     
   4.9800000000000011E-002    -13.885781517845320     
   5.0100000000000006E-002    -13.418689078839638     
   5.0400000000000000E-002    -12.463737248791954     
   5.0700000000000009E-002    -11.080669234990525     
   5.1000000000000004E-002    -9.3535918536654368     
   5.1299999999999998E-002    -7.3865608516431802     
   5.1600000000000007E-002    -5.3013182468068507     
   5.1900000000000002E-002    -3.2267609375265387     
   5.2200000000000010E-002    -1.2915520667632803     
   5.2500000000000005E-002    0.38308250491355911     
   5.2800000000000000E-002     1.6960843127602656     
   5.3099999999999994E-002     2.5711196706997295     
   5.3400000000000003E-002     2.9646800006953899     
   5.3699999999999998E-002     2.8722118490258133     
   5.4000000000000006E-002     2.3248249158088021     
   5.4300000000000001E-002     1.3926764341389015     
   5.4599999999999996E-002    0.17665320119692818     
   5.4900000000000004E-002    -1.1994730376592082     
   5.5199999999999999E-002    -2.5968077337473665     
   5.5499999999999994E-002    -3.8764877022906958     
   5.5800000000000002E-002    -4.9090025986686125     
   5.6099999999999997E-002    -5.5863440449951547     
   5.6400000000000006E-002    -5.8319687895189336     
   5.6700000000000000E-002    -5.6055988056314225     
   5.6999999999999995E-002    -4.9074105138405342     
   5.7300000000000004E-002    -3.7763225928238455     
   5.7599999999999998E-002    -2.2858311169397187     
   5.7900000000000007E-002   -0.53584771318156155     
   5.8200000000000002E-002     1.3578290777541215     
   5.8499999999999996E-002     3.2737654154740583     
   5.8800000000000005E-002     5.0970299632663991     
   5.9100000000000000E-002     6.7281328092060866     
   5.9400000000000008E-002     8.0923760045815634     
   5.9700000000000003E-002     9.1424959308333396     
   6.0000000000000012E-002     9.8610088627048995     
   6.0300000000000006E-002     10.259320338906388     
   6.0600000000000001E-002     10.370164812814515     
   6.0900000000000010E-002     10.244915045945149     
   6.1200000000000004E-002     9.9438537081888434     
   6.1500000000000013E-002     9.5283503318847664     
   6.1800000000000008E-002     9.0562973318009377     
   6.2100000000000002E-002     8.5737633304442618     
   6.2399999999999997E-002     8.1138719866699276     
   6.2700000000000006E-002     7.6937658511952201     
   6.3000000000000000E-002     7.3142607850025128     
   6.3300000000000009E-002     6.9623918909937732     
   6.3600000000000004E-002     6.6127570643270754     
   6.3899999999999998E-002     6.2311733079610736     
   6.4199999999999993E-002     5.7785721294816126     
   6.4500000000000002E-002     5.2154993236009091     
   6.4800000000000010E-002     4.5042327193807488     
   6.5100000000000005E-002     3.6158978582843995     
   6.5400000000000000E-002     2.5315059702647873     
   6.5700000000000008E-002     1.2452623301974322     
   6.5999999999999989E-002   -0.23113959184934985     
   6.6299999999999998E-002    -1.8731490258901160     
   6.6600000000000006E-002    -3.6392375929008094     
   6.6900000000000001E-002    -5.4776807806679804     
   6.7199999999999996E-002    -7.3329321713801630     
   6.7500000000000004E-002    -9.1479067083818979     
   6.7800000000000013E-002    -10.876152487141308     
   6.8099999999999994E-002    -12.486299037450966     
   6.8400000000000002E-002    -13.965112053911112     
   6.8700000000000011E-002    -15.324034242093724     
   6.8999999999999992E-002    -16.591613008969421     
   6.9300000000000000E-002    -17.809291761633673     
   6.9600000000000009E-002    -19.022154953028437     
   6.9900000000000004E-002    -20.259704978239110     
   7.0199999999999999E-002    -21.527017515694350     
   7.0500000000000007E-002    -22.786769996227676     
   7.0800000000000016E-002    -23.948868959209175     
   7.1099999999999997E-002    -24.870702906112264     
   7.1400000000000005E-002    -25.353143861680419     
   7.1700000000000000E-002    -25.159064578252966     
   7.1999999999999995E-002    -24.032861513311968     
   7.2300000000000003E-002    -21.723920988147793     
   7.2600000000000012E-002    -18.025961608448739     
   7.2900000000000006E-002    -12.803242548179297     
   7.3200000000000001E-002    -6.0248928658850982     
   7.3499999999999996E-002     2.2115833648891492     
   7.3800000000000004E-002     11.671512090112294     
   7.4099999999999999E-002     21.977288343628246     
   7.4400000000000008E-002     32.626878343011029     
   7.4700000000000003E-002     43.020845259359902     
   7.5000000000000011E-002     52.500586922069715     
   7.5299999999999992E-002     60.398688745426675     
   7.5600000000000001E-002     66.095249120947599     
   7.5900000000000009E-002     69.065626299644777     
   7.6200000000000004E-002     68.934848981442144     
   7.6499999999999999E-002     65.513849052027894     
   7.6800000000000007E-002     58.819251257896660     
   7.7099999999999988E-002     49.090441026348216     
   7.7399999999999997E-002     36.770084969338043     
   7.7700000000000005E-002     22.482631413811202     
   7.8000000000000014E-002     6.9933130816565310     
   7.8299999999999995E-002    -8.8534299496271966     
   7.8600000000000003E-002    -24.185042404560448     
   7.8900000000000012E-002    -38.168173123614579     
   7.9199999999999993E-002    -50.069097554586484     
   7.9500000000000001E-002    -59.294159902016780     
   7.9800000000000010E-002    -65.437761365079595     
   8.0100000000000018E-002    -68.297443157213010     
   8.0399999999999999E-002    -67.876190683673229     
   8.0700000000000008E-002    -64.381346186532667     
   8.1000000000000003E-002    -58.186271005969466     
   8.1299999999999997E-002    -49.801672993955009     
   8.1600000000000006E-002    -39.831088170274271     
   8.1900000000000014E-002    -28.916096075653925     
   8.2199999999999995E-002    -17.700582808840696     
   8.2500000000000004E-002    -6.7833352464156302     
   8.2799999999999999E-002     3.3189683970024486     
   8.3100000000000007E-002     12.185621873381146     
   8.3400000000000002E-002     19.516533782580115     
   8.3700000000000011E-002     25.132838746677457     
   8.4000000000000005E-002     28.966724745958398     
   8.4300000000000000E-002     31.062636657007374     
   8.4599999999999995E-002     31.546632063632934     
   8.4900000000000003E-002     30.615135235276682     
   8.5199999999999998E-002     28.516794067231142     
   8.5500000000000007E-002     25.518886895327206     
   8.5800000000000001E-002     21.905813682438716     
   8.6100000000000010E-002     17.949809960636742     
   8.6399999999999991E-002     13.898339443173260     
   8.6699999999999999E-002     9.9746640189724669     
   8.7000000000000008E-002     6.3525472526739755     
   8.7300000000000003E-002     3.1666146007512044     
   8.7599999999999997E-002    0.50604249242061794     
   8.7900000000000006E-002    -1.5916609917936699     
   8.8200000000000014E-002    -3.1207696153499107     
   8.8499999999999995E-002    -4.1167995711138978     
   8.8800000000000004E-002    -4.6428520755543659     
   8.9100000000000013E-002    -4.7736213120721231     
   8.9399999999999993E-002    -4.6025853723478427     
   8.9700000000000002E-002    -4.2181968892129964     
   9.0000000000000011E-002    -3.7025036757977094     
   9.0299999999999991E-002    -3.1330925743163944     
   9.0600000000000000E-002    -2.5634730189999706     
   9.0900000000000009E-002    -2.0366293173531860     
   9.1200000000000017E-002    -1.5815414736586595     
   9.1499999999999998E-002    -1.2070166771762967     
   9.1800000000000007E-002   -0.92036790975031968     
   9.2100000000000001E-002   -0.71683613058800244     
   9.2399999999999996E-002   -0.58659690744661774     
   9.2700000000000005E-002   -0.52571890817167177     
   9.3000000000000013E-002   -0.52131918210653150     
   9.3300000000000008E-002   -0.56702699077915963     
   9.3600000000000003E-002   -0.65744518575996791     
   9.3899999999999997E-002   -0.78048200093717801     
   9.4200000000000006E-002   -0.93201202826911600     
   9.4500000000000001E-002    -1.1004306006308830     
   9.4800000000000009E-002    -1.2735734802083820     
   9.5100000000000004E-002    -1.4436447946322630     
   9.5399999999999999E-002    -1.5962355329023676     
   9.5699999999999993E-002    -1.7230370745497214     
   9.6000000000000002E-002    -1.8178997675317567     
   9.6300000000000011E-002    -1.8751346369913824     
   9.6600000000000005E-002    -1.8966091331279276     
   9.6900000000000000E-002    -1.8847113073193782     
   9.7200000000000009E-002    -1.8441124138866991     
   9.7499999999999989E-002    -1.7828264036387471     
   9.7799999999999998E-002    -1.7056080860372751     
   9.8100000000000007E-002    -1.6165104177226279     
   9.8400000000000015E-002    -1.5186969340032723     
   9.8699999999999996E-002    -1.4090852843148882     
   9.9000000000000005E-002    -1.2851455140560071     
   9.9300000000000013E-002    -1.1421884508983322     
   9.9599999999999994E-002   -0.97283944647126419     
   9.9900000000000003E-002   -0.77503234383384434     
  0.10020000000000001        -0.54580188577524469     
  0.10049999999999999        -0.28644994400851265     
  0.10080000000000000         -3.2860846735138574E-003
  0.10110000000000001         0.29758342804012095     
  0.10140000000000000         0.60470948154131920     
  0.10170000000000000         0.90604532910277680     
  0.10200000000000001          1.1919932443362000     
  0.10230000000000002          1.4511224062820502     
  0.10260000000000000          1.6764455368650990     
  0.10290000000000001          1.8634802427892616     
  0.10320000000000000          2.0080854315368581     
  0.10350000000000001          2.1120420408075020     
  0.10380000000000000          2.1755061678111964     
  0.10410000000000001          2.1997312779543128     
  0.10440000000000001          2.1884939918728454     
  0.10470000000000000          2.1413354832564826     
  0.10500000000000000          2.0597086470846047     
  0.10530000000000000          1.9447377220115984     
  0.10560000000000000          1.7945497816195985     
  0.10590000000000001          1.6119018493411617     
  0.10620000000000000          1.3983887908293313     
  0.10650000000000001          1.1559658588151800     
  0.10679999999999999         0.89307476725271151     
  0.10710000000000000         0.61394090290418579     
  0.10740000000000001         0.32847085309928553     
  0.10770000000000000          4.6998645788492444E-002
  0.10800000000000000        -0.22477604647029362     
  0.10830000000000001        -0.47478262631071988     
  0.10859999999999999        -0.69906509714437437     
  0.10890000000000000        -0.89342770320777853     
  0.10920000000000001         -1.0536949552848305     
  0.10950000000000001         -1.1833607360043339     
  0.10979999999999999         -1.2822111851101943     
  0.11009999999999999         -1.3545663872213454     
  0.11040000000000001         -1.4052476733244277     
  0.11070000000000001         -1.4355678378604591     
  0.11100000000000000         -1.4496189759246003     
  0.11130000000000000         -1.4478734227755652     
  0.11160000000000002         -1.4288555185887586     
  0.11190000000000001         -1.3910262818825518     
  0.11220000000000001         -1.3305718303863983     
  0.11250000000000000         -1.2436314396474930     
  0.11280000000000000         -1.1276780452658242     
  0.11309999999999999        -0.98118343529532337     
  0.11340000000000001        -0.80452001058848099     
  0.11369999999999998        -0.60307968624742436     
  0.11400000000000000        -0.38328291834537714     
  0.11430000000000000        -0.15597675671711758     
  0.11460000000000002          6.4305085810236917E-002
  0.11489999999999999         0.26515728069841477     
  0.11520000000000001         0.43021126389834974     
  0.11550000000000001         0.54712034565159540     
  0.11580000000000000         0.60855648751395253     
  0.11609999999999999         0.60851939584048476     
  0.11640000000000002         0.55111435877389758     
  0.11670000000000001         0.44539752635737456     
  0.11700000000000001         0.30432674733564163     
  0.11730000000000000         0.14920945184137488     
  0.11760000000000000          8.5635631554666775E-005
  0.11789999999999999        -0.12265849907392268     
  0.11820000000000001        -0.20037250054532213     
  0.11850000000000001        -0.22490757104195525     
  0.11880000000000000        -0.19269561282285630     
  0.11910000000000000        -0.11024384307750829     
  0.11940000000000002          3.2071068129729263E-003
  0.11970000000000001         0.12728784317717445     
  0.12000000000000001         0.23342164158110651     
  0.12030000000000000         0.29308330138008232     
  0.12060000000000000         0.28773310291958248     
  0.12089999999999999         0.19989755054127811     
  0.12119999999999999          3.1587014377168349E-002
  0.12150000000000001        -0.20301464526125029     
  0.12180000000000001        -0.47981926072945169     
  0.12210000000000000        -0.75489933427998768     
  0.12239999999999999        -0.98625149051213401     
  0.12270000000000002         -1.1255947909455053     
  0.12300000000000001         -1.1284897180901516     
  0.12330000000000001        -0.96945935357820279     
  0.12360000000000000        -0.63177456368413321     
  0.12390000000000000        -0.12512158870871312     
  0.12419999999999999         0.51992569230146080     
  0.12450000000000001          1.2579099076332605     
  0.12480000000000001          2.0212748572110533     
  0.12509999999999999          2.7401775704102764     
  0.12540000000000001          3.3419430872688647     
  0.12570000000000003          3.7586461861281824     
  0.12600000000000000          3.9423821367821112     
  0.12630000000000002          3.8616410802694734     
  0.12659999999999999          3.5098485458292545     
  0.12690000000000001          2.9076300234339696     
  0.12719999999999998          2.0950632917124095     
  0.12750000000000000          1.1321177438610772     
  0.12780000000000002          9.3153213318421080E-002
  0.12809999999999999        -0.94599078503041101     
  0.12840000000000001         -1.9074834607665334     
  0.12869999999999998         -2.7221583236336042     
  0.12900000000000000         -3.3387565762922917     
  0.12930000000000003         -3.7174453822742626     
  0.12959999999999999         -3.8434165843553387     
  0.12990000000000002         -3.7205889293485996     
  0.13019999999999998         -3.3668034886981331     
  0.13050000000000000         -2.8233048611085803     
  0.13080000000000003         -2.1347768276829275     
  0.13109999999999999         -1.3565158657593823     
  0.13140000000000002        -0.54937543926576593     
  0.13169999999999998         0.23532722641465886     
  0.13200000000000001         0.94444378963098408     
  0.13229999999999997          1.5372976343643081     
  0.13260000000000000          1.9858414313165507     
  0.13290000000000002          2.2692899135509248     
  0.13319999999999999          2.3849732195553837     
  0.13350000000000001          2.3392303017095575     
  0.13380000000000003          2.1478269468485287     
  0.13410000000000000          1.8398320363264888     
  0.13440000000000002          1.4448804660988461     
  0.13469999999999999         0.99693250009025514     
  0.13500000000000001         0.53223889855784146     
  0.13529999999999998          7.9196326897672753E-002
  0.13560000000000000        -0.33471806546945337     
  0.13590000000000002        -0.68956677635570107     
  0.13619999999999999        -0.97559006967617989     
  0.13650000000000001         -1.1854312585220999     
  0.13680000000000003         -1.3224097851765371     
  0.13710000000000000         -1.3939834190922538     
  0.13740000000000002         -1.4084660303433241     
  0.13769999999999999         -1.3804330830459421     
  0.13800000000000001         -1.3206483356948264     
  0.13829999999999998         -1.2400658895482910     
  0.13860000000000000         -1.1495996954925261     
  0.13890000000000002         -1.0539787104219460     
  0.13919999999999999        -0.95897497360850603     
  0.13950000000000001        -0.86670310394321559     
  0.13979999999999998        -0.77653222901015795     
  0.14010000000000000        -0.68882864685123646     
  0.14040000000000002        -0.60125641315058309     
  0.14069999999999999        -0.51136582109875439     
  0.14100000000000001        -0.41683362501799287     
  0.14130000000000004        -0.31529542147485912     
  0.14160000000000000        -0.20317227238203034     
  0.14189999999999997         -7.9653297470792472E-002
  0.14219999999999999          5.7147741909832545E-002
  0.14250000000000002         0.20871289559982720     
  0.14279999999999998         0.37163173129300775     
  0.14310000000000000         0.54570162987848314     
  0.14339999999999997         0.72415154405494986     
  0.14369999999999999         0.90030349978504054     
  0.14400000000000002          1.0689516438376478     
  0.14429999999999998          1.2173002913963518     
  0.14460000000000001          1.3394113066350679     
  0.14490000000000003          1.4265182972735280     
  0.14520000000000000          1.4699670478493896     
  0.14550000000000002          1.4701642462970173     
  0.14579999999999999          1.4214593461463350     
  0.14610000000000001          1.3266104321355312     
  0.14640000000000003          1.1913640503442160     
  0.14670000000000000          1.0171086068052362     
  0.14699999999999996         0.81534776957673560     
  0.14729999999999999         0.59144743855611548     
  0.14760000000000001         0.35182749167970295     
  0.14789999999999998         0.10809815412309884     
  0.14820000000000000        -0.13674851550796452     