  -1.4999999999999999E-002     0.0000000000000000     
  -1.4700000000000000E-002     0.0000000000000000     
  -1.4400000000000000E-002     0.0000000000000000     
  -1.4100000000000000E-002     0.0000000000000000     
  -1.3800000000000000E-002     0.0000000000000000     
  -1.3500000000000000E-002     0.0000000000000000     
  -1.3200000000000000E-002     0.0000000000000000     
  -1.2899999999999998E-002     0.0000000000000000     
  -1.2600000000000000E-002     0.0000000000000000     
  -1.2299999999999998E-002     0.0000000000000000     
  -1.2000000000000000E-002     0.0000000000000000     
  -1.1699999999999999E-002     0.0000000000000000     
  -1.1399999999999999E-002     0.0000000000000000     
  -1.1099999999999999E-002     0.0000000000000000     
  -1.0799999999999999E-002     0.0000000000000000     
  -1.0499999999999999E-002     0.0000000000000000     
  -1.0199999999999999E-002     0.0000000000000000     
  -9.8999999999999991E-003     0.0000000000000000     
  -9.5999999999999992E-003     0.0000000000000000     
  -9.2999999999999992E-003     0.0000000000000000     
  -8.9999999999999993E-003     0.0000000000000000     
  -8.6999999999999994E-003     0.0000000000000000     
  -8.3999999999999995E-003     0.0000000000000000     
  -8.0999999999999996E-003     0.0000000000000000     
  -7.7999999999999988E-003     0.0000000000000000     
  -7.4999999999999997E-003     0.0000000000000000     
  -7.1999999999999998E-003     0.0000000000000000     
  -6.8999999999999981E-003     0.0000000000000000     
  -6.5999999999999982E-003     0.0000000000000000     
  -6.3000000000000000E-003     0.0000000000000000     
  -6.0000000000000001E-003     0.0000000000000000     
  -5.6999999999999985E-003     0.0000000000000000     
  -5.3999999999999986E-003     0.0000000000000000     
  -5.1000000000000004E-003     0.0000000000000000     
  -4.7999999999999987E-003     0.0000000000000000     
  -4.5000000000000005E-003     0.0000000000000000     
  -4.1999999999999989E-003     0.0000000000000000     
  -3.8999999999999990E-003     0.0000000000000000     
  -3.5999999999999990E-003     0.0000000000000000     
  -3.2999999999999991E-003     0.0000000000000000     
  -2.9999999999999992E-003     0.0000000000000000     
  -2.6999999999999993E-003     0.0000000000000000     
  -2.3999999999999994E-003     0.0000000000000000     
  -2.0999999999999977E-003     0.0000000000000000     
  -1.7999999999999995E-003     0.0000000000000000     
  -1.4999999999999979E-003     0.0000000000000000     
  -1.1999999999999997E-003     0.0000000000000000     
  -8.9999999999999976E-004     0.0000000000000000     
  -5.9999999999999810E-004     0.0000000000000000     
  -2.9999999999999992E-004     0.0000000000000000     
   0.0000000000000000         -7.9137383492077749E-045
   3.0000000000000165E-004     8.2825727695230812E-044
   5.9999999999999984E-004    -4.7917812244937475E-038
   9.0000000000000149E-004     1.5080635346809887E-036
   1.2000000000000031E-003    -9.4966299566152134E-036
   1.5000000000000013E-003     1.9637821689123577E-035
   1.8000000000000030E-003     9.1563734305184400E-035
   2.1000000000000012E-003    -7.6792504583198654E-034
   2.3999999999999994E-003     2.8718336422472025E-033
   2.7000000000000010E-003    -2.6486655865739871E-033
   2.9999999999999992E-003    -1.2334268005304092E-032
   3.3000000000000008E-003     7.1028697499698555E-032
   3.6000000000000025E-003    -2.0153603488482657E-031
   3.9000000000000007E-003     3.8098701228426191E-031
   4.2000000000000023E-003    -4.4918055753758160E-031
   4.5000000000000005E-003    -1.1029543794896813E-031
   4.7999999999999987E-003     2.4070136175945867E-030
   5.1000000000000004E-003    -5.0282568561597270E-030
   5.4000000000000020E-003     1.8843137235223507E-030
   5.7000000000000037E-003    -4.8586227149744686E-029
   5.9999999999999984E-003     3.1825421167986796E-028
   6.3000000000000000E-003     3.2271433625126523E-030
   6.6000000000000017E-003    -4.9015313875658234E-027
   6.9000000000000034E-003     6.6585984540794968E-027
   7.2000000000000015E-003     1.1563881017168632E-025
   7.5000000000000032E-003    -8.8636363811218569E-025
   7.8000000000000014E-003     2.9632510376918011E-024
   8.0999999999999996E-003     1.3945759839466884E-024
   8.4000000000000012E-003    -7.7833694246787344E-023
   8.7000000000000029E-003     4.9618643375341077E-022
   9.0000000000000011E-003    -1.8443461160436129E-021
   9.2999999999999992E-003     4.0730477780848967E-021
   9.6000000000000009E-003    -2.0686477417683977E-021
   9.8999999999999991E-003    -1.9262225399573982E-020
   1.0200000000000001E-002     3.8315972671385604E-020
   1.0500000000000002E-002     3.9467875531161269E-019
   1.0800000000000004E-002    -4.1980743588594583E-018
   1.1099999999999999E-002     2.5842683653976327E-017
   1.1400000000000000E-002    -1.2930066683689489E-016
   1.1700000000000002E-002     5.8070719714077980E-016
   1.2000000000000004E-002    -2.4313997927627081E-015
   1.2300000000000002E-002     9.5384565516628318E-015
   1.2600000000000000E-002    -3.4359646199973077E-014
   1.2900000000000002E-002     1.0828340455505966E-013
   1.3200000000000000E-002    -2.6726330004465952E-013
   1.3500000000000002E-002     3.2490666787206195E-013
   1.3800000000000003E-002     1.2391695674611185E-012
   1.4100000000000001E-002    -1.0427557471104782E-011
   1.4400000000000000E-002     4.0523881254269560E-011
   1.4700000000000001E-002    -9.1900764380241010E-011
   1.4999999999999999E-002     4.7066318054366477E-011
   1.5300000000000001E-002     5.0768408459815416E-010
   1.5600000000000003E-002    -1.9358812971405075E-009
   1.5899999999999997E-002     2.2671068575604621E-009
   1.6199999999999999E-002     5.3685760185087937E-009
   1.6500000000000001E-002    -2.1764259488726945E-008
   1.6800000000000002E-002     9.7769040617646892E-009
   1.7100000000000004E-002     7.6568628763311340E-008
   1.7400000000000006E-002    -1.0085523282977691E-007
   1.7700000000000000E-002    -2.2005516880426066E-007
   1.8000000000000002E-002     3.0325941638263456E-007
   1.8300000000000004E-002     6.4158850604566794E-007
   1.8600000000000005E-002    -5.9140324615740295E-007
   1.8900000000000000E-002    -2.2477110795155290E-006
   1.9200000000000002E-002     3.1156748849748672E-007
   1.9500000000000003E-002     1.2187176687887820E-005
   1.9799999999999998E-002     3.5005810327195062E-005
   2.0100000000000000E-002     6.7462263771455835E-005
   2.0400000000000001E-002     1.0976975228478782E-004
   2.0700000000000003E-002     1.6764191800966858E-004
   2.0999999999999998E-002     2.5454829755654793E-004
   2.1299999999999999E-002     3.9082846653846462E-004
   2.1600000000000001E-002     6.0178804524365661E-004
   2.1900000000000003E-002     9.1996933580091992E-004
   2.2200000000000004E-002     1.3891154530477909E-003
   2.2500000000000006E-002     2.0681335387690899E-003
   2.2800000000000001E-002     3.0369213484182462E-003
   2.3100000000000002E-002     4.4001899228577109E-003
   2.3400000000000004E-002     6.2887751814962121E-003
   2.3699999999999999E-002     8.8610005633625033E-003
   2.4000000000000000E-002     1.2302254207046434E-002
   2.4300000000000002E-002     1.6823088586893142E-002
   2.4599999999999997E-002     2.2650059092947455E-002
   2.4900000000000005E-002     3.0008820526300561E-002
   2.5200000000000000E-002     3.9102136710509341E-002
   2.5499999999999995E-002     5.0078495852982692E-002
   2.5800000000000003E-002     6.2989740956118673E-002
   2.6099999999999998E-002     7.7738872912106641E-002
   2.6400000000000007E-002     9.4016737333161404E-002
   2.6700000000000002E-002    0.11124281478776196     
   2.6999999999999996E-002    0.12850740429487478     
   2.7300000000000005E-002    0.14451734584707923     
   2.7600000000000000E-002    0.15757486075944710     
   2.7900000000000008E-002    0.16558940554270685     
   2.8200000000000003E-002    0.16611918654282040     
   2.8499999999999998E-002    0.15649722375595818     
   2.8800000000000006E-002    0.13398341718186127     
   2.9100000000000001E-002     9.5997504125565514E-002
   2.9400000000000003E-002     4.0428887856237758E-002
   2.9700000000000004E-002    -3.4060283942848844E-002
   3.0000000000000006E-002   -0.12767581493578450     
   3.0300000000000001E-002   -0.23916879039125050     
   3.0600000000000002E-002   -0.36559277393385003     
   3.0900000000000004E-002   -0.50211387363067139     
   3.1199999999999999E-002   -0.64204406097119149     
   3.1500000000000007E-002   -0.77697961757027778     
   3.1800000000000002E-002   -0.89719807228607051     
   3.2099999999999997E-002   -0.99222218036356302     
   3.2400000000000005E-002    -1.0515530009603062     
   3.2700000000000000E-002    -1.0655653377078782     
   3.3000000000000002E-002    -1.0264464522505901     
   3.3300000000000003E-002   -0.92904256942751939     
   3.3599999999999998E-002   -0.77175097994398201     
   3.3900000000000000E-002   -0.55696105516307870     
   3.4200000000000001E-002   -0.29129832812995049     
   3.4500000000000003E-002     1.4337016784378863E-002
   3.4799999999999998E-002    0.34554856552114188     
   3.5099999999999999E-002    0.68485759895388665     
   3.5400000000000001E-002     1.0133448728195367     
   3.5699999999999996E-002     1.3116074661275792     
   3.6000000000000004E-002     1.5614081459068263     
   3.6299999999999999E-002     1.7471718609687492     
   3.6600000000000008E-002     1.8568852953250179     
   3.6900000000000002E-002     1.8835055641724041     
   3.7199999999999997E-002     1.8250778736327788     
   3.7500000000000006E-002     1.6851670582506659     
   3.7800000000000000E-002     1.4724523886678171     
   3.8100000000000009E-002     1.1998854772588954     
   3.8400000000000004E-002    0.88399081748765262     
   3.8699999999999998E-002    0.54316723055792460     
   3.9000000000000007E-002    0.19675770495411674     
   3.9300000000000002E-002   -0.13661877352349847     
   3.9600000000000003E-002   -0.44025116371763395     
   3.9900000000000005E-002   -0.70004384652434537     
   4.0200000000000000E-002   -0.90579383303356475     
   4.0500000000000001E-002    -1.0509592156062135     
   4.0800000000000003E-002    -1.1333439206933766     
   4.1100000000000005E-002    -1.1545001128566792     
   4.1399999999999999E-002    -1.1194833388071470     
   4.1700000000000008E-002    -1.0363478548248104     
   4.2000000000000003E-002   -0.91497038889909643     
   4.2299999999999997E-002   -0.76697438295764331     
   4.2600000000000006E-002   -0.60417228537390255     
   4.2900000000000001E-002   -0.43833336089615571     
   4.3200000000000002E-002   -0.28049022045302535     
   4.3500000000000004E-002   -0.13998274790484791     
   4.3799999999999999E-002    -2.4679782474136578E-002
   4.4100000000000000E-002     6.0125241346778498E-002
   4.4400000000000002E-002    0.11127720202954169     
   4.4700000000000004E-002    0.12809360963891198     
   4.4999999999999998E-002    0.11250878379295333     
   4.5300000000000000E-002     6.8285185721614877E-002
   4.5600000000000002E-002     1.4450215300451329E-003
   4.5899999999999996E-002    -8.0728040157257985E-002
   4.6200000000000005E-002   -0.16997122711056797     
   4.6500000000000000E-002   -0.25751071971643474     
   4.6799999999999994E-002   -0.33499917066088991     
   4.7100000000000003E-002   -0.39471858323286790     
   4.7399999999999998E-002   -0.43044566631114739     
   4.7700000000000006E-002   -0.43765422202127058     
   4.8000000000000001E-002   -0.41390558592689897     
   4.8300000000000010E-002   -0.35890823167558966     
   4.8600000000000004E-002   -0.27444609643263879     
   4.8899999999999999E-002   -0.16429811459488627     
   4.9200000000000008E-002    -3.3769989839142207E-002
   4.9500000000000002E-002    0.11053900442663382     
   4.9800000000000011E-002    0.26147738002376336     
   5.0100000000000006E-002    0.41129720006141512     
   5.0400000000000000E-002    0.55244433582494379     
   5.0700000000000009E-002    0.67776012046846623     
   5.1000000000000004E-002    0.78029286437743284     
   5.1299999999999998E-002    0.85425424119850846     
   5.1600000000000007E-002    0.89426815047370511     
   5.1900000000000002E-002    0.89618902950113544     
   5.2200000000000010E-002    0.85692250311422746     
   5.2500000000000005E-002    0.77439361447650001     
   5.2800000000000000E-002    0.64853363929878272     
   5.3099999999999994E-002    0.48062330265841025     
   5.3400000000000003E-002    0.27442601196456912     
   5.3699999999999998E-002     3.6006357237128910E-002
   5.4000000000000006E-002   -0.22634267725871751     
   5.4300000000000001E-002   -0.50146513987242203     
   5.4599999999999996E-002   -0.77643984252879816     
   5.4900000000000004E-002    -1.0363296229178862     
   5.5199999999999999E-002    -1.2654306837390070     
   5.5499999999999994E-002    -1.4481191574874310     
   5.5800000000000002E-002    -1.5695999793641238     
   5.6099999999999997E-002    -1.6177265572094401     
   5.6400000000000006E-002    -1.5834709331955730     
   5.6700000000000000E-002    -1.4623259233219130     
   5.6999999999999995E-002    -1.2548206976478296     
   5.7300000000000004E-002   -0.96673482057353988     
   5.7599999999999998E-002   -0.60921465868419589     
   5.7900000000000007E-002   -0.19824228848356606     
   5.8200000000000002E-002    0.24628368176903123     
   5.8499999999999996E-002    0.70199167684930908     
   5.8800000000000005E-002     1.1451473210667253     
   5.9100000000000000E-002     1.5526554537139952     
   5.9400000000000008E-002     1.9032399585535520     
   5.9700000000000003E-002     2.1792755037763176     
   6.0000000000000012E-002     2.3678300272850543     
   6.0300000000000006E-002     2.4609451170436905     
   6.0600000000000001E-002     2.4567696911761696     
   6.0900000000000010E-002     2.3586227748269497     
   6.1200000000000004E-002     2.1746680585742917     
   6.1500000000000013E-002     1.9169297066038207     
   6.1800000000000008E-002     1.5998344272403091     
   6.2100000000000002E-002     1.2393990613402790     
   6.2399999999999997E-002    0.85108088147530470     
   6.2700000000000006E-002    0.44934366997976793     
   6.3000000000000000E-002     4.6755960231369520E-002
   6.3300000000000009E-002   -0.34703523597199504     
   6.3600000000000004E-002   -0.72457886125210869     
   6.3899999999999998E-002    -1.0807075505445496     
   6.4199999999999993E-002    -1.4118039576476198     
   6.4500000000000002E-002    -1.7148796250003846     
   6.4800000000000010E-002    -1.9867118487684301     
   6.5100000000000005E-002    -2.2230551094923361     
   6.5400000000000000E-002    -2.4182297999931346     
   6.5700000000000008E-002    -2.5649862075571770     
   6.5999999999999989E-002    -2.6545769930971739     
   6.6299999999999998E-002    -2.6773164021232674     
   6.6600000000000006E-002    -2.6242062791551652     
   6.6900000000000001E-002    -2.4873847716855910     
   6.7199999999999996E-002    -2.2617890612634657     
   6.7500000000000004E-002    -1.9464937260827895     
   6.7800000000000013E-002    -1.5449337817629807     
   6.8099999999999994E-002    -1.0662530573957072     
   6.8400000000000002E-002   -0.52489095670221098     
   6.8700000000000011E-002     5.9972029044652542E-002
   6.8999999999999992E-002    0.66488682211220163     
   6.9300000000000000E-002     1.2641104300317214     
   6.9600000000000009E-002     1.8301992207614148     
   6.9900000000000004E-002     2.3364968053562163     
   7.0199999999999999E-002     2.7581991879541268     
   7.0500000000000007E-002     3.0735768994628270     
   7.0800000000000016E-002     3.2657026975792980     
   7.1099999999999997E-002     3.3225452655880705     
   7.1400000000000005E-002     3.2379851135823108     
   7.1700000000000000E-002     3.0113839948721930     
   7.1999999999999995E-002     2.6484420205017312     
   7.2300000000000003E-002     2.1602244348342832     
   7.2600000000000012E-002     1.5630193988353507     
   7.2900000000000006E-002    0.87852443327085339     
   7.3200000000000001E-002    0.13215951825460714     
   7.3499999999999996E-002   -0.64627740522710952     
   7.3800000000000004E-002    -1.4246861664136570     
   7.4099999999999999E-002    -2.1686207943185578     
   7.4400000000000008E-002    -2.8433246286530882     
   7.4700000000000003E-002    -3.4156112336585114     
   7.5000000000000011E-002    -3.8541600376607827     
   7.5299999999999992E-002    -4.1332702328875799     
   7.5600000000000001E-002    -4.2329673492438076     
   7.5900000000000009E-002    -4.1415705451802705     
   7.6200000000000004E-002    -3.8567993467381876     
   7.6499999999999999E-002    -3.3854851614298602     
   7.6800000000000007E-002    -2.7451302967281137     
   7.7099999999999988E-002    -1.9616793430804629     
   7.7399999999999997E-002    -1.0694189183293281     
   7.7700000000000005E-002   -0.10852623333065223     
   7.8000000000000014E-002    0.87712666873498479     
   7.8299999999999995E-002     1.8420868805508208     
   7.8600000000000003E-002     2.7421836502127892     
   7.8900000000000012E-002     3.5365318871934828     
   7.9199999999999993E-002     4.1899165714112172     
   7.9500000000000001E-002     4.6735667794328499     
   7.9800000000000010E-002     4.9669837585884560     
   8.0100000000000018E-002     5.0581288010552017     
   8.0399999999999999E-002     4.9436406815244514     
   8.0700000000000008E-002     4.6290445117488312     
   8.1000000000000003E-002     4.1275286535895717     
   8.1299999999999997E-002     3.4604515964893130     
   8.1600000000000006E-002     2.6557328709406764     
   8.1900000000000014E-002     1.7472039537006292     
   8.2199999999999995E-002    0.77403654000054323     
   8.2500000000000004E-002   -0.22138696612498812     
   8.2799999999999999E-002    -1.1938820867806359     
   8.3100000000000007E-002    -2.0980698837771796     
   8.3400000000000002E-002    -2.8905391467415456     
   8.3700000000000011E-002    -3.5308022287263814     
   8.4000000000000005E-002    -3.9859516433322817     
   8.4300000000000000E-002    -4.2308573568738055     
   8.4599999999999995E-002    -4.2515630607442132     
   8.4900000000000003E-002    -4.0474038049646888     
   8.5199999999999998E-002    -3.6298749413136782     
   8.5500000000000007E-002    -3.0254495146088574     
   8.5800000000000001E-002    -2.2722139391274405     
   8.6100000000000010E-002    -1.4186263141024824     
   8.6399999999999991E-002   -0.52116001367682885     
   8.6699999999999999E-002    0.36148207586079872     
   8.7000000000000008E-002     1.1707359473143599     
   8.7300000000000003E-002     1.8540053295306906     
   8.7599999999999997E-002     2.3683903156720989     
   8.7900000000000006E-002     2.6837739900199087     
   8.8200000000000014E-002     2.7860686752775661     
   8.8499999999999995E-002     2.6769323341817817     
   8.8800000000000004E-002     2.3743104945624887     
   8.9100000000000013E-002     1.9103980091132191     
   8.9399999999999993E-002     1.3286043444334816     
   8.9700000000000002E-002    0.67968005400455112     
   9.0000000000000011E-002     1.7338198648373212E-002
   9.0299999999999991E-002   -0.60591989342659014     
   9.0600000000000000E-002    -1.1435108155930538     
   9.0900000000000009E-002    -1.5574226370180146     
   9.1200000000000017E-002    -1.8215423839030644     
   9.1499999999999998E-002    -1.9225924062166098     
   9.1800000000000007E-002    -1.8603373847769453     
   9.2100000000000001E-002    -1.6481040832501406     
   9.2399999999999996E-002    -1.3092159182699439     
   9.2700000000000005E-002   -0.87687202087087068     
   9.3000000000000013E-002   -0.39015053688817197     
   9.3300000000000008E-002    0.10928218992486399     
   9.3600000000000003E-002    0.57821402952430345     
   9.3899999999999997E-002    0.97765509514176874     
   9.4200000000000006E-002     1.2728564603279837     
   9.4500000000000001E-002     1.4372260491813560     
   9.4800000000000009E-002     1.4539687626135318     
   9.5100000000000004E-002     1.3155585605326641     
   9.5399999999999999E-002     1.0270010402935523     
   9.5699999999999993E-002    0.60327073604035553     
   9.6000000000000002E-002     6.9603106392713318E-002
   9.6300000000000011E-002   -0.54014565120358082     
   9.6600000000000005E-002    -1.1865876404674611     
   9.6900000000000000E-002    -1.8260663192247162     
   9.7200000000000009E-002    -2.4151226895658646     
   9.7499999999999989E-002    -2.9128443619470508     
   9.7799999999999998E-002    -3.2839044979785772     
   9.8100000000000007E-002    -3.5014810073129956     
   9.8400000000000015E-002    -3.5487422531755337     
   9.8699999999999996E-002    -3.4206843059441905     
   9.9000000000000005E-002    -3.1237907197202106     
   9.9300000000000013E-002    -2.6755995645587691     
   9.9599999999999994E-002    -2.1037480828856023     
   9.9900000000000003E-002    -1.4427096932173553     
  0.10020000000000001        -0.73132397360694701     
  0.10049999999999999         -1.0031170123806782E-002
  0.10080000000000000         0.68251661039198852     
  0.10110000000000001          1.3129116051326741     
  0.10140000000000000          1.8542043933780870     
  0.10170000000000000          2.2887725632962321     
  0.10200000000000001          2.6089470228964777     
  0.10230000000000002          2.8162863138351351     
  0.10260000000000000          2.9223759090684069     
  0.10290000000000001          2.9449407987988283     
  0.10320000000000000          2.9077846933195568     
  0.10350000000000001          2.8375992671862322     
  0.10380000000000000          2.7597274618462597     
  0.10410000000000001          2.6985432852555040     
  0.10440000000000001          2.6718709110902195     
  0.10470000000000000          2.6913399214465459     
  0.10500000000000000          2.7609292848213718     
  0.10530000000000000          2.8749629714183627     
  0.10560000000000000          3.0209268678296071     
  0.10590000000000001          3.1787673501363098     
  0.10620000000000000          3.3236123546877270     
  0.10650000000000001          3.4279505239155199     
  0.10679999999999999          3.4640385187189491     
  0.10710000000000000          3.4070412293640016     
  0.10740000000000001          3.2374734204322593     
  0.10770000000000000          2.9436285004649569     
  0.10800000000000000          2.5219847878086918     
  0.10830000000000001          1.9799764108174502     
  0.10859999999999999          1.3344556279536672     
  0.10890000000000000         0.61115632589791513     
  0.10920000000000001        -0.15703435077139655     
  0.10950000000000001        -0.93304602443638973     
  0.10979999999999999         -1.6777513313813739     
  0.11009999999999999         -2.3544212790410519     
  0.11040000000000001         -2.9306491799677175     
  0.11070000000000001         -3.3817390416609414     
  0.11100000000000000         -3.6926874208136358     
  0.11130000000000000         -3.8586098355009892     
  0.11160000000000002         -3.8862995452263558     
  0.11190000000000001         -3.7922417632019174     
  0.11220000000000001         -3.6011035129920468     
  0.11250000000000000         -3.3441948747100261     
  0.11280000000000000         -3.0549070848327942     
  0.11309999999999999         -2.7681675104105370     
  0.11340000000000001         -2.5154040109411522     
  0.11369999999999998         -2.3223741373293807     
  0.11400000000000000         -2.2094128479625179     
  0.11430000000000000         -2.1874325614649526     
  0.11460000000000002         -2.2596097285650574     
  0.11489999999999999         -2.4204616759830855     
  0.11520000000000001         -2.6569750415227475     
  0.11550000000000001         -2.9510962939935692     
  0.11580000000000000         -3.2792625261232797     
  0.11609999999999999         -3.6152789278733732     
  0.11640000000000002         -3.9317693249769725     
  0.11670000000000001         -4.2007464766030482     
  0.11700000000000001         -4.3965720415390468     
  0.11730000000000000         -4.4960168981320603     
  0.11760000000000000         -4.4780329781358574     
  0.11789999999999999         -4.3269809765402281     
  0.11820000000000001         -4.0313524289001013     
  0.11850000000000001         -3.5847879966966594     
  0.11880000000000000         -2.9878884943973856     
  0.11910000000000000         -2.2454644938484831     
  0.11940000000000002         -1.3699074426158266     
  0.11970000000000001        -0.37906514648142048     
  0.12000000000000001         0.70435591592269242     
  0.12030000000000000          1.8509486913714897     
  0.12060000000000000          3.0287856839044158     
  0.12089999999999999          4.2016057530773026     
  0.12119999999999999          5.3316277803236574     
  0.12150000000000001          6.3816370099843756     
  0.12180000000000001          7.3127783675070308     
  0.12210000000000000          8.0911892622851891     
  0.12239999999999999          8.6848839354444980     
  0.12270000000000002          9.0672424765423791     
  0.12300000000000001          9.2196091086531577     
  0.12330000000000001          9.1279772179945571     
  0.12360000000000000          8.7893188882751598     
  0.12390000000000000          8.2079885967119068     
  0.12419999999999999          7.3980272900823039     
  0.12450000000000001          6.3832353407811064     
  0.12480000000000001          5.1944769874240597     
  0.12509999999999999          3.8727986097655349     
  0.12540000000000001          2.4634329800133279     
  0.12570000000000003          1.0169694202352344     
  0.12600000000000000        -0.41306185444161592     
  0.12630000000000002         -1.7739048928102266     
  0.12659999999999999         -3.0135514248025483     
  0.12690000000000001         -4.0858282359990357     
  0.12719999999999998         -4.9501942741875702     
  0.12750000000000000         -5.5744742371992322     
  0.12780000000000002         -5.9363354569500055     
  0.12809999999999999         -6.0235098671752816     
  0.12840000000000001         -5.8355592543190946     
  0.12869999999999998         -5.3822053745283505     
  0.12900000000000000         -4.6853560337529307     
  0.12930000000000003         -3.7752000309531262     
  0.12959999999999999         -2.6930193044559347     
  0.12990000000000002         -1.4878746752931704     
  0.13019999999999998        -0.21266914026508518     
  0.13050000000000000          1.0714589698718306     
  0.13080000000000003          2.3043785223707878     
  0.13109999999999999          3.4240064528618799     
  0.13140000000000002          4.3710407898908628     
  0.13169999999999998          5.0929216814589626     
  0.13200000000000001          5.5432438139831222     
  0.13229999999999997          5.6895145504567139     
  0.13260000000000000          5.5092028599471261     
  0.13290000000000002          4.9966257980872131     
  0.13319999999999999          4.1631835881818695     
  0.13350000000000001          3.0348738697699114     
  0.13380000000000003          1.6562821086507891     
  0.13410000000000000          8.4393519117351698E-002
  0.13440000000000002         -1.6098499602478960     
  0.13469999999999999         -3.3487660889800699     
  0.13500000000000001         -5.0499972982484476     
  0.13529999999999998         -6.6300386749969800     
  0.13560000000000000         -8.0118464492769341     
  0.13590000000000002         -9.1264742618055621     
  0.13619999999999999         -9.9195488496644906     
  0.13650000000000001         -10.351439324525950     
  0.13680000000000003         -10.402172886052181     
  0.13710000000000000         -10.071756210079666     
  0.13740000000000002         -9.3782681008502902     
  0.13769999999999999         -8.3604296417016766     
  0.13800000000000001         -7.0707024561636009     
  0.13829999999999998         -5.5764951039397221     
  0.13860000000000000         -3.9527196546483534     
  0.13890000000000002         -2.2792210580300818     
  0.13919999999999999        -0.63704267431462647     
  0.13950000000000001         0.89982390100477838     
  0.13979999999999998          2.2629996853368946     
  0.14010000000000000          3.3998354794792731     
  0.14040000000000002          4.2713149781243258     
  0.14069999999999999          4.8560022058700625     
  0.14100000000000001          5.1532992083505906     
  0.14130000000000004          5.1779474063571316     
  0.14160000000000000          4.9649652425821822     
  0.14189999999999997          4.5623854764959537     
  0.14219999999999999          4.0295385700614581     
  0.14250000000000002          3.4341575706306782     
  0.14279999999999998          2.8445167364337292     
  0.14310000000000000          2.3279066100269930     
  0.14339999999999997          1.9428405932141761     
  0.14369999999999999          1.7365777770907327     
  0.14400000000000002          1.7396860454848471     
  0.14429999999999998          1.9640173050746765     
  0.14460000000000001          2.4024474894763124     
  0.14490000000000003          3.0261848145658248     
  0.14520000000000000          3.7903018030899056     
  0.14550000000000002          4.6322979799910220     
  0.14579999999999999          5.4804796878089119     
  0.14610000000000001          6.2575463794267572     
  0.14640000000000003          6.8852276215217243     
  0.14670000000000000          7.2950219422991038     
  0.14699999999999996          7.4282101852410065     
  0.14729999999999999          7.2466806638290446     
  0.14760000000000001          6.7329367924973065     
  0.14789999999999998          5.8927387640300495     
  0.14820000000000000          4.7579431141988904     