  -1.4999999999999999E-002     0.0000000000000000     
  -1.4700000000000000E-002     0.0000000000000000     
  -1.4400000000000000E-002    -1.2310820286964057E-033
  -1.4100000000000000E-002    -7.5114798290412416E-030
  -1.3800000000000000E-002    -1.6071952310972607E-027
  -1.3500000000000000E-002    -6.6877795467614273E-026
  -1.3200000000000000E-002     2.5501747144079504E-024
  -1.2899999999999998E-002     3.5201259273784520E-023
  -1.2600000000000000E-002    -3.3930852471748943E-022
  -1.2299999999999998E-002    -8.8067615322388001E-022
  -1.2000000000000000E-002     5.3306019496374194E-021
  -1.1699999999999999E-002    -6.3460402725444586E-021
  -1.1399999999999999E-002    -1.9111464552463450E-020
  -1.1099999999999999E-002     3.6243342755206509E-018
  -1.0799999999999999E-002    -2.3972470410496206E-017
  -1.0499999999999999E-002    -1.5351993535103841E-017
  -1.0199999999999999E-002     5.9351210196110069E-016
  -9.8999999999999991E-003    -1.9185042391468272E-015
  -9.5999999999999992E-003    -4.9556305129900774E-017
  -9.2999999999999992E-003     1.6130761139422631E-014
  -8.9999999999999993E-003    -4.9653407058759365E-014
  -8.6999999999999994E-003     6.1654809077806405E-014
  -8.3999999999999995E-003     5.0839750806080384E-014
  -8.0999999999999996E-003    -3.7793941800978707E-013
  -7.7999999999999988E-003     7.7446139290928482E-013
  -7.4999999999999997E-003    -7.9244033329323365E-013
  -7.1999999999999998E-003     1.2843215883719045E-013
  -6.8999999999999981E-003     1.0596178662562046E-012
  -6.5999999999999982E-003    -2.6457258526992680E-012
  -6.3000000000000000E-003     4.5061830059601055E-012
  -6.0000000000000001E-003    -4.5113975021361032E-012
  -5.6999999999999985E-003    -2.4846928214039692E-012
  -5.3999999999999986E-003     1.3506642069377719E-011
  -5.1000000000000004E-003     2.1338826420503683E-012
  -4.7999999999999987E-003    -6.7970975185996084E-011
  -4.5000000000000005E-003     8.9422243357121654E-011
  -4.1999999999999989E-003     1.1751353661273452E-010
  -3.8999999999999990E-003    -4.6134091824100321E-010
  -3.5999999999999990E-003     3.3191316263941955E-010
  -3.2999999999999991E-003     6.5782195660534378E-010
  -2.9999999999999992E-003    -1.4225135520872873E-009
  -2.6999999999999993E-003     1.9298958527688970E-010
  -2.3999999999999994E-003     2.1824722866914375E-009
  -2.0999999999999977E-003    -1.8477285964139017E-009
  -1.7999999999999995E-003    -2.2137292345685872E-009
  -1.4999999999999979E-003     4.4769835042126554E-009
  -1.1999999999999997E-003     1.9106852232627039E-011
  -8.9999999999999976E-004    -6.6371646636047922E-009
  -5.9999999999999810E-004     6.1466072826428053E-009
  -2.9999999999999992E-004     1.9784220426592329E-009
   0.0000000000000000         -1.0471233077342191E-008
   3.0000000000000165E-004     1.3517605926123417E-008
   5.9999999999999984E-004     2.7856740775959103E-009
   9.0000000000000149E-004    -5.3144497379623205E-008
   1.2000000000000031E-003     6.5479364483812193E-008
   1.5000000000000013E-003     1.2337080024539883E-007
   1.8000000000000030E-003    -3.6463984828211332E-007
   2.1000000000000012E-003    -1.0196199878038341E-007
   2.3999999999999994E-003     1.2805452801637787E-006
   2.7000000000000010E-003    -4.0701273144144064E-007
   2.9999999999999992E-003    -4.0083323609874285E-006
   3.3000000000000008E-003     1.5627377474056438E-006
   3.6000000000000025E-003     1.1560681120652715E-005
   3.9000000000000007E-003    -1.1253856038096812E-006
   4.2000000000000023E-003    -2.8948519383592437E-005
   4.5000000000000005E-003    -9.7679300523081661E-006
   4.7999999999999987E-003     7.9629307918595209E-005
   5.1000000000000004E-003     1.7010968988452472E-004
   5.4000000000000020E-003     2.0767535068986156E-004
   5.7000000000000037E-003     2.5804891830783562E-004
   5.9999999999999984E-003     4.3259099611500206E-004
   6.3000000000000000E-003     7.5515406306981116E-004
   6.6000000000000017E-003     1.1886354960301913E-003
   6.9000000000000034E-003     1.7715178729795927E-003
   7.2000000000000015E-003     2.6496291589906203E-003
   7.5000000000000032E-003     3.9828716310078222E-003
   7.8000000000000014E-003     5.9144219425194934E-003
   8.0999999999999996E-003     8.6540596967154305E-003
   8.4000000000000012E-003     1.2499714610674216E-002
   8.7000000000000029E-003     1.7781534631616393E-002
   9.0000000000000011E-003     2.4885597074582034E-002
   9.2999999999999992E-003     3.4318168262543809E-002
   9.6000000000000009E-003     4.6658271759560672E-002
   9.8999999999999991E-003     6.2445446810847127E-002
   1.0200000000000001E-002     8.2202280276867282E-002
   1.0500000000000002E-002    0.10647781655082110     
   1.0800000000000004E-002    0.13566282625979162     
   1.1099999999999999E-002    0.16975563249201289     
   1.1400000000000000E-002    0.20832159546881382     
   1.1700000000000002E-002    0.25051627244270169     
   1.2000000000000004E-002    0.29490372155094313     
   1.2300000000000002E-002    0.33912405244545268     
   1.2600000000000000E-002    0.37979029297110478     
   1.2900000000000002E-002    0.41263907881526268     
   1.3200000000000000E-002    0.43257093634133165     
   1.3500000000000002E-002    0.43366882490147479     
   1.3800000000000003E-002    0.40947554071913306     
   1.4100000000000001E-002    0.35349518779841160     
   1.4400000000000000E-002    0.25972879392136372     
   1.4700000000000001E-002    0.12326890956073053     
   1.4999999999999999E-002    -5.8945070118537189E-002
   1.5300000000000001E-002   -0.28739478424222215     
   1.5600000000000003E-002   -0.55939071806532825     
   1.5899999999999997E-002   -0.86855897401516746     
   1.6199999999999999E-002    -1.2045217040538572     
   1.6500000000000001E-002    -1.5530842092614034     
   1.6800000000000002E-002    -1.8967097485505282     
   1.7100000000000004E-002    -2.2153020646748462     
   1.7400000000000006E-002    -2.4875101029060049     
   1.7700000000000000E-002    -2.6922664702584385     
   1.8000000000000002E-002    -2.8104260331578388     
   1.8300000000000004E-002    -2.8265031661373019     
   1.8600000000000005E-002    -2.7302576523855446     
   1.8900000000000000E-002    -2.5177807497511946     
   1.9200000000000002E-002    -2.1921549894431376     
   1.9500000000000003E-002    -1.7638453400873115     
   1.9799999999999998E-002    -1.2501106356765732     
   2.0100000000000000E-002   -0.67342342865099480     
   2.0400000000000001E-002    -5.9815089796002030E-002
   2.0700000000000003E-002    0.56310388702858516     
   2.0999999999999998E-002     1.1685816739788411     
   2.1299999999999999E-002     1.7329639970084887     
   2.1600000000000001E-002     2.2375648449850716     
   2.1900000000000003E-002     2.6699084560960396     
   2.2200000000000004E-002     3.0243632521526820     
   2.2500000000000006E-002     3.3021111075930132     
   2.2800000000000001E-002     3.5102465151463629     
   2.3100000000000002E-002     3.6602799322639470     
   2.3400000000000004E-002     3.7661831113888553     
   2.3699999999999999E-002     3.8421561787795699     
   2.4000000000000000E-002     3.9004939219718135     
   2.4300000000000002E-002     3.9501593963904504     
   2.4599999999999997E-002     3.9953047217974174     
   2.4900000000000005E-002     4.0348458044880360     
   2.5200000000000000E-002     4.0630220413949329     
   2.5499999999999995E-002     4.0700148609325320     
   2.5800000000000003E-002     4.0434017544885821     
   2.6099999999999998E-002     3.9700529663248707     
   2.6400000000000007E-002     3.8379869801299940     
   2.6700000000000002E-002     3.6381338205656073     
   2.6999999999999996E-002     3.3654424170543664     
   2.7300000000000005E-002     3.0189130310987986     
   2.7600000000000000E-002     2.6018794571514325     
   2.7900000000000008E-002     2.1212613137661629     
   2.8200000000000003E-002     1.5859176918264297     
   2.8499999999999998E-002     1.0052224433254133     
   2.8800000000000006E-002    0.38688122925770529     
   2.9100000000000001E-002   -0.26431630211990104     
   2.9400000000000003E-002   -0.94634061314538109     
   2.9700000000000004E-002    -1.6613935401337554     
   3.0000000000000006E-002    -2.4146631808197143     
   3.0300000000000001E-002    -3.2118443656927975     
   3.0600000000000002E-002    -4.0578529663989880     
   3.0900000000000004E-002    -4.9532665295733258     
   3.1199999999999999E-002    -5.8923222218811757     
   3.1500000000000007E-002    -6.8610740461862072     
   3.1800000000000002E-002    -7.8345722286669339     
   3.2099999999999997E-002    -8.7782070467843649     
   3.2400000000000005E-002    -9.6483170068590081     
   3.2700000000000000E-002    -10.393499892115088     
   3.3000000000000002E-002    -10.959797153188838     
   3.3300000000000003E-002    -11.294021005899934     
   3.3599999999999998E-002    -11.348520983773039     
   3.3900000000000000E-002    -11.086254178396343     
   3.4200000000000001E-002    -10.484547277765484     
   3.4500000000000003E-002    -9.5383545863699499     
   3.4799999999999998E-002    -8.2615198784610531     
   3.5099999999999999E-002    -6.6868562352210077     
   3.5400000000000001E-002    -4.8655957834217984     
   3.5699999999999996E-002    -2.8638741268327426     
   3.6000000000000004E-002   -0.75879154388215708     
   3.6299999999999999E-002     1.3651934210361258     
   3.6600000000000008E-002     3.4214505021490424     
   3.6900000000000002E-002     5.3264195662573286     
   3.7199999999999997E-002     7.0037646822757678     
   3.7500000000000006E-002     8.3877037261462366     
   3.7800000000000000E-002     9.4262808020453566     
   3.8100000000000009E-002     10.084204297796138     
   3.8400000000000004E-002     10.344143753622255     
   3.8699999999999998E-002     10.206754095019297     
   3.9000000000000007E-002     9.6921519569235617     
   3.9300000000000002E-002     8.8385685885377825     
   3.9600000000000003E-002     7.6998955690647737     
   3.9900000000000005E-002     6.3447890216119838     
   4.0200000000000000E-002     4.8538907852909778     
   4.0500000000000001E-002     3.3136594725040194     
   4.0800000000000003E-002     1.8131251320307626     
   4.1100000000000005E-002    0.44003677894828352     
   4.1399999999999999E-002   -0.72644210747301208     
   4.1700000000000008E-002    -1.6198935244677983     
   4.2000000000000003E-002    -2.1909185602302088     
   4.2299999999999997E-002    -2.4102651273424796     
   4.2600000000000006E-002    -2.2705938554022227     
   4.2900000000000001E-002    -1.7880351207928662     
   4.3200000000000002E-002   -0.99924407385120362     
   4.3500000000000004E-002     4.0938791091431614E-002
   4.3799999999999999E-002     1.2626535555006999     
   4.4100000000000000E-002     2.5879958380988870     
   4.4400000000000002E-002     3.9354813354900906     
   4.4700000000000004E-002     5.2260437115265113     
   4.4999999999999998E-002     6.3898427975565149     
   4.5300000000000000E-002     7.3697402940163199     
   4.5600000000000002E-002     8.1250014386398455     
   4.5899999999999996E-002     8.6346038380940087     
   4.6200000000000005E-002     8.8969821112045988     
   4.6500000000000000E-002     8.9289852435268067     
   4.6799999999999994E-002     8.7632279272348761     
   4.7100000000000003E-002     8.4426582859092143     
   4.7399999999999998E-002     8.0141189270772859     
   4.7700000000000006E-002     7.5212184377305320     
   4.8000000000000001E-002     6.9962869547363917     
   4.8300000000000010E-002     6.4522291022431162     
   4.8600000000000004E-002     5.8774402781809050     
   4.8899999999999999E-002     5.2324173059840904     
   4.9200000000000008E-002     4.4489764355821100     
   4.9500000000000002E-002     3.4341210204429942     
   4.9800000000000011E-002     2.0809960218059027     
   5.0100000000000006E-002    0.28044944024830731     
   5.0400000000000000E-002    -2.0646856533280147     
   5.0700000000000009E-002    -5.0201037890738940     
   5.1000000000000004E-002    -8.6013832938536403     
   5.1299999999999998E-002    -12.761009105030155     
   5.1600000000000007E-002    -17.379749909457757     
   5.1900000000000002E-002    -22.261286647628641     
   5.2200000000000010E-002    -27.137128361915448     
   5.2500000000000005E-002    -31.681788341305236     
   5.2800000000000000E-002    -35.535670756008642     
   5.3099999999999994E-002    -38.330707475948458     
   5.3400000000000003E-002    -39.724978480863712     
   5.3699999999999998E-002    -39.437190255668199     
   5.4000000000000006E-002    -37.276078145716824     
   5.4300000000000001E-002    -33.167202527285504     
   5.4599999999999996E-002    -27.169223270120703     
   5.4900000000000004E-002    -19.478267302071345     
   5.5199999999999999E-002    -10.423547135799506     
   5.5499999999999994E-002   -0.44573739269077617     
   5.5800000000000002E-002     9.9293377478428830     
   5.6099999999999997E-002     20.130378931523225     
   5.6400000000000006E-002     29.581871961445643     
   5.6700000000000000E-002     37.744802943127610     
   5.6999999999999995E-002     44.161476163891436     
   5.7300000000000004E-002     48.486266838619585     
   5.7599999999999998E-002     50.508163314512274     
   5.7900000000000007E-002     50.165585780133945     
   5.8200000000000002E-002     47.547063554420077     
   5.8499999999999996E-002     42.879089279629660     
   5.8800000000000005E-002     36.503726809327397     
   5.9100000000000000E-002     28.849969905458117     
   5.9400000000000008E-002     20.399534620984603     
   5.9700000000000003E-002     11.648476116093132     
   6.0000000000000012E-002     3.0747289846569954     
   6.0300000000000006E-002    -4.8938974103960939     
   6.0600000000000001E-002    -11.904711479209190     
   6.0900000000000010E-002    -17.693333771803516     
   6.1200000000000004E-002    -22.094082094675805     
   6.1500000000000013E-002    -25.039262987669606     
   6.1800000000000008E-002    -26.552152343890491     
   6.2100000000000002E-002    -26.733059394599199     
   6.2399999999999997E-002    -25.742521443475109     
   6.2700000000000006E-002    -23.784939777755785     
   6.3000000000000000E-002    -21.088036431101941     
   6.3300000000000009E-002    -17.886403655092810     
   6.3600000000000004E-002    -14.407546874831333     
   6.3899999999999998E-002    -10.857703558694066     
   6.4199999999999993E-002    -7.4153290949870261     
   6.4500000000000002E-002    -4.2255971017015135     
   6.4800000000000010E-002    -1.3972106236106745     
   6.5100000000000005E-002    0.99672936673182400     
   6.5400000000000000E-002     2.9184917724310400     
   6.5700000000000008E-002     4.3604941176490426     
   6.5999999999999989E-002     5.3417758205069443     
   6.6299999999999998E-002     5.9033615433762305     
   6.6600000000000006E-002     6.1009698177452112     
   6.6900000000000001E-002     6.0026000217041968     
   6.7199999999999996E-002     5.6803145444402130     
   6.7500000000000004E-002     5.2036955940685710     
   6.7800000000000013E-002     4.6392020235726106     
   6.8099999999999994E-002     4.0440751663522470     
   6.8400000000000002E-002     3.4639427849080766     
   6.8700000000000011E-002     2.9308944771462793     
   6.8999999999999992E-002     2.4626980780166923     
   6.9300000000000000E-002     2.0675132976501382     
   6.9600000000000009E-002     1.7415687909934490     
   6.9900000000000004E-002     1.4739888704743542     
   7.0199999999999999E-002     1.2504654491329206     
   7.0500000000000007E-002     1.0541516682405156     
   7.0800000000000016E-002    0.87104309558019466     
   7.1099999999999997E-002    0.69006069829603933     
   7.1400000000000005E-002    0.50420300269929752     
   7.1700000000000000E-002    0.31126778293414881     
   7.1999999999999995E-002    0.11333625214812668     
   7.2300000000000003E-002    -8.3067488496999062E-002
   7.2600000000000012E-002   -0.27149568644780775     
   7.2900000000000006E-002   -0.44445662745094361     
   7.3200000000000001E-002   -0.59398018316032952     
   7.3499999999999996E-002   -0.71464207643510036     
   7.3800000000000004E-002   -0.80186229395271125     
   7.4099999999999999E-002   -0.85466697342919229     
   7.4400000000000008E-002   -0.87244111223628984     
   7.4700000000000003E-002   -0.85614676132308731     
   7.5000000000000011E-002   -0.80980879218772539     
   7.5299999999999992E-002   -0.73529766192834911     
   7.5600000000000001E-002   -0.63832016872561603     
   7.5900000000000009E-002   -0.52517517870237040     
   7.6200000000000004E-002   -0.40120016418639914     
   7.6499999999999999E-002   -0.27443306445071580     
   7.6800000000000007E-002   -0.15211609803871451     
   7.7099999999999988E-002    -4.2915596492231617E-002
   7.7399999999999997E-002     4.4741381581295571E-002
   7.7700000000000005E-002    0.10593982617155025     
   7.8000000000000014E-002    0.13592988641237974     
   7.8299999999999995E-002    0.13303942734080318     
   7.8600000000000003E-002     9.8694368780757949E-002
   7.8900000000000012E-002     3.7954488237567446E-002
   7.9199999999999993E-002    -3.9853795671296072E-002
   7.9500000000000001E-002   -0.12565671266107786     
   7.9800000000000010E-002   -0.20881259963579887     
   8.0100000000000018E-002   -0.27811295590889890     
   8.0399999999999999E-002   -0.32465517300885433     
   8.0700000000000008E-002   -0.34292070067945274     
   8.1000000000000003E-002   -0.33065941404908633     
   8.1299999999999997E-002   -0.28928547286994621     
   8.1600000000000006E-002   -0.22504563399644212     
   8.1900000000000014E-002   -0.14600256458792654     
   8.2199999999999995E-002    -6.1092803926944758E-002
   8.2500000000000004E-002     1.8414876822859645E-002
   8.2799999999999999E-002     8.3528858721458876E-002
   8.3100000000000007E-002    0.12801798948618706     
   8.3400000000000002E-002    0.14806657439514198     
   8.3700000000000011E-002    0.14372371141381990     
   8.4000000000000005E-002    0.11697032759490919     
   8.4300000000000000E-002     7.4148563470246426E-002
   8.4599999999999995E-002     2.3443034317940859E-002
   8.4900000000000003E-002    -2.8266453061752406E-002
   8.5199999999999998E-002    -7.2525107677780754E-002
   8.5500000000000007E-002   -0.10363536112128184     
   8.5800000000000001E-002   -0.11816255012495808     
   8.6100000000000010E-002   -0.11295636414883381     
   8.6399999999999991E-002    -8.9644590315707734E-002
   8.6699999999999999E-002    -5.1117882679932586E-002
   8.7000000000000008E-002    -1.0378612412780958E-003
   8.7300000000000003E-002     5.4839874858119544E-002
   8.7599999999999997E-002    0.11180270582583696     
   8.7900000000000006E-002    0.16499958359239020     
   8.8200000000000014E-002    0.21002055034605943     
   8.8499999999999995E-002    0.24387983106904459     
   8.8800000000000004E-002    0.26432232752913287     
   8.9100000000000013E-002    0.26938138105041515     
   8.9399999999999993E-002    0.25836493171106867     
   8.9700000000000002E-002    0.23005644820905097     
   9.0000000000000011E-002    0.18342854987330662     
   9.0299999999999991E-002    0.11895760726240635     
   9.0600000000000000E-002     3.5925156122942239E-002
   9.0900000000000009E-002    -6.4839183606133527E-002
   9.1200000000000017E-002   -0.18000872741260443     
   9.1499999999999998E-002   -0.30695471178941741     
   9.1800000000000007E-002   -0.43883626058119352     
   9.2100000000000001E-002   -0.56788642467475769     
   9.2399999999999996E-002   -0.68515520661368023     
   9.2700000000000005E-002   -0.77916730572026049     
   9.3000000000000013E-002   -0.84077739174234756     
   9.3300000000000008E-002   -0.86031535919359958     
   9.3600000000000003E-002   -0.83061527289988790     
   9.3899999999999997E-002   -0.74983774986999052     
   9.4200000000000006E-002   -0.61885467138058892     
   9.4500000000000001E-002   -0.44387227972747101     
   9.4800000000000009E-002   -0.23556337376399317     
   9.5100000000000004E-002    -8.0448071586166833E-003
   9.5399999999999999E-002    0.22199520408523127     
   9.5699999999999993E-002    0.43825187387625064     
   9.6000000000000002E-002    0.62561322557999943     
   9.6300000000000011E-002    0.77259127264700544     
   9.6600000000000005E-002    0.87231735144553246     
   9.6900000000000000E-002    0.92405366292573721     
   9.7200000000000009E-002    0.93320170335876318     
   9.7499999999999989E-002    0.90992762892666956     
   9.7799999999999998E-002    0.86897264734144364     
   9.8100000000000007E-002    0.82472919972856018     
   9.8400000000000015E-002    0.79159437681129319     
   9.8699999999999996E-002    0.78219517763072133     
   9.9000000000000005E-002    0.80093954141210744     
   9.9300000000000013E-002    0.84592966208623976     
   9.9599999999999994E-002    0.90840917710233238     
   9.9900000000000003E-002    0.97204649729537485     
  0.10020000000000001          1.0164807279799399     
  0.10049999999999999          1.0173748050906595     
  0.10080000000000000         0.95172135171149452     
  0.10110000000000001         0.80269541217660212     
  0.10140000000000000         0.55815583954734749     
  0.10170000000000000         0.21758521415909243     
  0.10200000000000001        -0.20680276154048949     
  0.10230000000000002        -0.69322926888494329     
  0.10260000000000000         -1.2082004852370907     
  0.10290000000000001         -1.7112633750928412     
  0.10320000000000000         -2.1590289867264358     
  0.10350000000000001         -2.5090122178809260     
  0.10380000000000000         -2.7255750654771833     
  0.10410000000000001         -2.7819552818162552     
  0.10440000000000001         -2.6652896536695376     
  0.10470000000000000         -2.3790880453923693     
  0.10500000000000000         -1.9410308630277036     
  0.10530000000000000         -1.3826900192556164     
  0.10560000000000000        -0.74682799679925127     
  0.10590000000000001         -8.2090724352690381E-002
  0.10620000000000000         0.56191676326752016     
  0.10650000000000001          1.1375302532062306     
  0.10679999999999999          1.6053164519666963     
  0.10710000000000000          1.9382945507963503     
  0.10740000000000001          2.1198862446636886     
  0.10770000000000000          2.1488700189403023     
  0.10800000000000000          2.0367859749945820     
  0.10830000000000001          1.8045166434463566     
  0.10859999999999999          1.4826395519196121     
  0.10890000000000000          1.1045111700198023     
  0.10920000000000001         0.70501170888497700     
  0.10950000000000001         0.31760071216664554     
  0.10979999999999999         -3.0810773805650699E-002
  0.11009999999999999        -0.31700532173091445     
  0.11040000000000001        -0.52616550385610572     
  0.11070000000000001        -0.65268982360067229     
  0.11100000000000000        -0.69466062837324549     
  0.11130000000000000        -0.65835805935966385     
  0.11160000000000002        -0.55508396724671982     
  0.11190000000000001        -0.39776641992089967     
  0.11220000000000001        -0.20398654706760544     
  0.11250000000000000          8.3871354793923769E-003
  0.11280000000000000         0.22231139974840708     
  0.11309999999999999         0.41942364490244388     
  0.11340000000000001         0.58485547040717101     
  0.11369999999999998         0.70492469008605252     
  0.11400000000000000         0.76911299333882965     
  0.11430000000000000         0.77248395793989089     
  0.11460000000000002         0.71154930627864266     
  0.11489999999999999         0.58879068982356930     
  0.11520000000000001         0.41177640987839270     
  0.11550000000000001         0.19131340129314858     
  0.11580000000000000         -5.7531763979286721E-002
  0.11609999999999999        -0.31737775238486010     
  0.11640000000000002        -0.56940564776274039     
  0.11670000000000001        -0.79461239714399123     
  0.11700000000000001        -0.97607102768220155     
  0.11730000000000000         -1.0993738557560526     
  0.11760000000000000         -1.1545256175953129     
  0.11789999999999999         -1.1357430062490463     
  0.11820000000000001         -1.0432557757554450     
  0.11850000000000001        -0.88191872329281007     
  0.11880000000000000        -0.66082619704019341     
  0.11910000000000000        -0.39492149763485335     
  0.11940000000000002         -9.9752308173575166E-002
  0.11970000000000001         0.20645235424779840     
  0.12000000000000001         0.50412175210622467     
  0.12030000000000000         0.77582833193417455     
  0.12060000000000000          1.0040857965734460     
  0.12089999999999999          1.1750773977578655     
  0.12119999999999999          1.2781511019856995     
  0.12150000000000001          1.3046218105352370     
  0.12180000000000001          1.2519078954856973     
  0.12210000000000000          1.1208493212000592     
  0.12239999999999999         0.91580956723936568     
  0.12270000000000002         0.64744510994262017     
  0.12300000000000001         0.32835218589948323     
  0.12330000000000001         -2.5236287426725193E-002
  0.12360000000000000        -0.39371717487555180     
  0.12390000000000000        -0.75630230638594553     
  0.12419999999999999         -1.0911490636043961     
  0.12450000000000001         -1.3785617153481755     
  0.12480000000000001         -1.6014273734239519     
  0.12509999999999999         -1.7441887698857521     
  0.12540000000000001         -1.7973803195865594     
  0.12570000000000003         -1.7584847599001572     
  0.12600000000000000         -1.6286933632049778     
  0.12630000000000002         -1.4155709174855020     
  0.12659999999999999         -1.1328067455894066     
  0.12690000000000001        -0.79759504166898076     
  0.12719999999999998        -0.42986559189317491     
  0.12750000000000000         -5.1438938845373761E-002
  0.12780000000000002         0.31691207747790134     
  0.12809999999999999         0.65579472089997237     
  0.12840000000000001         0.94881543769696286     
  0.12869999999999998          1.1842313601625594     
  0.12900000000000000          1.3529917436221488     
  0.12930000000000003          1.4521287884173883     
  0.12959999999999999          1.4820390970387152     
  0.12990000000000002          1.4457371202652103     
  0.13019999999999998          1.3500051488763494     
  0.13050000000000000          1.2020665123749488     
  0.13080000000000003          1.0113628613129211     
  0.13109999999999999         0.78798333323942482     
  0.13140000000000002         0.54006158514698899     
  0.13169999999999998         0.27765219828357296     
  0.13200000000000001          1.0825792609340870E-002
  0.13229999999999997        -0.25192596376942328     
  0.13260000000000000        -0.50104343156814246     
  0.13290000000000002        -0.72742613353164853     
  0.13319999999999999        -0.92249111610172996     
  0.13350000000000001         -1.0786213697594622     
  0.13380000000000003         -1.1885493149146353     
  0.13410000000000000         -1.2479633133703030     
  0.13440000000000002         -1.2551545299020241     
  0.13469999999999999         -1.2107696176610308     
  0.13500000000000001         -1.1186013231615792     
  0.13529999999999998        -0.98525957828986610     
  0.13560000000000000        -0.82089416745097621     
  0.13590000000000002        -0.63631840848261434     
  0.13619999999999999        -0.44282816005395897     
  0.13650000000000001        -0.25269481052460696     
  0.13680000000000003         -7.5232986769380103E-002
  0.13710000000000000          8.2634920625511102E-002
  0.13740000000000002         0.21561964109118581     
  0.13769999999999999         0.32374802680057002     
  0.13800000000000001         0.40901975155191028     
  0.13829999999999998         0.47585424846232405     
  0.13860000000000000         0.53109353928400771     
  0.13890000000000002         0.58113368438853097     
  0.13919999999999999         0.63301900375787323     
  0.13950000000000001         0.69152760106233635     
  0.13979999999999998         0.75848451101336534     
  0.14010000000000000         0.83401529942208474     
  0.14040000000000002         0.91562352288448512     
  0.14069999999999999         0.99781341947670676     
  0.14100000000000001          1.0740069382370399     
  0.14130000000000004          1.1358072816679807     
  0.14160000000000000          1.1750942797921826     
  0.14189999999999997          1.1854484221940289     
  0.14219999999999999          1.1607016431424528     
  0.14250000000000002          1.0973161039794466     
  0.14279999999999998         0.99467922381776530     
  0.14310000000000000         0.85394556480905570     
  0.14339999999999997         0.67931686570759298     
  0.14369999999999999         0.47730696625467450     
  0.14400000000000002         0.25569854249122936     
  0.14429999999999998          2.4548881112006815E-002
  0.14460000000000001        -0.20539871386419445     
  0.14490000000000003        -0.42340719275557503     
  0.14520000000000000        -0.61849124612409456     
  0.14550000000000002        -0.78151955726914180     
  0.14579999999999999        -0.90443506126132589     
  0.14610000000000001        -0.98080493248616141     
  0.14640000000000003         -1.0079463799460753     
  0.14670000000000000        -0.98593145793557202     
  0.14699999999999996        -0.91774002943472099     
  0.14729999999999999        -0.80960238784082605     
  0.14760000000000001        -0.66964113769867839     
  0.14789999999999998        -0.50824505971737177     
  0.14820000000000000        -0.33712125098763668     