  -1.4999999999999999E-002     0.0000000000000000     
  -1.4700000000000000E-002     0.0000000000000000     
  -1.4400000000000000E-002     0.0000000000000000     
  -1.4100000000000000E-002    -2.3013046316330232E-042
  -1.3800000000000000E-002    -3.5163856804146443E-035
  -1.3500000000000000E-002    -5.7643264865895491E-033
  -1.3200000000000000E-002    -3.5377545438309157E-031
  -1.2899999999999998E-002     1.4276913254419015E-029
  -1.2600000000000000E-002     8.4840167172612058E-030
  -1.2299999999999998E-002    -2.9260451550812321E-028
  -1.2000000000000000E-002    -1.2405658643062034E-026
  -1.1699999999999999E-002     4.4646284687220853E-026
  -1.1399999999999999E-002     1.7553720339381651E-024
  -1.1099999999999999E-002    -2.7678861942902676E-023
  -1.0799999999999999E-002     1.4566979963950134E-022
  -1.0499999999999999E-002     5.1936149661255887E-022
  -1.0199999999999999E-002    -1.1528535009350932E-020
  -9.8999999999999991E-003     6.8661292918013323E-020
  -9.5999999999999992E-003    -1.8709699632794201E-019
  -9.2999999999999992E-003    -2.2396387213993831E-020
  -8.9999999999999993E-003     2.3849510408905912E-018
  -8.6999999999999994E-003    -1.1376229373312125E-017
  -8.3999999999999995E-003     3.2637513630816802E-017
  -8.0999999999999996E-003    -6.2596827554993762E-017
  -7.7999999999999988E-003     6.8832126508324620E-017
  -7.4999999999999997E-003     1.7114764839452681E-017
  -7.1999999999999998E-003    -2.7286926903142984E-016
  -6.8999999999999981E-003     7.2508960970891150E-016
  -6.5999999999999982E-003    -1.2067398707291678E-015
  -6.3000000000000000E-003     1.2739410017936253E-015
  -6.0000000000000001E-003    -1.1273132927867164E-015
  -5.6999999999999985E-003     4.0903998819123223E-015
  -5.3999999999999986E-003    -1.6348992362847185E-014
  -5.1000000000000004E-003     3.1095737100138072E-014
  -4.7999999999999987E-003     1.0019520353933327E-014
  -4.5000000000000005E-003    -2.1906540293492288E-013
  -4.1999999999999989E-003     5.7021484682582943E-013
  -3.8999999999999990E-003    -5.1139500792930707E-013
  -3.5999999999999990E-003    -9.8274463684904901E-013
  -3.2999999999999991E-003     3.9163934688466285E-012
  -2.9999999999999992E-003    -4.9945923075780295E-012
  -2.6999999999999993E-003    -1.3364111373764635E-012
  -2.3999999999999994E-003     1.4972296825493440E-011
  -2.0999999999999977E-003    -2.2056423570836160E-011
  -1.7999999999999995E-003     3.0190111187867265E-012
  -1.4999999999999979E-003     4.0712557192688742E-011
  -1.1999999999999997E-003    -7.0978930805985427E-011
  -8.9999999999999976E-004     4.1235142288365558E-011
  -5.9999999999999810E-004     4.8711445723458897E-011
  -2.9999999999999992E-004    -1.3613097468788875E-010
   0.0000000000000000          1.4540799763686659E-010
   3.0000000000000165E-004    -5.3315808476614541E-011
   5.9999999999999984E-004    -8.8131792049084249E-011
   9.0000000000000149E-004     1.7559849850253444E-010
   1.2000000000000031E-003    -1.0188072054492921E-010
   1.5000000000000013E-003    -1.8508868400787266E-010
   1.8000000000000030E-003     4.7930375194139925E-010
   2.1000000000000012E-003     1.2736297806215230E-010
   2.3999999999999994E-003    -2.8819259501933776E-009
   2.7000000000000010E-003     6.3355473463848982E-009
   2.9999999999999992E-003    -2.2734315399334139E-009
   3.3000000000000008E-003    -2.1507668813663558E-008
   3.6000000000000025E-003     5.7433168135189446E-008
   3.9000000000000007E-003    -2.1864615273186797E-008
   4.2000000000000023E-003    -2.1000884924643864E-007
   4.5000000000000005E-003     3.6539327361975186E-007
   4.7999999999999987E-003     4.5485288762047542E-007
   5.1000000000000004E-003    -1.6394183139885658E-006
   5.4000000000000020E-003    -1.2155281583822680E-006
   5.7000000000000037E-003     4.8791947336622943E-006
   5.9999999999999984E-003     4.4135678629846462E-006
   6.3000000000000000E-003    -1.1271501045047020E-005
   6.6000000000000017E-003    -1.5651975145643436E-005
   6.9000000000000034E-003     2.6995329392868509E-005
   7.2000000000000015E-003     1.0153503011593467E-004
   7.5000000000000032E-003     1.5685429508862362E-004
   7.8000000000000014E-003     1.9157483342872921E-004
   8.0999999999999996E-003     2.7886064074655436E-004
   8.4000000000000012E-003     4.8571638854440257E-004
   8.7000000000000029E-003     8.0911446525339450E-004
   9.0000000000000011E-003     1.2320075841911662E-003
   9.2999999999999992E-003     1.8240207984263294E-003
   9.6000000000000009E-003     2.7427691210819365E-003
   9.8999999999999991E-003     4.1357319178767903E-003
   1.0200000000000001E-002     6.1098828583583484E-003
   1.0500000000000002E-002     8.8403896977628377E-003
   1.0800000000000004E-002     1.2640284251213118E-002
   1.1099999999999999E-002     1.7876614632395239E-002
   1.1400000000000000E-002     2.4903133766654560E-002
   1.1700000000000002E-002     3.4136614570807765E-002
   1.2000000000000004E-002     4.6106863269794449E-002
   1.2300000000000002E-002     6.1352955912695850E-002
   1.2600000000000000E-002     8.0325776606332583E-002
   1.2900000000000002E-002    0.10341048875565928     
   1.3200000000000000E-002    0.13091507228939453     
   1.3500000000000002E-002    0.16289915318227577     
   1.3800000000000003E-002    0.19897688991935963     
   1.4100000000000001E-002    0.23825174007820932     
   1.4400000000000000E-002    0.27929028544703921     
   1.4700000000000001E-002    0.31998965185487871     
   1.4999999999999999E-002    0.35737968937273074     
   1.5300000000000001E-002    0.38756199707803263     
   1.5600000000000003E-002    0.40589565545337408     
   1.5899999999999997E-002    0.40722630096774154     
   1.6199999999999999E-002    0.38598652513208237     
   1.6500000000000001E-002    0.33644711046747899     
   1.6800000000000002E-002    0.25325168902055190     
   1.7100000000000004E-002    0.13204530198716247     
   1.7400000000000006E-002    -3.0066063433133262E-002
   1.7700000000000000E-002   -0.23399305097351347     
   1.8000000000000002E-002   -0.47793033145424535     
   1.8300000000000004E-002   -0.75705990459900774     
   1.8600000000000005E-002    -1.0634930958779218     
   1.8900000000000000E-002    -1.3861828119309123     
   1.9200000000000002E-002    -1.7110875311929694     
   1.9500000000000003E-002    -2.0217433248583605     
   1.9799999999999998E-002    -2.3001742979830535     
   2.0100000000000000E-002    -2.5278804763095111     
   2.0400000000000001E-002    -2.6868146352289544     
   2.0700000000000003E-002    -2.7606194566340041     
   2.0999999999999998E-002    -2.7357460836283236     
   2.1299999999999999E-002    -2.6023415758547492     
   2.1600000000000001E-002    -2.3550928759743828     
   2.1900000000000003E-002    -1.9935341175114161     
   2.2200000000000004E-002    -1.5223894003890259     
   2.2500000000000006E-002   -0.95156955627096629     
   2.2800000000000001E-002   -0.29594896885851796     
   2.3100000000000002E-002    0.42517553085589466     
   2.3400000000000004E-002     1.1888025763259009     
   2.3699999999999999E-002     1.9683740228242099     
   2.4000000000000000E-002     2.7347869173192336     
   2.4300000000000002E-002     3.4575695445748771     
   2.4599999999999997E-002     4.1054115485174627     
   2.4900000000000005E-002     4.6473836160191233     
   2.5200000000000000E-002     5.0545408646894598     
   2.5499999999999995E-002     5.3015437558685656     
   2.5800000000000003E-002     5.3682537026509660     
   2.6099999999999998E-002     5.2412687255643124     
   2.6400000000000007E-002     4.9159798680586544     
   2.6700000000000002E-002     4.3978910383808483     
   2.6999999999999996E-002     3.7029725451327673     
   2.7300000000000005E-002     2.8581134739217529     
   2.7600000000000000E-002     1.9006586012745386     
   2.7900000000000008E-002    0.87648232657467307     
   2.8200000000000003E-002   -0.16236946457221438     
   2.8499999999999998E-002    -1.1609398409744573     
   2.8800000000000006E-002    -2.0648604154850796     
   2.9100000000000001E-002    -2.8236512765265074     
   2.9400000000000003E-002    -3.3945268554444246     
   2.9700000000000004E-002    -3.7453787940306436     
   3.0000000000000006E-002    -3.8565095086666226     
   3.0300000000000001E-002    -3.7221149941918732     
   3.0600000000000002E-002    -3.3501114760185762     
   3.0900000000000004E-002    -2.7609803595780473     
   3.1199999999999999E-002    -1.9865814481885762     
   3.1500000000000007E-002    -1.0675529541318338     
   3.1800000000000002E-002    -5.0475166433631979E-002
   3.2099999999999997E-002     1.0144822803723934     
   3.2400000000000005E-002     2.0761230226948677     
   3.2700000000000000E-002     3.0839963830342612     
   3.3000000000000002E-002     3.9902996326980578     
   3.3300000000000003E-002     4.7518539801605648     
   3.3599999999999998E-002     5.3302905200150956     
   3.3900000000000000E-002     5.6925613140587199     
   3.4200000000000001E-002     5.8120742118315798     
   3.4500000000000003E-002     5.6690986269149155     
   3.4799999999999998E-002     5.2510417623892529     
   3.5099999999999999E-002     4.5531668220633668     
   3.5400000000000001E-002     3.5789054149429038     
   3.5699999999999996E-002     2.3402018438900654     
   3.6000000000000004E-002    0.85813010792404576     
   3.6299999999999999E-002   -0.83716665681461699     
   3.6600000000000008E-002    -2.7065099391752967     
   3.6900000000000002E-002    -4.7021651962331816     
   3.7199999999999997E-002    -6.7681968487985875     
   3.7500000000000006E-002    -8.8407483196588110     
   3.7800000000000000E-002    -10.849902682065675     
   3.8100000000000009E-002    -12.720994627704338     
   3.8400000000000004E-002    -14.375393125002393     
   3.8699999999999998E-002    -15.733569446951474     
   3.9000000000000007E-002    -16.718313192841180     
   3.9300000000000002E-002    -17.257152708425167     
   3.9600000000000003E-002    -17.286651305501916     
   3.9900000000000005E-002    -16.757373025593704     
   4.0200000000000000E-002    -15.638155150648668     
   4.0500000000000001E-002    -13.920249278908429     
   4.0800000000000003E-002    -11.621071607851865     
   4.1100000000000005E-002    -8.7878388129510530     
   4.1399999999999999E-002    -5.4972890758316435     
   4.1700000000000008E-002    -1.8544757260349392     
   4.2000000000000003E-002     2.0091840782040826     
   4.2299999999999997E-002     5.9418401766137166     
   4.2600000000000006E-002     9.7793924216163290     
   4.2900000000000001E-002     13.353371909331283     
   4.3200000000000002E-002     16.500434717136208     
   4.3500000000000004E-002     19.072993442520474     
   4.3799999999999999E-002     20.948299777115437     
   4.4100000000000000E-002     22.035750900768001     
   4.4400000000000002E-002     22.283255959125263     
   4.4700000000000004E-002     21.680561303294592     
   4.4999999999999998E-002     20.260703123425550     
   4.5300000000000000E-002     18.098657205415712     
   4.5600000000000002E-002     15.306856219970129     
   4.5899999999999996E-002     12.030062960126372     
   4.6200000000000005E-002     8.4369758179268679     
   4.6500000000000000E-002     4.7109940512855593     
   4.6799999999999994E-002     1.0411806062607087     
   4.7100000000000003E-002    -2.3889285723938629     
   4.7399999999999998E-002    -5.4115559936171005     
   4.7700000000000006E-002    -7.8837511644615699     
   4.8000000000000001E-002    -9.6958789097605891     
   4.8300000000000010E-002    -10.778685038200599     
   4.8600000000000004E-002    -11.106735480017313     
   4.8899999999999999E-002    -10.700360851043957     
   4.9200000000000008E-002    -9.6245683929680172     
   4.9500000000000002E-002    -7.9834584233773764     
   4.9800000000000011E-002    -5.9132407911840579     
   5.0100000000000006E-002    -3.5724575746239156     
   5.0400000000000000E-002    -1.1311957242069564     
   5.0700000000000009E-002     1.2418602234248188     
   5.1000000000000004E-002     3.3934198602776773     
   5.1299999999999998E-002     5.1937003058875018     
   5.1600000000000007E-002     6.5445845731131937     
   5.1900000000000002E-002     7.3877871864072624     
   5.2200000000000010E-002     7.7058074060131680     
   5.2500000000000005E-002     7.5197867500876399     
   5.2800000000000000E-002     6.8855431341820674     
   5.3099999999999994E-002     5.8857106218030175     
   5.3400000000000003E-002     4.6214778819947204     
   5.3699999999999998E-002     3.2030732999708880     
   5.4000000000000006E-002     1.7384130979495884     
   5.4300000000000001E-002    0.32542201699700002     
   5.4599999999999996E-002   -0.95461257096688301     
   5.4900000000000004E-002    -2.0426066795548889     
   5.5199999999999999E-002    -2.9026919439599652     
   5.5499999999999994E-002    -3.5230386207347628     
   5.5800000000000002E-002    -3.9143603803691267     
   5.6099999999999997E-002    -4.1048058305511015     
   5.6400000000000006E-002    -4.1370529640806275     
   5.6700000000000000E-002    -4.0619596272968153     
   5.6999999999999995E-002    -3.9331600925575163     
   5.7300000000000004E-002    -3.8040067842481671     
   5.7599999999999998E-002    -3.7215171088885697     
   5.7900000000000007E-002    -3.7227587276987206     
   5.8200000000000002E-002    -3.8333845349799898     
   5.8499999999999996E-002    -4.0654836636778580     
   5.8800000000000005E-002    -4.4171983797213894     
   5.9100000000000000E-002    -4.8730497581100405     
   5.9400000000000008E-002    -5.4058148193672118     
   5.9700000000000003E-002    -5.9815761865253574     
   6.0000000000000012E-002    -6.5627766747430396     
   6.0300000000000006E-002    -7.1114096241193430     
   6.0600000000000001E-002    -7.5967386454015262     
   6.0900000000000010E-002    -7.9986974083813820     
   6.1200000000000004E-002    -8.3094202900608476     
   6.1500000000000013E-002    -8.5362238609266612     
   6.1800000000000008E-002    -8.6985836574501061     
   6.2100000000000002E-002    -8.8237774690408699     
   6.2399999999999997E-002    -8.9414658800086215     
   6.2700000000000006E-002    -9.0733197169760889     
   6.3000000000000000E-002    -9.2250769634142582     
   6.3300000000000009E-002    -9.3778884935727049     
   6.3600000000000004E-002    -9.4807572282527097     
   6.3899999999999998E-002    -9.4507276120852310     
   6.4199999999999993E-002    -9.1736019643907785     
   6.4500000000000002E-002    -8.5116226573498590     
   6.4800000000000010E-002    -7.3186714898319103     
   6.5100000000000005E-002    -5.4559303803300772     
   6.5400000000000000E-002    -2.8121523135149031     
   6.5700000000000008E-002    0.67379503966257914     
   6.5999999999999989E-002     4.9965740930514686     
   6.6299999999999998E-002     10.070929485935842     
   6.6600000000000006E-002     15.723519800653836     
   6.6900000000000001E-002     21.696424002420709     
   6.7199999999999996E-002     27.658446659861205     
   6.7500000000000004E-002     33.224804910712677     
   6.7800000000000013E-002     37.986793057029772     
   6.8099999999999994E-002     41.544101887447034     
   6.8400000000000002E-002     43.539004567669082     
   6.8700000000000011E-002     43.692407696513094     
   6.8999999999999992E-002     41.832699405149690     
   6.9300000000000000E-002     37.916762472044255     
   6.9600000000000009E-002     32.039996512348182     
   6.9900000000000004E-002     24.436126285991890     
   7.0199999999999999E-002     15.465560517268820     
   7.0500000000000007E-002     5.5908655599722863     
   7.0800000000000016E-002    -4.6574619332847309     
   7.1099999999999997E-002    -14.718286803541499     
   7.1400000000000005E-002    -24.039564514612373     
   7.1700000000000000E-002    -32.121617630900857     
   7.1999999999999995E-002    -38.549593321700726     
   7.2300000000000003E-002    -43.022307704870840     
   7.2600000000000012E-002    -45.369832807208986     
   7.2900000000000006E-002    -45.558329257754949     
   7.3200000000000001E-002    -43.688135136844210     
   7.3499999999999996E-002    -39.977975427481709     
   7.3800000000000004E-002    -34.742916808877162     
   7.4099999999999999E-002    -28.365429856455890     
   7.4400000000000008E-002    -21.265428148560989     
   7.4700000000000003E-002    -13.869235350187651     
   7.5000000000000011E-002    -6.5801034766064230     
   7.5299999999999992E-002    0.24377485812894362     
   7.5600000000000001E-002     6.3080862275607519     
   7.5900000000000009E-002     11.394998480649310     
   7.6200000000000004E-002     15.364547226431929     
   7.6499999999999999E-002     18.155350297155678     
   7.6800000000000007E-002     19.778420410030819     
   7.7099999999999988E-002     20.307306744840911     
   7.7399999999999997E-002     19.864151915397631     
   7.7700000000000005E-002     18.605336677590671     
   7.8000000000000014E-002     16.711502420714712     
   7.8299999999999995E-002     14.370729519042762     
   7.8600000000000003E-002     11.768338856410667     
   7.8900000000000012E-002     9.0787247251733749     
   7.9199999999999993E-002     6.4531674031511859     
   7.9500000000000001E-002     4.0178570775575571     
   7.9800000000000010E-002     1.8698194074783454     
   8.0100000000000018E-002     7.2656701522087808E-002
   8.0399999999999999E-002    -1.3401391746658289     
   8.0700000000000008E-002    -2.3652747381007564     
   8.1000000000000003E-002    -3.0246882265215751     
   8.1299999999999997E-002    -3.3591629655041380     
   8.1600000000000006E-002    -3.4259417834677519     
   8.1900000000000014E-002    -3.2901216106696349     
   8.2199999999999995E-002    -3.0167428189113612     
   8.2500000000000004E-002    -2.6681955425349253     
   8.2799999999999999E-002    -2.2984564190740326     
   8.3100000000000007E-002    -1.9495604185972986     
   8.3400000000000002E-002    -1.6506920867300248     
   8.3700000000000011E-002    -1.4172089778906334     
   8.4000000000000005E-002    -1.2534796272697444     
   8.4300000000000000E-002    -1.1544761203450893     
   8.4599999999999995E-002    -1.1073080059701672     
   8.4900000000000003E-002    -1.0962743888850965     
   8.5199999999999998E-002    -1.1050391528978203     
   8.5500000000000007E-002    -1.1174067777421697     
   8.5800000000000001E-002    -1.1202513176833728     
   8.6100000000000010E-002    -1.1045136291854161     
   8.6399999999999991E-002    -1.0636004295158619     
   8.6699999999999999E-002   -0.99431236512608612     
   8.7000000000000008E-002   -0.89658174449395300     
   8.7300000000000003E-002   -0.77172633219039133     
   8.7599999999999997E-002   -0.62353601765687383     
   8.7900000000000006E-002   -0.45696730092860249     
   8.8200000000000014E-002   -0.27790525434685048     
   8.8499999999999995E-002    -9.4656955790311706E-002
   8.8800000000000004E-002     8.5327019813158142E-002
   8.9100000000000013E-002    0.25251157997687262     
   8.9399999999999993E-002    0.39565345580283329     
   8.9700000000000002E-002    0.50725512192367395     
   9.0000000000000011E-002    0.57944682409544668     
   9.0299999999999991E-002    0.60630814747589856     
   9.0600000000000000E-002    0.58642870238109235     
   9.0900000000000009E-002    0.52194545010034854     
   9.1200000000000017E-002    0.41997520616734180     
   9.1499999999999998E-002    0.28993103262651349     
   9.1800000000000007E-002    0.14395438336684002     
   9.2100000000000001E-002    -2.2370996928861011E-003
   9.2399999999999996E-002   -0.13456680561219742     
   9.2700000000000005E-002   -0.24101727835328329     
   9.3000000000000013E-002   -0.31130597308929098     
   9.3300000000000008E-002   -0.33955473939158370     
   9.3600000000000003E-002   -0.32485723584550119     
   9.3899999999999997E-002   -0.26966124194159885     
   9.4200000000000006E-002   -0.18014138791899992     
   9.4500000000000001E-002    -6.5857477947114954E-002
   9.4800000000000009E-002     6.2936728630365923E-002
   9.5100000000000004E-002    0.19602355582832034     
   9.5399999999999999E-002    0.32438563192467695     
   9.5699999999999993E-002    0.44060029010200902     
   9.6000000000000002E-002    0.53881965726911119     
   9.6300000000000011E-002    0.61710864328928361     
   9.6600000000000005E-002    0.67508529257092131     
   9.6900000000000000E-002    0.71264139284683603     
   9.7200000000000009E-002    0.73180648129618975     
   9.7499999999999989E-002    0.73469557955639653     
   9.7799999999999998E-002    0.72312124947027323     
   9.8100000000000007E-002    0.69872765036546158     
   9.8400000000000015E-002    0.66298690625947776     
   9.8699999999999996E-002    0.61783295115303682     
   9.9000000000000005E-002    0.56548402910816364     
   9.9300000000000013E-002    0.50816295536753198     
   9.9599999999999994E-002    0.45005460534276398     
   9.9900000000000003E-002    0.39660363364606627     
  0.10020000000000001         0.35251517211325001     
  0.10049999999999999         0.32344153054966046     
  0.10080000000000000         0.31459658950971786     
  0.10110000000000001         0.32867075347800112     
  0.10140000000000000         0.36625707635327759     
  0.10170000000000000         0.42488902334583412     
  0.10200000000000001         0.49909239280646933     
  0.10230000000000002         0.58005646366656505     
  0.10260000000000000         0.65595811364001277     
  0.10290000000000001         0.71388284033078830     
  0.10320000000000000         0.74151848750523586     
  0.10350000000000001         0.72823452184188420     
  0.10380000000000000         0.66664728386710581     
  0.10410000000000001         0.55372907586239539     
  0.10440000000000001         0.39172941132218209     
  0.10470000000000000         0.18813821214142912     
  0.10500000000000000         -4.4388152202200527E-002
  0.10530000000000000        -0.29054685113474871     
  0.10560000000000000        -0.53355775059901456     
  0.10590000000000001        -0.75702481238387898     
  0.10620000000000000        -0.94783405039235791     
  0.10650000000000001         -1.0961756688439550     
  0.10679999999999999         -1.1991346597805319     
  0.10710000000000000         -1.2597726144067791     
  0.10740000000000001         -1.2847993635285442     
  0.10770000000000000         -1.2859610557405077     
  0.10800000000000000         -1.2774462813026948     
  0.10830000000000001         -1.2724970768414678     
  0.10859999999999999         -1.2812385458606470     
  0.10890000000000000         -1.3095243720392895     
  0.10920000000000001         -1.3576841252817340     
  0.10950000000000001         -1.4185962127120479     
  0.10979999999999999         -1.4797189620030500     
  0.11009999999999999         -1.5250558461586075     
  0.11040000000000001         -1.5362442916875911     
  0.11070000000000001         -1.4949587965292004     
  0.11100000000000000         -1.3878968102989890     
  0.11130000000000000         -1.2088058057453448     
  0.11160000000000002        -0.95744038624511263     
  0.11190000000000001        -0.64326956266049695     
  0.11220000000000001        -0.28543648253944714     
  0.11250000000000000          9.2389056793360319E-002
  0.11280000000000000         0.46203294181001869     
  0.11309999999999999         0.79430301952425020     
  0.11340000000000001          1.0636965792670434     
  0.11369999999999998          1.2514695181734476     
  0.11400000000000000          1.3487048376606861     
  0.11430000000000000          1.3560791326127699     
  0.11460000000000002          1.2858376522353527     
  0.11489999999999999          1.1609832355228060     
  0.11520000000000001          1.0099210714139648     
  0.11550000000000001         0.86352140296922020     
  0.11580000000000000         0.75270122570593490     
  0.11609999999999999         0.70268144665991561     
  0.11640000000000002         0.72847111429430100     
  0.11670000000000001         0.83378092763734801     
  0.11700000000000001          1.0090704491485183     
  0.11730000000000000          1.2325689909984501     
  0.11760000000000000          1.4730761055683212     
  0.11789999999999999          1.6922689957203212     
  0.11820000000000001          1.8504544617336525     
  0.11850000000000001          1.9113118627520884     
  0.11880000000000000          1.8459904632373816     
  0.11910000000000000          1.6385562592100598     
  0.11940000000000002          1.2862734143731904     
  0.11970000000000001         0.80140379554021901     
  0.12000000000000001         0.21246975738823365     
  0.12030000000000000        -0.44110592442335039     
  0.12060000000000000         -1.1115090603657873     
  0.12089999999999999         -1.7464995233541680     
  0.12119999999999999         -2.2958564855345442     
  0.12150000000000001         -2.7147031727444864     
  0.12180000000000001         -2.9673377849082678     
  0.12210000000000000         -3.0325248359279424     
  0.12239999999999999         -2.9028385004192860     
  0.12270000000000002         -2.5858147242047425     
  0.12300000000000001         -2.1038539686793829     
  0.12330000000000001         -1.4897952203124427     
  0.12360000000000000        -0.78645896949571303     
  0.12390000000000000         -4.2281175309006880E-002
  0.12419999999999999         0.69461068498050937     
  0.12450000000000001          1.3770516239671791     
  0.12480000000000001          1.9625666567553788     
  0.12509999999999999          2.4169443035210567     
  0.12540000000000001          2.7155894806451384     
  0.12570000000000003          2.8452054961845588     
  0.12600000000000000          2.8021781283170082     
  0.12630000000000002          2.5930209301160163     
  0.12659999999999999          2.2349431292801163     
  0.12690000000000001          1.7522761107531704     
  0.12719999999999998          1.1750726563767822     
  0.12750000000000000         0.53870375107028556     
  0.12780000000000002        -0.12036315664721388     
  0.12809999999999999        -0.76660468137357762     
  0.12840000000000001         -1.3645616464773924     
  0.12869999999999998         -1.8836089384907626     
  0.12900000000000000         -2.2997211962185897     
  0.12930000000000003         -2.5943113782304437     
  0.12959999999999999         -2.7567420728698373     
  0.12990000000000002         -2.7836025122443129     
  0.13019999999999998         -2.6798865742212072     
  0.13050000000000000         -2.4580591818659649     
  0.13080000000000003         -2.1351925646217373     
  0.13109999999999999         -1.7340979622093755     
  0.13140000000000002         -1.2800917442519841     
  0.13169999999999998        -0.79875371309929677     
  0.13200000000000001        -0.31642351297608884     
  0.13229999999999997         0.14375396906281965     
  0.13260000000000000         0.56283239443358579     
  0.13290000000000002         0.92577603908003514     
  0.13319999999999999          1.2230057196522950     
  0.13350000000000001          1.4502429453782559     
  0.13380000000000003          1.6076019298903867     
  0.13410000000000000          1.6996814014660313     
  0.13440000000000002          1.7340601986452617     
  0.13469999999999999          1.7196888750419330     
  0.13500000000000001          1.6665908451220490     
  0.13529999999999998          1.5849286014266020     
  0.13560000000000000          1.4833021035679812     
  0.13590000000000002          1.3687478553432202     
  0.13619999999999999          1.2463395548999632     
  0.13650000000000001          1.1192530024584761     
  0.13680000000000003         0.98920907413340986     
  0.13710000000000000         0.85562230617110313     
  0.13740000000000002         0.71785633111836311     
  0.13769999999999999         0.57478250114853968     
  0.13800000000000001         0.42419602826136349     
  0.13829999999999998         0.26521638707757467     
  0.13860000000000000          9.8614083208095324E-002
  0.13890000000000002         -7.5623651855648982E-002
  0.13919999999999999        -0.25560522799368324     
  0.13950000000000001        -0.43668335577174267     
  0.13979999999999998        -0.61432705795280595     
  0.14010000000000000        -0.78272622221793364     
  0.14040000000000002        -0.93526371627617877     
  0.14069999999999999         -1.0645054314565245     
  0.14100000000000001         -1.1627672393393780     
  0.14130000000000004         -1.2248040470656436     
  0.14160000000000000         -1.2453304037783952     
  0.14189999999999997         -1.2204531928795828     
  0.14219999999999999         -1.1511729529779373     
  0.14250000000000002         -1.0397219942756650     
  0.14279999999999998        -0.89084276859401557     
  0.14310000000000000        -0.71374949464662218     
  0.14339999999999997        -0.51913045043032435     
  0.14369999999999999        -0.31897603959333004     
  0.14400000000000002        -0.12625282822866243     
  0.14429999999999998          4.6878955729667104E-002
  0.14460000000000001         0.18971367688493765     
  0.14490000000000003         0.29437683978699980     
  0.14520000000000000         0.35684699557267718     
  0.14550000000000002         0.37621901173702166     
  0.14579999999999999         0.35611552928728252     
  0.14610000000000001         0.30359754200556083     
  0.14640000000000003         0.22715787985174413     
  0.14670000000000000         0.13788421049465399     
  0.14699999999999996          4.7266982649788528E-002
  0.14729999999999999         -3.5152772471144775E-002
  0.14760000000000001        -0.10085385914639830     
  0.14789999999999998        -0.14430445071720546     
  0.14820000000000000        -0.16374661233270307     