  -1.4999999999999999E-002     0.0000000000000000     
  -1.4700000000000000E-002     0.0000000000000000     
  -1.4400000000000000E-002     0.0000000000000000     
  -1.4100000000000000E-002     0.0000000000000000     
  -1.3800000000000000E-002     0.0000000000000000     
  -1.3500000000000000E-002     0.0000000000000000     
  -1.3200000000000000E-002     0.0000000000000000     
  -1.2899999999999998E-002     0.0000000000000000     
  -1.2600000000000000E-002     0.0000000000000000     
  -1.2299999999999998E-002     0.0000000000000000     
  -1.2000000000000000E-002     0.0000000000000000     
  -1.1699999999999999E-002     0.0000000000000000     
  -1.1399999999999999E-002     0.0000000000000000     
  -1.1099999999999999E-002     0.0000000000000000     
  -1.0799999999999999E-002     0.0000000000000000     
  -1.0499999999999999E-002     6.1372655980199724E-044
  -1.0199999999999999E-002    -1.8951979674699848E-036
  -9.8999999999999991E-003     1.7859619730706605E-034
  -9.5999999999999992E-003    -2.7755123698537057E-033
  -9.2999999999999992E-003     2.9251164036475353E-032
  -8.9999999999999993E-003    -2.0540333628834709E-031
  -8.6999999999999994E-003     1.0100959694103208E-030
  -8.3999999999999995E-003    -3.2649143380191232E-030
  -8.0999999999999996E-003     4.4216764566881603E-030
  -7.7999999999999988E-003     1.7765079242821809E-029
  -7.4999999999999997E-003    -1.3191555775281566E-028
  -7.1999999999999998E-003     4.6832459779871398E-028
  -6.8999999999999981E-003    -1.9466616148183333E-027
  -6.5999999999999982E-003     1.5196996719849102E-026
  -6.3000000000000000E-003    -1.1847813804211912E-025
  -6.0000000000000001E-003     7.1793441358505737E-025
  -5.6999999999999985E-003    -3.4347842856819740E-024
  -5.3999999999999986E-003     1.3485369152623007E-023
  -5.1000000000000004E-003    -4.4743473398025757E-023
  -4.7999999999999987E-003     1.2799775677407880E-022
  -4.5000000000000005E-003    -3.1947087397675548E-022
  -4.1999999999999989E-003     6.9728115146405411E-022
  -3.8999999999999990E-003    -1.3122828719129120E-021
  -3.5999999999999990E-003     2.0142041024210687E-021
  -3.2999999999999991E-003    -1.9820870550828230E-021
  -2.9999999999999992E-003    -1.3415964051272528E-021
  -2.6999999999999993E-003     1.4120260662510256E-020
  -2.3999999999999994E-003    -4.7629559025044045E-020
  -2.0999999999999977E-003     1.1339742933794766E-019
  -1.7999999999999995E-003    -1.9721009389438736E-019
  -1.4999999999999979E-003     1.9767907368856902E-019
  -1.1999999999999997E-003     1.2958317452538284E-019
  -8.9999999999999976E-004    -1.0049489486443883E-018
  -5.9999999999999810E-004     1.7595168045529691E-018
  -2.9999999999999992E-004     1.1405379045335306E-018
   0.0000000000000000         -1.6333412818477711E-017
   3.0000000000000165E-004     5.6191842635116621E-017
   5.9999999999999984E-004    -1.2498562578651255E-016
   9.0000000000000149E-004     1.9263525085213628E-016
   1.2000000000000031E-003    -1.6572501015594890E-016
   1.5000000000000013E-003    -1.0674157797943323E-016
   1.8000000000000030E-003     7.4076809379418267E-016
   2.1000000000000012E-003    -1.6157324253861122E-015
   2.3999999999999994E-003     2.1297772937273222E-015
   2.7000000000000010E-003    -1.0847162929553138E-015
   2.9999999999999992E-003    -3.1135914298024333E-015
   3.3000000000000008E-003     1.2007648117112325E-014
   3.6000000000000025E-003    -2.7045243607071602E-014
   3.9000000000000007E-003     5.0586954742154384E-014
   4.2000000000000023E-003    -8.4823035794027150E-014
   4.5000000000000005E-003     1.1543510603240706E-013
   4.7999999999999987E-003    -6.4338601657787563E-014
   5.1000000000000004E-003    -2.5169009220235837E-013
   5.4000000000000020E-003     9.7036804187003770E-013
   5.7000000000000037E-003    -1.5323510863197371E-012
   5.9999999999999984E-003    -3.8172493692719523E-013
   6.3000000000000000E-003     8.5185100679441916E-012
   6.6000000000000017E-003    -2.1540766268104065E-011
   6.9000000000000034E-003     1.6353034031100967E-011
   7.2000000000000015E-003     6.2530716057035825E-011
   7.5000000000000032E-003    -2.4128651145268313E-010
   7.8000000000000014E-003     3.1001829445279602E-010
   8.0999999999999996E-003     3.4100488717623207E-010
   8.4000000000000012E-003    -2.0833723292720056E-009
   8.7000000000000029E-003     3.0035777185984916E-009
   9.0000000000000011E-003     2.3174813115288076E-009
   9.2999999999999992E-003    -1.6397092539017381E-008
   9.6000000000000009E-003     2.1378741176872228E-008
   9.8999999999999991E-003     2.6162195425791560E-008
   1.0200000000000001E-002    -1.2298159663659719E-007
   1.0500000000000002E-002     7.3266926110074075E-008
   1.0800000000000004E-002     3.5625391289302475E-007
   1.1099999999999999E-002    -5.6652986984765534E-007
   1.1400000000000000E-002    -8.6355598416578073E-007
   1.1700000000000002E-002     1.8251437446396746E-006
   1.2000000000000004E-002     2.3507239612939003E-006
   1.2300000000000002E-002    -4.3339524003142633E-006
   1.2600000000000000E-002    -8.4651702059840906E-006
   1.2900000000000002E-002     8.7514210036221176E-006
   1.3200000000000000E-002     5.6274390881196968E-005
   1.3500000000000002E-002     1.2830246121795294E-004
   1.3800000000000003E-002     2.1543921380211495E-004
   1.4100000000000001E-002     3.1944050035063445E-004
   1.4400000000000000E-002     4.6627395205814886E-004
   1.4700000000000001E-002     7.0445769174212183E-004
   1.4999999999999999E-002     1.0902660422746025E-003
   1.5300000000000001E-002     1.6862243639764625E-003
   1.5600000000000003E-002     2.5719376280021362E-003
   1.5899999999999997E-002     3.8537038487351728E-003
   1.6199999999999999E-002     5.6789079670543641E-003
   1.6500000000000001E-002     8.2532064973273069E-003
   1.6800000000000002E-002     1.1842343954460623E-002
   1.7100000000000004E-002     1.6760064287441655E-002
   1.7400000000000006E-002     2.3367932065546458E-002
   1.7700000000000000E-002     3.2080687582661617E-002
   1.8000000000000002E-002     4.3353442103643149E-002
   1.8300000000000004E-002     5.7649310680761248E-002
   1.8600000000000005E-002     7.5393900281692544E-002
   1.8900000000000000E-002     9.6916802240756425E-002
   1.9200000000000002E-002    0.12236195805003962     
   1.9500000000000003E-002    0.15158346299066416     
   1.9799999999999998E-002    0.18402728443904340     
   2.0100000000000000E-002    0.21860243387911396     
   2.0400000000000001E-002    0.25356566916764467     
   2.0700000000000003E-002    0.28643119349524093     
   2.0999999999999998E-002    0.31388759631541191     
   2.1299999999999999E-002    0.33182045840349050     
   2.1600000000000001E-002    0.33540409830838686     
   2.1900000000000003E-002    0.31931376488693519     
   2.2200000000000004E-002    0.27803957496605303     
   2.2500000000000006E-002    0.20634420251182345     
   2.2800000000000001E-002     9.9850043984784434E-002
   2.3100000000000002E-002    -4.4333368269619630E-002
   2.3400000000000004E-002   -0.22692371888708546     
   2.3699999999999999E-002   -0.44582352042542706     
   2.4000000000000000E-002   -0.69560372851981755     
   2.4300000000000002E-002   -0.96718758395738991     
   2.4599999999999997E-002    -1.2479102619970139     
   2.4900000000000005E-002    -1.5217293513031016     
   2.5200000000000000E-002    -1.7700192944285404     
   2.5499999999999995E-002    -1.9726039190887861     
   2.5800000000000003E-002    -2.1092319511442779     
   2.6099999999999998E-002    -2.1613044764017464     
   2.6400000000000007E-002    -2.1135499503770125     
   2.6700000000000002E-002    -1.9558243777521069     
   2.6999999999999996E-002    -1.6844291710880068     
   2.7300000000000005E-002    -1.3031171580231169     
   2.7600000000000000E-002   -0.82349318408562144     
   2.7900000000000008E-002   -0.26477390599103634     
   2.8200000000000003E-002    0.34729185710877813     
   2.8499999999999998E-002    0.98208230830218157     
   2.8800000000000006E-002     1.6061680335050985     
   2.9100000000000001E-002     2.1859784151894757     
   2.9400000000000003E-002     2.6901726754428199     
   2.9700000000000004E-002     3.0924751794308563     
   3.0000000000000006E-002     3.3734164275354215     
   3.0300000000000001E-002     3.5218288935196429     
   3.0600000000000002E-002     3.5357437167541828     
   3.0900000000000004E-002     3.4217815428400185     
   3.1199999999999999E-002     3.1946768784371460     
   3.1500000000000007E-002     2.8753950613759129     
   3.1800000000000002E-002     2.4887139810299477     
   3.2099999999999997E-002     2.0612528333866105     
   3.2400000000000005E-002     1.6183158168089147     
   3.2700000000000000E-002     1.1820323477840764     
   3.3000000000000002E-002    0.76927483232795391     
   3.3300000000000003E-002    0.39037478193375802     
   3.3599999999999998E-002     4.8934514949565786E-002
   3.3900000000000000E-002   -0.25841870494857183     
   3.4200000000000001E-002   -0.54020416235301372     
   3.4500000000000003E-002   -0.80874972961115610     
   3.4799999999999998E-002    -1.0778101621081300     
   3.5099999999999999E-002    -1.3600139556790181     
   3.5400000000000001E-002    -1.6645275299249145     
   3.5699999999999996E-002    -1.9946649031529207     
   3.6000000000000004E-002    -2.3466191266913263     
   3.6299999999999999E-002    -2.7084186076130754     
   3.6600000000000008E-002    -3.0603427914420838     
   3.6900000000000002E-002    -3.3759205400233308     
   3.7199999999999997E-002    -3.6240222545819889     
   3.7500000000000006E-002    -3.7720809106068138     
   3.7800000000000000E-002    -3.7887780818002073     
   3.8100000000000009E-002    -3.6484625513596787     
   3.8400000000000004E-002    -3.3337705324384324     
   3.8699999999999998E-002    -2.8390512661204612     
   3.9000000000000007E-002    -2.1722407530981753     
   3.9300000000000002E-002    -1.3549810822799961     
   3.9600000000000003E-002   -0.42321656645517153     
   3.9900000000000005E-002    0.57578169154505665     
   4.0200000000000000E-002     1.5855442213009188     
   4.0500000000000001E-002     2.5447556947412306     
   4.0800000000000003E-002     3.3924849057608131     
   4.1100000000000005E-002     4.0719351841633351     
   4.1399999999999999E-002     4.5360579608745502     
   4.1700000000000008E-002     4.7511296428996204     
   4.2000000000000003E-002     4.6998901553552566     
   4.2299999999999997E-002     4.3832059111656774     
   4.2600000000000006E-002     3.8200843546093717     
   4.2900000000000001E-002     3.0468266216329538     
   4.3200000000000002E-002     2.1140704343039727     
   4.3500000000000004E-002     1.0834047953300558     
   4.3799999999999999E-002     2.2425749322975228E-002
   4.4100000000000000E-002    -1.0000345630627450     
   4.4400000000000002E-002    -1.9194070072447060     
   4.4700000000000004E-002    -2.6793437023729552     
   4.4999999999999998E-002    -3.2361099784305583     
   4.5300000000000000E-002    -3.5616140467200488     
   4.5600000000000002E-002    -3.6440861354312446     
   4.5899999999999996E-002    -3.4897654200548249     
   4.6200000000000005E-002    -3.1207704688619549     
   4.6500000000000000E-002    -2.5732257496834601     
   4.6799999999999994E-002    -1.8947978121550624     
   4.7100000000000003E-002    -1.1394963325391141     
   4.7399999999999998E-002   -0.36542794209314772     
   4.7700000000000006E-002    0.37067616451361102     
   4.8000000000000001E-002     1.0168475016631540     
   4.8300000000000010E-002     1.5286508956488005     
   4.8600000000000004E-002     1.8732028209368958     
   4.8899999999999999E-002     2.0288937323917335     
   4.9200000000000008E-002     1.9877752309441135     
   4.9500000000000002E-002     1.7548048730827004     
   4.9800000000000011E-002     1.3470339978681667     
   5.0100000000000006E-002    0.79241706448512494     
   5.0400000000000000E-002    0.12673651479959655     
   5.0700000000000009E-002   -0.60747736750751025     
   5.1000000000000004E-002    -1.3654427627722032     
   5.1299999999999998E-002    -2.1018204882797273     
   5.1600000000000007E-002    -2.7735879703387338     
   5.1900000000000002E-002    -3.3430812714460840     
   5.2200000000000010E-002    -3.7782931736584664     
   5.2500000000000005E-002    -4.0563879448459526     
   5.2800000000000000E-002    -4.1628323033957439     
   5.3099999999999994E-002    -4.0917373103494006     
   5.3400000000000003E-002    -3.8461227755263487     
   5.3699999999999998E-002    -3.4352801098580232     
   5.4000000000000006E-002    -2.8742647319641956     
   5.4300000000000001E-002    -2.1821675335390371     
   5.4599999999999996E-002    -1.3801880994850360     
   5.4900000000000004E-002   -0.49028001346236522     
   5.5199999999999999E-002    0.46611156856457781     
   5.5499999999999994E-002     1.4687641011328600     
   5.5800000000000002E-002     2.4980936433556145     
   5.6099999999999997E-002     3.5360885057037801     
   5.6400000000000006E-002     4.5644359955802258     
   5.6700000000000000E-002     5.5640678722322487     
   5.6999999999999995E-002     6.5156374220279005     
   5.7300000000000004E-002     7.3969397698451163     
   5.7599999999999998E-002     8.1840219555175633     
   5.7900000000000007E-002     8.8512792549873573     
   5.8200000000000002E-002     9.3712854263678729     
   5.8499999999999996E-002     9.7171411325582788     
   5.8800000000000005E-002     9.8629827266227128     
   5.9100000000000000E-002     9.7850932824440484     
   5.9400000000000008E-002     9.4651155230974346     
   5.9700000000000003E-002     8.8893699441060168     
   6.0000000000000012E-002     8.0512513968864798     
   6.0300000000000006E-002     6.9532918859516641     
   6.0600000000000001E-002     5.6040868775896069     
   6.0900000000000010E-002     4.0234136687911457     
   6.1200000000000004E-002     2.2386365129156069     
   6.1500000000000013E-002    0.28547599621420910     
   6.1800000000000008E-002    -1.7906514077494495     
   6.2100000000000002E-002    -3.9397592174229712     
   6.2399999999999997E-002    -6.1034245101047206     
   6.2700000000000006E-002    -8.2192258447312927     
   6.3000000000000000E-002    -10.221492730787029     
   6.3300000000000009E-002    -12.042657819742050     
   6.3600000000000004E-002    -13.617520305419596     
   6.3899999999999998E-002    -14.883655527849205     
   6.4199999999999993E-002    -15.785116182797017     
   6.4500000000000002E-002    -16.275642389932973     
   6.4800000000000010E-002    -16.321683886351035     
   6.5100000000000005E-002    -15.902696619867823     
   6.5400000000000000E-002    -15.016613977851689     
   6.5700000000000008E-002    -13.678764367504458     
   6.5999999999999989E-002    -11.922557861243680     
   6.6299999999999998E-002    -9.8021688817803021     
   6.6600000000000006E-002    -7.3858323499667513     
   6.6900000000000001E-002    -4.7593112429957261     
   6.7199999999999996E-002    -2.0183506475386452     
   6.7500000000000004E-002    0.73405010678831839     
   6.7800000000000013E-002     3.3901395316881389     
   6.8099999999999994E-002     5.8479489808761560     
   6.8400000000000002E-002     8.0109195260946677     
   6.8700000000000011E-002     9.7961196487346207     
   6.8999999999999992E-002     11.138850175599355     
   6.9300000000000000E-002     11.993728607162435     
   6.9600000000000009E-002     12.341474509204936     
   6.9900000000000004E-002     12.185351355324570     
   7.0199999999999999E-002     11.555744162487168     
   7.0500000000000007E-002     10.505310057786177     
   7.0800000000000016E-002     9.1066312858928367     
   7.1099999999999997E-002     7.4503636501055510     
   7.1400000000000005E-002     5.6369147507478390     
   7.1700000000000000E-002     3.7735505367656881     
   7.1999999999999995E-002     1.9666972470686817     
   7.2300000000000003E-002    0.31667978053278673     
   7.2600000000000012E-002    -1.0881132708342942     
   7.2900000000000006E-002    -2.1757781120389841     
   7.3200000000000001E-002    -2.8958103268505315     
   7.3499999999999996E-002    -3.2217986201552389     
   7.3800000000000004E-002    -3.1512608161734574     
   7.4099999999999999E-002    -2.7084860457616826     
   7.4400000000000008E-002    -1.9403478784715016     
   7.4700000000000003E-002   -0.91561255042874790     
   7.5000000000000011E-002    0.27989991925018459     
   7.5299999999999992E-002     1.5506024557815368     
   7.5600000000000001E-002     2.7940743121652125     
   7.5900000000000009E-002     3.9115200147229721     
   7.6200000000000004E-002     4.8122215326891480     
   7.6499999999999999E-002     5.4211201676237426     
   7.6800000000000007E-002     5.6853356322147048     
   7.7099999999999988E-002     5.5759544289608050     
   7.7399999999999997E-002     5.0944032544725797     
   7.7700000000000005E-002     4.2684368927742709     
   7.8000000000000014E-002     3.1531643679599068     
   7.8299999999999995E-002     1.8260308295741590     
   7.8600000000000003E-002    0.37916002473784449     
   7.8900000000000012E-002    -1.0855680923282067     
   7.9199999999999993E-002    -2.4681830614488676     
   7.9500000000000001E-002    -3.6765656657620074     
   7.9800000000000010E-002    -4.6361794626550532     
   8.0100000000000018E-002    -5.2964062804294025     
   8.0399999999999999E-002    -5.6322078771564259     
   8.0700000000000008E-002    -5.6483440413774142     
   8.1000000000000003E-002    -5.3756890258472927     
   8.1299999999999997E-002    -4.8691573053464721     
   8.1600000000000006E-002    -4.2000117165846209     
   8.1900000000000014E-002    -3.4468636338001253     
   8.2199999999999995E-002    -2.6901197229652976     
   8.2500000000000004E-002    -2.0014898555007830     
   8.2799999999999999E-002    -1.4375161896828399     
   8.3100000000000007E-002    -1.0352041498737519     
   8.3400000000000002E-002   -0.80904672468815109     
   8.3700000000000011E-002   -0.75220136023502426     
   8.4000000000000005E-002   -0.83857683838366570     
   8.4300000000000000E-002    -1.0274631864821095     
   8.4599999999999995E-002    -1.2696157621838868     
   8.4900000000000003E-002    -1.5153979031544691     
   8.5199999999999998E-002    -1.7183917770617778     
   8.5500000000000007E-002    -1.8425400306726780     
   8.5800000000000001E-002    -1.8646458474728800     
   8.6100000000000010E-002    -1.7747094755269683     
   8.6399999999999991E-002    -1.5784406819861145     
   8.6699999999999999E-002    -1.2917095612473126     
   8.7000000000000008E-002   -0.94002016592550630     
   8.7300000000000003E-002   -0.55386045040757848     
   8.7599999999999997E-002   -0.16336704486962256     
   8.7900000000000006E-002    0.20186093589781567     
   8.8200000000000014E-002    0.52004030360479858     
   8.8499999999999995E-002    0.77348992172557096     
   8.8800000000000004E-002    0.95281353526531809     
   8.9100000000000013E-002     1.0572663244020908     
   8.9399999999999993E-002     1.0902015870562218     
   8.9700000000000002E-002     1.0626812892465358     
   9.0000000000000011E-002    0.98693165511895098     
   9.0299999999999991E-002    0.87820378456117731     
   9.0600000000000000E-002    0.75204274772983115     
   9.0900000000000009E-002    0.62230608826051548     
   9.1200000000000017E-002    0.50247882044011316     
   9.1499999999999998E-002    0.40052144284596047     
   9.1800000000000007E-002    0.32340039717872238     
   9.2100000000000001E-002    0.27423968213011557     
   9.2399999999999996E-002    0.25356816966669060     
   9.2700000000000005E-002    0.26104906337960770     
   9.3000000000000013E-002    0.29579508859793002     
   9.3300000000000008E-002    0.36078698366914957     
   9.3600000000000003E-002    0.45999656382565224     
   9.3899999999999997E-002    0.60366775133284178     
   9.4200000000000006E-002    0.80547811358044152     
   9.4500000000000001E-002     1.0814086395693199     
   9.4800000000000009E-002     1.4492082815340399     
   9.5100000000000004E-002     1.9221376430719852     
   9.5399999999999999E-002     2.5077383809454221     
   9.5699999999999993E-002     3.2001786580135718     
   9.6000000000000002E-002     3.9801197473854919     
   9.6300000000000011E-002     4.8114591153549569     
   9.6600000000000005E-002     5.6411662708487098     
   9.6900000000000000E-002     6.4066873299533684     
   9.7200000000000009E-002     7.0358339146293840     
   9.7499999999999989E-002     7.4604822058903020     
   9.7799999999999998E-002     7.6215296673860653     
   9.8100000000000007E-002     7.4780960951861539     
   9.8400000000000015E-002     7.0178547711773502     
   9.8699999999999996E-002     6.2541838391096967     
   9.9000000000000005E-002     5.2302218036738584     
   9.9300000000000013E-002     4.0117311858855631     
   9.9599999999999994E-002     2.6780278885676734     
   9.9900000000000003E-002     1.3106836113561651     
  0.10020000000000001         -2.3476335734726531E-002
  0.10049999999999999         -1.2803199501417750     
  0.10080000000000000         -2.4526312615983152     
  0.10110000000000001         -3.5708387176381602     
  0.10140000000000000         -4.7049861214528850     
  0.10170000000000000         -5.9520445102742450     
  0.10200000000000001         -7.4229865296380275     
  0.10230000000000002         -9.2234602229943121     
  0.10260000000000000         -11.424707449063375     
  0.10290000000000001         -14.049094256309784     
  0.10320000000000000         -17.044803705667000     
  0.10350000000000001         -20.277286655742518     
  0.10380000000000000         -23.527637655164796     
  0.10410000000000001         -26.496946559889192     
  0.10440000000000001         -28.834013260580925     
  0.10470000000000000         -30.157036146513914     
  0.10500000000000000         -30.098450056139907     
  0.10530000000000000         -28.344784143101148     
  0.10560000000000000         -24.676102031863376     
  0.10590000000000001         -19.005594560756101     
  0.10620000000000000         -11.402961970018804     
  0.10650000000000001         -2.1093431964367668     
  0.10679999999999999          8.4673576075868553     
  0.10710000000000000          19.770927533140281     
  0.10740000000000001          31.132311109934886     
  0.10770000000000000          41.820415874857012     
  0.10800000000000000          51.095818065882114     
  0.10830000000000001          58.273132923037103     
  0.10859999999999999          62.781361292250217     
  0.10890000000000000          64.209221582178500     
  0.10920000000000001          62.345734327754705     
  0.10950000000000001          57.200352348673441     
  0.10979999999999999          49.005356379157504     
  0.11009999999999999          38.198597377282795     
  0.11040000000000001          25.391653338560936     
  0.11070000000000001          11.320201038531605     
  0.11100000000000000         -3.2069960085376286     
  0.11130000000000000         -17.370193682422844     
  0.11160000000000002         -30.399124486517639     
  0.11190000000000001         -41.614220123308684     
  0.11220000000000001         -50.483418055578340     
  0.11250000000000000         -56.635746600627954     
  0.11280000000000000         -59.881466530510444     
  0.11309999999999999         -60.217262873438152     
  0.11340000000000001         -57.797291365453603     
  0.11369999999999998         -52.932117958131947     
  0.11400000000000000         -46.036339215810656     
  0.11430000000000000         -37.605232549552184     
  0.11460000000000002         -28.179111685708857     
  0.11489999999999999         -18.293672661343429     
  0.11520000000000001         -8.4705390921282806     
  0.11550000000000001         0.83198866447321906     
  0.11580000000000000          9.2263690722638287     
  0.11609999999999999          16.408346405761325     
  0.11640000000000002          22.178110395692975     
  0.11670000000000001          26.421470941508559     
  0.11700000000000001          29.123129199678885     
  0.11730000000000000          30.345741574622252     
  0.11760000000000000          30.220644280908946     
  0.11789999999999999          28.935901896083553     
  0.11820000000000001          26.710510471463124     
  0.11850000000000001          23.786487755723385     
  0.11880000000000000          20.403919353772068     
  0.11910000000000000          16.791868302185623     
  0.11940000000000002          13.153176361545869     
  0.11970000000000001          9.6565628255453060     
  0.12000000000000001          6.4355721392545941     
  0.12030000000000000          3.5743593869885846     
  0.12060000000000000          1.1282608043615487     
  0.12089999999999999        -0.88922476558923169     
  0.12119999999999999         -2.4900806587922744     
  0.12150000000000001         -3.7041769696244509     
  0.12180000000000001         -4.5830369658503933     
  0.12210000000000000         -5.1736322093178382     
  0.12239999999999999         -5.5359058987303369     
  0.12270000000000002         -5.7189589106864611     
  0.12300000000000001         -5.7656708276474049     
  0.12330000000000001         -5.7201428867432798     
  0.12360000000000000         -5.6081676885143708     
  0.12390000000000000         -5.4592967376898294     
  0.12419999999999999         -5.2891664793150861     
  0.12450000000000001         -5.1115865943148266     
  0.12480000000000001         -4.9367156213126746     
  0.12509999999999999         -4.7654457234989307     
  0.12540000000000001         -4.6017289265475121     
  0.12570000000000003         -4.4391183929456242     
  0.12600000000000000         -4.2746529632467469     
  0.12630000000000002         -4.0977840464146578     
  0.12659999999999999         -3.8995962176575381     
  0.12690000000000001         -3.6715967684547408     
  0.12719999999999998         -3.4032769236335283     
  0.12750000000000000         -3.0951461822450970     
  0.12780000000000002         -2.7399103675492005     
  0.12809999999999999         -2.3457231553259477     
  0.12840000000000001         -1.9181914356719432     
  0.12869999999999998         -1.4657861020283465     
  0.12900000000000000         -1.0075639501237492     
  0.12930000000000003        -0.54976135622586619     
  0.12959999999999999        -0.11202256428897812     
  0.12990000000000002         0.29808145760507287     
  0.13019999999999998         0.67455500357753073     
  0.13050000000000000          1.0102047925364983     
  0.13080000000000003          1.3120608331722536     
  0.13109999999999999          1.5766177183933023     
  0.13140000000000002          1.8143415461120853     
  0.13169999999999998          2.0304293648095086     
  0.13200000000000001          2.2271201641587206     
  0.13229999999999997          2.4125549836217584     
  0.13260000000000000          2.5811560221064651     
  0.13290000000000002          2.7338209241530533     
  0.13319999999999999          2.8618474121683581     
  0.13350000000000001          2.9575467249410559     
  0.13380000000000003          3.0130460421724266     
  0.13410000000000000          3.0172457872060168     
  0.13440000000000002          2.9679064934113146     
  0.13469999999999999          2.8585992045078212     
  0.13500000000000001          2.6931119140963995     
  0.13529999999999998          2.4738319080095978     
  0.13560000000000000          2.2106590410058105     
  0.13590000000000002          1.9170048346552191     
  0.13619999999999999          1.5997332420568620     
  0.13650000000000001          1.2779289538492133     
  0.13680000000000003         0.95624721372186383     
  0.13710000000000000         0.64524304987083270     
  0.13740000000000002         0.35180872605129948     
  0.13769999999999999          7.2317107048275042E-002
  0.13800000000000001        -0.18628840419815881     
  0.13829999999999998        -0.43248114312082908     
  0.13860000000000000        -0.66513389715675852     
  0.13890000000000002        -0.88446248054907139     
  0.13919999999999999         -1.0952173522148951     
  0.13950000000000001         -1.2862962549423311     
  0.13979999999999998         -1.4594440533188136     
  0.14010000000000000         -1.6047889077976401     
  0.14040000000000002         -1.7158588265432071     
  0.14069999999999999         -1.7889977790384504     
  0.14100000000000001         -1.8176703552902964     
  0.14130000000000004         -1.8063235375856888     
  0.14160000000000000         -1.7550739135624245     
  0.14189999999999997         -1.6764526437997904     
  0.14219999999999999         -1.5790257510219727     
  0.14250000000000002         -1.4767153305286791     
  0.14279999999999998         -1.3834483651657985     
  0.14310000000000000         -1.3059214379285244     
  0.14339999999999997         -1.2554827949709642     
  0.14369999999999999         -1.2262584003536749     
  0.14400000000000002         -1.2199223085717235     
  0.14429999999999998         -1.2230242551118495     
  0.14460000000000001         -1.2182970130571074     
  0.14490000000000003         -1.1962286327972718     
  0.14520000000000000         -1.1319224944431274     
  0.14550000000000002         -1.0204951870997938     
  0.14579999999999999        -0.85012037536357454     
  0.14610000000000001        -0.62034315658670658     
  0.14640000000000003        -0.34359300541413723     
  0.14670000000000000         -2.5853826263902112E-002
  0.14699999999999996         0.30327159601302112     
  0.14729999999999999         0.62623221542431107     
  0.14760000000000001         0.91661365057864697     
  0.14789999999999998          1.1508399400217115     
  0.14820000000000000          1.3209189334867757     