  -1.4999999999999999E-002     0.0000000000000000     
  -1.4700000000000000E-002     1.0808237428182941E-037
  -1.4400000000000000E-002    -3.2191902431890945E-030
  -1.4100000000000000E-002    -2.1505453872862872E-026
  -1.3800000000000000E-002    -4.0095753167541978E-024
  -1.3500000000000000E-002    -9.7962204027833397E-022
  -1.3200000000000000E-002    -2.8404747540749404E-020
  -1.2899999999999998E-002     1.3601980676948351E-019
  -1.2600000000000000E-002     2.1904265539964628E-018
  -1.2299999999999998E-002    -2.7992218621178282E-018
  -1.2000000000000000E-002    -3.7680316503239790E-017
  -1.1699999999999999E-002    -8.4157293724023626E-017
  -1.1399999999999999E-002    -2.6681993270158367E-016
  -1.1099999999999999E-002     5.5423921936786983E-015
  -1.0799999999999999E-002     1.1809554474764933E-014
  -1.0499999999999999E-002    -1.4228674784666730E-013
  -1.0199999999999999E-002     1.1679392936292458E-013
  -9.8999999999999991E-003     1.0732471823266278E-012
  -9.5999999999999992E-003    -2.8791787942564993E-012
  -9.2999999999999992E-003     7.4545782564928730E-013
  -8.9999999999999993E-003     8.8101837632937174E-012
  -8.6999999999999994E-003    -2.2045848869047320E-011
  -8.3999999999999995E-003     2.3469225917236967E-011
  -8.0999999999999996E-003     1.6058850115298424E-011
  -7.7999999999999988E-003    -8.1301322059278251E-011
  -7.4999999999999997E-003     7.7656403117507214E-011
  -7.1999999999999998E-003    -8.8121880179803889E-012
  -6.8999999999999981E-003     2.1567352803680223E-011
  -6.5999999999999982E-003    -8.6760443005574522E-011
  -6.3000000000000000E-003    -7.9800476482658920E-011
  -6.0000000000000001E-003     6.7951625821482588E-010
  -5.6999999999999985E-003    -8.3031983912995592E-010
  -5.3999999999999986E-003    -1.1322202691406940E-009
  -5.1000000000000004E-003     2.7698843254870234E-009
  -4.7999999999999987E-003     1.1394118209273467E-009
  -4.5000000000000005E-003    -5.6860024976684413E-009
  -4.1999999999999989E-003     3.1982866434856685E-010
  -3.8999999999999990E-003     9.0876985701094960E-009
  -3.5999999999999990E-003    -4.8917581999764277E-009
  -3.2999999999999991E-003    -1.2538498954161468E-008
  -2.9999999999999992E-003     1.2263597962411741E-008
  -2.6999999999999993E-003     1.7493003107327192E-008
  -2.3999999999999994E-003    -2.0001265587583331E-008
  -2.0999999999999977E-003    -1.7686459758811032E-008
  -1.7999999999999995E-003     3.5824831123007034E-009
  -1.4999999999999979E-003     1.4263364619605557E-008
  -1.1999999999999997E-003     1.1390466387488504E-007
  -8.9999999999999976E-004    -7.8273815075735870E-008
  -5.9999999999999810E-004    -4.7304389429557982E-007
  -2.9999999999999992E-004     3.3129320969550610E-007
   0.0000000000000000          1.4599040459477957E-006
   3.0000000000000165E-004    -8.4900433233029127E-007
   5.9999999999999984E-004    -4.3214644915963274E-006
   9.0000000000000149E-004     1.0800870880090321E-006
   1.2000000000000031E-003     1.1756588448142428E-005
   1.5000000000000013E-003     2.2695548124244446E-006
   1.8000000000000030E-003    -2.8474977366548139E-005
   2.1000000000000012E-003    -2.2196635581811017E-005
   2.3999999999999994E-003     6.9322688040988344E-005
   2.7000000000000010E-003     1.9834316060521667E-004
   2.9999999999999992E-003     2.9062659693206882E-004
   3.3000000000000008E-003     3.8331696624112409E-004
   3.6000000000000025E-003     5.9722060376406075E-004
   3.9000000000000007E-003     9.9561451792650737E-004
   4.2000000000000023E-003     1.5729634455313164E-003
   4.5000000000000005E-003     2.3822896974506499E-003
   4.7999999999999987E-003     3.5924096826400495E-003
   5.1000000000000004E-003     5.4200051215519294E-003
   5.4000000000000020E-003     8.0920993844267059E-003
   5.7000000000000037E-003     1.1906286112849399E-002
   5.9999999999999984E-003     1.7272194021363631E-002
   6.3000000000000000E-003     2.4680758623566976E-002
   6.6000000000000017E-003     3.4722438429755781E-002
   6.9000000000000034E-003     4.8149524128642943E-002
   7.2000000000000015E-003     6.5821846229170283E-002
   7.5000000000000032E-003     8.8605229267387786E-002
   7.8000000000000014E-003    0.11737345500812293     
   8.0999999999999996E-003    0.15298565735652644     
   8.4000000000000012E-003    0.19608975373196527     
   8.7000000000000029E-003    0.24691761374393331     
   9.0000000000000011E-003    0.30520882481642353     
   9.2999999999999992E-003    0.37004279332364465     
   9.6000000000000009E-003    0.43949099621585536     
   9.8999999999999991E-003    0.51031970288530959     
   1.0200000000000001E-002    0.57793563060587172     
   1.0500000000000002E-002    0.63639366328173241     
   1.0800000000000004E-002    0.67832303107075664     
   1.1099999999999999E-002    0.69495207612437437     
   1.1400000000000000E-002    0.67649800733471455     
   1.1700000000000002E-002    0.61285742009222688     
   1.2000000000000004E-002    0.49440082616591280     
   1.2300000000000002E-002    0.31282654984260322     
   1.2600000000000000E-002     6.2128182093147424E-002
   1.2900000000000002E-002   -0.26035092011232902     
   1.3200000000000000E-002   -0.65283650237787805     
   1.3500000000000002E-002    -1.1082319583143132     
   1.3800000000000003E-002    -1.6136011436816740     
   1.4100000000000001E-002    -2.1501149519180580     
   1.4400000000000000E-002    -2.6936425622902833     
   1.4700000000000001E-002    -3.2157883222330659     
   1.4999999999999999E-002    -3.6854352691803856     
   1.5300000000000001E-002    -4.0707693042507769     
   1.5600000000000003E-002    -4.3415870840579158     
   1.5899999999999997E-002    -4.4716334765128867     
   1.6199999999999999E-002    -4.4407520965111305     
   1.6500000000000001E-002    -4.2367278048435004     
   1.6800000000000002E-002    -3.8564921526726388     
   1.7100000000000004E-002    -3.3063999472692123     
   1.7400000000000006E-002    -2.6019281294262711     
   1.7700000000000000E-002    -1.7663510008159620     
   1.8000000000000002E-002   -0.82860447051244956     
   1.8300000000000004E-002    0.17885013081730922     
   1.8600000000000005E-002     1.2227651078512634     
   1.8900000000000000E-002     2.2713078685251404     
   1.9200000000000002E-002     3.2961465800837573     
   1.9500000000000003E-002     4.2742252103505924     
   1.9799999999999998E-002     5.1878070841785107     
   2.0100000000000000E-002     6.0245437864931759     
   2.0400000000000001E-002     6.7765107593616616     
   2.0700000000000003E-002     7.4386411304897635     
   2.0999999999999998E-002     8.0073080762758764     
   2.1299999999999999E-002     8.4782954028905806     
   2.1600000000000001E-002     8.8454809987758658     
   2.1900000000000003E-002     9.0995598647098959     
   2.2200000000000004E-002     9.2274227948783398     
   2.2500000000000006E-002     9.2133379788274290     
   2.2800000000000001E-002     9.0390740255586230     
   2.3100000000000002E-002     8.6853037719974946     
   2.3400000000000004E-002     8.1337872432099410     
   2.3699999999999999E-002     7.3687478046607451     
   2.4000000000000000E-002     6.3796082534630454     
   2.4300000000000002E-002     5.1622510993598389     
   2.4599999999999997E-002     3.7203563315513195     
   2.4900000000000005E-002     2.0673302248869638     
   2.5200000000000000E-002    0.22621861565962778     
   2.5499999999999995E-002    -1.7691041646389696     
   2.5800000000000003E-002    -3.8739599653982149     
   2.6099999999999998E-002    -6.0342945860335080     
   2.6400000000000007E-002    -8.1868286355823869     
   2.6700000000000002E-002    -10.261035989454228     
   2.6999999999999996E-002    -12.181054237701115     
   2.7300000000000005E-002    -13.868879493928322     
   2.7600000000000000E-002    -15.248664128626791     
   2.7900000000000008E-002    -16.249841960511638     
   2.8200000000000003E-002    -16.812162703346548     
   2.8499999999999998E-002    -16.890411700659520     
   2.8800000000000006E-002    -16.459133474751912     
   2.9100000000000001E-002    -15.516175580807099     
   2.9400000000000003E-002    -14.084329880946610     
   2.9700000000000004E-002    -12.213209375119780     
   3.0000000000000006E-002    -9.9775945299612179     
   3.0300000000000001E-002    -7.4747682356954570     
   3.0600000000000002E-002    -4.8192248209550845     
   3.0900000000000004E-002    -2.1358350686377801     
   3.1199999999999999E-002    0.44692222020913669     
   3.1500000000000007E-002     2.8059613922529758     
   3.1800000000000002E-002     4.8318985317620582     
   3.2099999999999997E-002     6.4364165091301766     
   3.2400000000000005E-002     7.5580171572465131     
   3.2700000000000000E-002     8.1657070143378565     
   3.3000000000000002E-002     8.2614225175138571     
   3.3300000000000003E-002     7.8782719043800560     
   3.3599999999999998E-002     7.0778749380224983     
   3.3900000000000000E-002     5.9457075452465320     
   3.4200000000000001E-002     4.5835258277990993     
   3.4500000000000003E-002     3.1024731420548166     
   3.4799999999999998E-002     1.6152476906198772     
   3.5099999999999999E-002    0.22924906071525655     
   3.5400000000000001E-002   -0.95935076930924101     
   3.5699999999999996E-002    -1.8703394428441598     
   3.6000000000000004E-002    -2.4412442585098670     
   3.6299999999999999E-002    -2.6276012257021155     
   3.6600000000000008E-002    -2.4017980193549735     
   3.6900000000000002E-002    -1.7511699691153604     
   3.7199999999999997E-002   -0.67525580185207457     
   3.7500000000000006E-002    0.81779580273771701     
   3.7800000000000000E-002     2.7121124739527676     
   3.8100000000000009E-002     4.9823718813861966     
   3.8400000000000004E-002     7.5919080362952487     
   3.8699999999999998E-002     10.489138113189412     
   3.9000000000000007E-002     13.601617186133028     
   3.9300000000000002E-002     16.829820750952734     
   3.9600000000000003E-002     20.042419270356771     
   3.9900000000000005E-002     23.074489082298090     
   4.0200000000000000E-002     25.729073565936190     
   4.0500000000000001E-002     27.784300413011717     
   4.0800000000000003E-002     29.005392201718593     
   4.1100000000000005E-002     29.161504468944731     
   4.1399999999999999E-002     28.046571121116951     
   4.1700000000000008E-002     25.503239748523367     
   4.2000000000000003E-002     21.445752175778900     
   4.2299999999999997E-002     15.878559227597702     
   4.2600000000000006E-002     8.9103807455247246     
   4.2900000000000001E-002    0.76075446651828837     
   4.3200000000000002E-002    -8.2440685927573671     
   4.3500000000000004E-002    -17.686239873623894     
   4.3799999999999999E-002    -27.079869983234381     
   4.4100000000000000E-002    -35.901362211612927     
   4.4400000000000002E-002    -43.628030614560195     
   4.4700000000000004E-002    -49.777184443421277     
   4.4999999999999998E-002    -53.943309994506400     
   4.5300000000000000E-002    -55.831828766848986     
   4.5600000000000002E-002    -55.282813431162715     
   4.5899999999999996E-002    -52.285151797254919     
   4.6200000000000005E-002    -46.979507017078681     
   4.6500000000000000E-002    -39.648387927395603     
   4.6799999999999994E-002    -30.696652132884974     
   4.7100000000000003E-002    -20.620692792232486     
   4.7399999999999998E-002    -9.9717192998514168     
   4.7700000000000006E-002    0.68129254031390996     
   4.8000000000000001E-002     10.792019312776091     
   4.8300000000000010E-002     19.873161812707217     
   4.8600000000000004E-002     27.524936419841136     
   4.8899999999999999E-002     33.457833399419826     
   4.9200000000000008E-002     37.502819725930031     
   4.9500000000000002E-002     39.614262093274192     
   4.9800000000000011E-002     39.863945469716121     
   5.0100000000000006E-002     38.423470179461845     
   5.0400000000000000E-002     35.544056897582941     
   5.0700000000000009E-002     31.531691993134515     
   5.1000000000000004E-002     26.719882964846128     
   5.1299999999999998E-002     21.445959637395198     
   5.1600000000000007E-002     16.025656837626990     
   5.1900000000000002E-002     10.737708741136013     
   5.2200000000000010E-002     5.8126188818162996     
   5.2500000000000005E-002     1.4224107774450387     
   5.2800000000000000E-002    -2.3186563383980308     
   5.3099999999999994E-002    -5.3509530278072246     
   5.3400000000000003E-002    -7.6624782500113797     
   5.3699999999999998E-002    -9.2812297290675829     
   5.4000000000000006E-002    -10.266115916100755     
   5.4300000000000001E-002    -10.694763980723428     
   5.4599999999999996E-002    -10.657119702906634     
   5.4900000000000004E-002    -10.248008814481260     
   5.5199999999999999E-002    -9.5602104633613791     
   5.5499999999999994E-002    -8.6809515071268777     
   5.5800000000000002E-002    -7.6886439933404036     
   5.6099999999999997E-002    -6.6517164315206756     
   5.6400000000000006E-002    -5.6270407075491509     
   5.6700000000000000E-002    -4.6587190100384035     
   5.6999999999999995E-002    -3.7792139338354680     
   5.7300000000000004E-002    -3.0085433409169102     
   5.7599999999999998E-002    -2.3558000399491585     
   5.7900000000000007E-002    -1.8207991394363079     
   5.8200000000000002E-002    -1.3953361822707233     
   5.8499999999999996E-002    -1.0653839342733002     
   5.8800000000000005E-002   -0.81373441934781066     
   5.9100000000000000E-002   -0.62242441068545418     
   5.9400000000000008E-002   -0.47536873380854461     
   5.9700000000000003E-002   -0.35890901685175697     
   6.0000000000000012E-002   -0.26293166479966634     
   6.0300000000000006E-002   -0.18221227144686147     
   6.0600000000000001E-002   -0.11457945420464394     
   6.0900000000000010E-002    -5.9641829686449786E-002
   6.1200000000000004E-002    -1.7437130422512270E-002
   6.1500000000000013E-002     1.2456191093630567E-002
   6.1800000000000008E-002     3.1130737678788226E-002
   6.2100000000000002E-002     4.3591235946897858E-002
   6.2399999999999997E-002     5.6931577319142793E-002
   6.2700000000000006E-002     7.8490140212027076E-002
   6.3000000000000000E-002    0.11658370161183290     
   6.3300000000000009E-002    0.17805116374868704     
   6.3600000000000004E-002    0.26748665088247936     
   6.3899999999999998E-002    0.38604743905215777     
   6.4199999999999993E-002    0.53013734202688079     
   6.4500000000000002E-002    0.69346050038090823     
   6.4800000000000010E-002    0.86631634851487760     
   6.5100000000000005E-002     1.0374079594705210     
   6.5400000000000000E-002     1.1963101239154865     
   6.5700000000000008E-002     1.3329293324679858     
   6.5999999999999989E-002     1.4400093158939644     
   6.6299999999999998E-002     1.5137005675260855     
   6.6600000000000006E-002     1.5526036890691965     
   6.6900000000000001E-002     1.5591178856446066     
   6.7199999999999996E-002     1.5366993913868960     
   6.7500000000000004E-002     1.4894901323535394     
   6.7800000000000013E-002     1.4221830201186254     
   6.8099999999999994E-002     1.3384045202976615     
   6.8400000000000002E-002     1.2409947942802220     
   6.8700000000000011E-002     1.1302059707339405     
   6.8999999999999992E-002     1.0060808466017339     
   6.9300000000000000E-002    0.86963323777603119     
   6.9600000000000009E-002    0.72085044920123020     
   6.9900000000000004E-002    0.56037132410146551     
   7.0199999999999999E-002    0.39063208312610226     
   7.0500000000000007E-002    0.21570183035185703     
   7.0800000000000016E-002     3.9731030283741808E-002
   7.1099999999999997E-002   -0.13370439665717349     
   7.1400000000000005E-002   -0.30016256443973099     
   7.1700000000000000E-002   -0.45633075197499512     
   7.1999999999999995E-002   -0.60051736493272068     
   7.2300000000000003E-002   -0.73184886761352330     
   7.2600000000000012E-002   -0.85105923112934667     
   7.2900000000000006E-002   -0.95863029902807828     
   7.3200000000000001E-002    -1.0549435401860097     
   7.3499999999999996E-002    -1.1394136959786376     
   7.3800000000000004E-002    -1.2100988463730566     
   7.4099999999999999E-002    -1.2635501470635602     
   7.4400000000000008E-002    -1.2951814975168980     
   7.4700000000000003E-002    -1.2996541099902472     
   7.5000000000000011E-002    -1.2721280878481664     
   7.5299999999999992E-002    -1.2088868437242388     
   7.5600000000000001E-002    -1.1086940586413028     
   7.5900000000000009E-002   -0.97365288285162077     
   7.6200000000000004E-002   -0.80835490091372408     
   7.6499999999999999E-002   -0.62146054816802421     
   7.6800000000000007E-002   -0.42420720686351132     
   7.7099999999999988E-002   -0.22792606212642536     
   7.7399999999999997E-002    -4.4476276883955126E-002
   7.7700000000000005E-002    0.11520638135294288     
   7.8000000000000014E-002    0.24341203729573935     
   7.8299999999999995E-002    0.33556430611436444     
   7.8600000000000003E-002    0.39103265998075937     
   7.8900000000000012E-002    0.41273379207974759     
   7.9199999999999993E-002    0.40712950061821995     
   7.9500000000000001E-002    0.38234759309241301     
   7.9800000000000010E-002    0.34593657994358407     
   8.0100000000000018E-002    0.30653972968791476     
   8.0399999999999999E-002    0.27134568959347855     
   8.0700000000000008E-002    0.24360292798465250     
   8.1000000000000003E-002    0.22469685101860568     
   8.1299999999999997E-002    0.21488444449224578     
   8.1600000000000006E-002    0.21175766687365646     
   8.1900000000000014E-002    0.21154311336940432     
   8.2199999999999995E-002    0.21123338790387705     
   8.2500000000000004E-002    0.20920769180844004     
   8.2799999999999999E-002    0.20473518314779227     
   8.3100000000000007E-002    0.19867473508071118     
   8.3400000000000002E-002    0.19419978759114187     
   8.3700000000000011E-002    0.19492694098533636     
   8.4000000000000005E-002    0.20449057251364872     
   8.4300000000000000E-002    0.22616009984037819     
   8.4599999999999995E-002    0.26130745671460531     
   8.4900000000000003E-002    0.30832222933988412     
   8.5199999999999998E-002    0.36298633081178239     
   8.5500000000000007E-002    0.41885846610468097     
   8.5800000000000001E-002    0.46680565485677294     
   8.6100000000000010E-002    0.49649099277779379     
   8.6399999999999991E-002    0.49824231673910152     
   8.6699999999999999E-002    0.46426697696954494     
   8.7000000000000008E-002    0.39041619387467752     
   8.7300000000000003E-002    0.27707766718179172     
   8.7599999999999997E-002    0.13014970918349689     
   8.7900000000000006E-002    -3.9181296596606061E-002
   8.8200000000000014E-002   -0.21498300739752613     
   8.8499999999999995E-002   -0.37720790240315133     
   8.8800000000000004E-002   -0.50509393558680260     
   8.9100000000000013E-002   -0.57891981076913046     
   8.9399999999999993E-002   -0.58240744322287397     
   8.9700000000000002E-002   -0.50594874588089245     
   9.0000000000000011E-002   -0.34845972088835242     
   9.0299999999999991E-002   -0.11840656810028087     
   9.0600000000000000E-002    0.16606136679248765     
   9.0900000000000009E-002    0.47713503250718786     
   9.1200000000000017E-002    0.78091193649526602     
   9.1499999999999998E-002     1.0403675107772004     
   9.1800000000000007E-002     1.2185700970863051     
   9.2100000000000001E-002     1.2835443719516382     
   9.2399999999999996E-002     1.2126863515173489     
   9.2700000000000005E-002    0.99649404548584386     
   9.3000000000000013E-002    0.63946331474015505     
   9.3300000000000008E-002    0.16158125053368255     
   9.3600000000000003E-002   -0.40214680403101044     
   9.3899999999999997E-002    -1.0060030329036445     
   9.4200000000000006E-002    -1.5974931098486087     
   9.4500000000000001E-002    -2.1219633676352769     
   9.4800000000000009E-002    -2.5285311162301625     
   9.5100000000000004E-002    -2.7759323049289470     
   9.5399999999999999E-002    -2.8365718954809553     
   9.5699999999999993E-002    -2.6992556618596337     
   9.6000000000000002E-002    -2.3706924653173984     
   9.6300000000000011E-002    -1.8745564347075334     
   9.6600000000000005E-002    -1.2491982676222844     
   9.6900000000000000E-002   -0.54230602594007027     
   9.7200000000000009E-002    0.19275496174441734     
   9.7499999999999989E-002    0.90128338885296932     
   9.7799999999999998E-002     1.5342916196379577     
   9.8100000000000007E-002     2.0510423732327281     
   9.8400000000000015E-002     2.4226262682709607     
   9.8699999999999996E-002     2.6328441953440271     
   9.9000000000000005E-002     2.6786095882656156     
   9.9300000000000013E-002     2.5699674975400635     
   9.9599999999999994E-002     2.3259210738727933     
   9.9900000000000003E-002     1.9726779998558603     
  0.10020000000000001          1.5422379788360463     
  0.10049999999999999          1.0672821145188160     
  0.10080000000000000         0.58014383681733228     
  0.10110000000000001         0.11051229033927482     
  0.10140000000000000        -0.31674289210225909     
  0.10170000000000000        -0.68169261670695402     
  0.10200000000000001        -0.97104452748927728     
  0.10230000000000002         -1.1762188349943279     
  0.10260000000000000         -1.2950830044870818     
  0.10290000000000001         -1.3318162746573592     
  0.10320000000000000         -1.2939382474996075     
  0.10350000000000001         -1.1935635657941490     
  0.10380000000000000         -1.0458111844197500     
  0.10410000000000001        -0.86775067946213424     
  0.10440000000000001        -0.67708599929127555     
  0.10470000000000000        -0.49004113889165096     
  0.10500000000000000        -0.32173210257128826     
  0.10530000000000000        -0.18393278802328700     
  0.10560000000000000         -8.4934848459199408E-002
  0.10590000000000001         -2.9646537438525057E-002
  0.10620000000000000         -1.7205146807724239E-002
  0.10650000000000001         -4.4450723381540942E-002
  0.10679999999999999        -0.10457097286137075     
  0.10710000000000000        -0.18803414501168356     
  0.10740000000000001        -0.28534208764096641     
  0.10770000000000000        -0.38497136159997658     
  0.10800000000000000        -0.47714251436384064     
  0.10830000000000001        -0.55288179915479418     
  0.10859999999999999        -0.60466177572010704     
  0.10890000000000000        -0.62727660440497168     
  0.10920000000000001        -0.61571407161463099     
  0.10950000000000001        -0.56852435382407995     
  0.10979999999999999        -0.48569660277133059     
  0.11009999999999999        -0.36709277451741257     
  0.11040000000000001        -0.21527111518968570     
  0.11070000000000001         -3.4270487610877268E-002
  0.11100000000000000         0.17034418766102360     
  0.11130000000000000         0.39195356905841056     
  0.11160000000000002         0.62302226598026522     
  0.11190000000000001         0.85390478715816720     
  0.11220000000000001          1.0754891620417453     
  0.11250000000000000          1.2782350715773354     
  0.11280000000000000          1.4531391750119507     
  0.11309999999999999          1.5928569883169952     
  0.11340000000000001          1.6919661580729359     
  0.11369999999999998          1.7478047407681212     
  0.11400000000000000          1.7590267445976082     
  0.11430000000000000          1.7272420909976887     
  0.11460000000000002          1.6565273796577067     
  0.11489999999999999          1.5517723369955281     
  0.11520000000000001          1.4183944291457282     
  0.11550000000000001          1.2619320004151136     
  0.11580000000000000          1.0881677739415738     
  0.11609999999999999         0.90195195823493213     
  0.11640000000000002         0.70556288169528669     
  0.11670000000000001         0.50167071320027268     
  0.11700000000000001         0.29289325860563886     
  0.11730000000000000          8.0365330903411400E-002
  0.11760000000000000        -0.13467599051780077     
  0.11789999999999999        -0.35118588094685649     
  0.11820000000000001        -0.56656687456901800     
  0.11850000000000001        -0.77784894678866723     
  0.11880000000000000        -0.98230604928317411     
  0.11910000000000000         -1.1759471744779091     
  0.11940000000000002         -1.3547277300023894     
  0.11970000000000001         -1.5145149083498588     
  0.12000000000000001         -1.6506596664328175     
  0.12030000000000000         -1.7587228884629291     
  0.12060000000000000         -1.8348541140652390     
  0.12089999999999999         -1.8752487785813661     
  0.12119999999999999         -1.8760366331893057     
  0.12150000000000001         -1.8344995869712091     
  0.12180000000000001         -1.7489700211355192     
  0.12210000000000000         -1.6193318258836729     
  0.12239999999999999         -1.4465277087152457     
  0.12270000000000002         -1.2336212293996296     
  0.12300000000000001        -0.98723958979597271     
  0.12330000000000001        -0.71506922609851487     
  0.12360000000000000        -0.42659916800286157     
  0.12390000000000000        -0.13321935624960030     
  0.12419999999999999         0.15301849298564307     
  0.12450000000000001         0.41950637343631020     
  0.12480000000000001         0.65558809229038417     
  0.12509999999999999         0.85209453298200954     
  0.12540000000000001          1.0019286897031379     
  0.12570000000000003          1.1018017565741627     
  0.12600000000000000          1.1504279420126950     
  0.12630000000000002          1.1495499663860236     
  0.12659999999999999          1.1038925703000795     
  0.12690000000000001          1.0199936677714871     
  0.12719999999999998         0.90557963007010067     
  0.12750000000000000         0.76885074519176255     
  0.12780000000000002         0.61876898884981613     
  0.12809999999999999         0.46400424437242138     
  0.12840000000000001         0.31249734089894138     
  0.12869999999999998         0.17155416907064858     
  0.12900000000000000          4.7277723297572773E-002
  0.12930000000000003         -5.4875373730509845E-002
  0.12959999999999999        -0.13046508646293395     
  0.12990000000000002        -0.17686527545858730     
  0.13019999999999998        -0.19312755274246948     
  0.13050000000000000        -0.18021653027694481     
  0.13080000000000003        -0.14041752508075803     
  0.13109999999999999         -7.8177692029012799E-002
  0.13140000000000002         -6.7273253348720471E-004
  0.13169999999999998          8.4598292928910163E-002
  0.13200000000000001         0.16924068775831094     
  0.13229999999999997         0.24396695622352654     
  0.13260000000000000         0.30032478748511576     
  0.13290000000000002         0.33070956790564182     
  0.13319999999999999         0.33008807267701928     
  0.13350000000000001         0.29548617887794293     
  0.13380000000000003         0.22584180615342511     
  0.13410000000000000         0.12363037963000564     
  0.13440000000000002         -6.9825769993648226E-003
  0.13469999999999999        -0.16017389545556784     
  0.13500000000000001        -0.32762788223749079     
  0.13529999999999998        -0.50087491995411593     
  0.13560000000000000        -0.67128954580502087     
  0.13590000000000002        -0.82989863811083375     
  0.13619999999999999        -0.96828441138980659     
  0.13650000000000001         -1.0787511905860150     
  0.13680000000000003         -1.1550491899352895     
  0.13710000000000000         -1.1923291540234893     
  0.13740000000000002         -1.1865362982280840     
  0.13769999999999999         -1.1356625422174167     
  0.13800000000000001         -1.0397642721836517     
  0.13829999999999998        -0.90055214181739096     
  0.13860000000000000        -0.72277747580096308     
  0.13890000000000002        -0.51199214920602487     
  0.13919999999999999        -0.27543607033562600     
  0.13950000000000001         -2.3370833909439028E-002
  0.13979999999999998         0.23430035287512802     
  0.14010000000000000         0.48832889077943048     
  0.14040000000000002         0.72927580365584599     
  0.14069999999999999         0.94860402318073933     
  0.14100000000000001          1.1397801358861555     
  0.14130000000000004          1.2997619802062514     
  0.14160000000000000          1.4269030971881063     
  0.14189999999999997          1.5207303454045424     
  0.14219999999999999          1.5836230225723560     
  0.14250000000000002          1.6180263494267253     
  0.14279999999999998          1.6264611252776300     
  0.14310000000000000          1.6118179365590430     
  0.14339999999999997          1.5756937106826605     
  0.14369999999999999          1.5186996334819021     
  0.14400000000000002          1.4403464701576010     
  0.14429999999999998          1.3399536547218660     
  0.14460000000000001          1.2168047393699000     
  0.14490000000000003          1.0695717330289254     
  0.14520000000000000         0.89949351800893007     
  0.14550000000000002         0.70878142658909382     
  0.14579999999999999         0.50035847056963301     
  0.14610000000000001         0.27973798984465487     
  0.14640000000000003          5.2532387620302982E-002
  0.14670000000000000        -0.17405299921844139     
  0.14699999999999996        -0.39343895037369453     
  0.14729999999999999        -0.59998373704409036     
  0.14760000000000001        -0.78782861023526751     
  0.14789999999999998        -0.95411364920335628     
  0.14820000000000000         -1.0964529394991582     