  -1.4999999999999999E-002     0.0000000000000000     
  -1.4700000000000000E-002     0.0000000000000000     
  -1.4400000000000000E-002     0.0000000000000000     
  -1.4100000000000000E-002     0.0000000000000000     
  -1.3800000000000000E-002     0.0000000000000000     
  -1.3500000000000000E-002     0.0000000000000000     
  -1.3200000000000000E-002     0.0000000000000000     
  -1.2899999999999998E-002     0.0000000000000000     
  -1.2600000000000000E-002     0.0000000000000000     
  -1.2299999999999998E-002     0.0000000000000000     
  -1.2000000000000000E-002     0.0000000000000000     
  -1.1699999999999999E-002     0.0000000000000000     
  -1.1399999999999999E-002     0.0000000000000000     
  -1.1099999999999999E-002     0.0000000000000000     
  -1.0799999999999999E-002     0.0000000000000000     
  -1.0499999999999999E-002     0.0000000000000000     
  -1.0199999999999999E-002     0.0000000000000000     
  -9.8999999999999991E-003     0.0000000000000000     
  -9.5999999999999992E-003     0.0000000000000000     
  -9.2999999999999992E-003     0.0000000000000000     
  -8.9999999999999993E-003     0.0000000000000000     
  -8.6999999999999994E-003     0.0000000000000000     
  -8.3999999999999995E-003     0.0000000000000000     
  -8.0999999999999996E-003     0.0000000000000000     
  -7.7999999999999988E-003     0.0000000000000000     
  -7.4999999999999997E-003     0.0000000000000000     
  -7.1999999999999998E-003     0.0000000000000000     
  -6.8999999999999981E-003     0.0000000000000000     
  -6.5999999999999982E-003     0.0000000000000000     
  -6.3000000000000000E-003     0.0000000000000000     
  -6.0000000000000001E-003     0.0000000000000000     
  -5.6999999999999985E-003     0.0000000000000000     
  -5.3999999999999986E-003     0.0000000000000000     
  -5.1000000000000004E-003     0.0000000000000000     
  -4.7999999999999987E-003     0.0000000000000000     
  -4.5000000000000005E-003     0.0000000000000000     
  -4.1999999999999989E-003     0.0000000000000000     
  -3.8999999999999990E-003     0.0000000000000000     
  -3.5999999999999990E-003     0.0000000000000000     
  -3.2999999999999991E-003     0.0000000000000000     
  -2.9999999999999992E-003     0.0000000000000000     
  -2.6999999999999993E-003     0.0000000000000000     
  -2.3999999999999994E-003     0.0000000000000000     
  -2.0999999999999977E-003     0.0000000000000000     
  -1.7999999999999995E-003     0.0000000000000000     
  -1.4999999999999979E-003     0.0000000000000000     
  -1.1999999999999997E-003     0.0000000000000000     
  -8.9999999999999976E-004     0.0000000000000000     
  -5.9999999999999810E-004     0.0000000000000000     
  -2.9999999999999992E-004     0.0000000000000000     
   0.0000000000000000          0.0000000000000000     
   3.0000000000000165E-004     0.0000000000000000     
   5.9999999999999984E-004     0.0000000000000000     
   9.0000000000000149E-004     0.0000000000000000     
   1.2000000000000031E-003     0.0000000000000000     
   1.5000000000000013E-003     0.0000000000000000     
   1.8000000000000030E-003     0.0000000000000000     
   2.1000000000000012E-003     0.0000000000000000     
   2.3999999999999994E-003     0.0000000000000000     
   2.7000000000000010E-003     0.0000000000000000     
   2.9999999999999992E-003     0.0000000000000000     
   3.3000000000000008E-003     0.0000000000000000     
   3.6000000000000025E-003     0.0000000000000000     
   3.9000000000000007E-003    -1.7484540481894159E-044
   4.2000000000000023E-003     2.6650817208347499E-043
   4.5000000000000005E-003    -1.6652630131846714E-037
   4.7999999999999987E-003    -4.0927478874576408E-037
   5.1000000000000004E-003     2.3578815887980565E-035
   5.4000000000000020E-003     1.5811459050502135E-034
   5.7000000000000037E-003    -2.0438078073412726E-034
   5.9999999999999984E-003    -4.4894374634741384E-033
   6.3000000000000000E-003    -8.5708522167791848E-034
   6.6000000000000017E-003     5.1319038333043633E-032
   6.9000000000000034E-003     6.6591897154181677E-032
   7.2000000000000015E-003    -7.3499315649496079E-032
   7.5000000000000032E-003    -3.3157109865119341E-030
   7.8000000000000014E-003    -2.6531420880575031E-030
   8.0999999999999996E-003     1.0896278101228758E-028
   8.4000000000000012E-003    -3.2011194696669316E-028
   8.7000000000000029E-003    -7.5553089753741250E-028
   9.0000000000000011E-003     9.5205224072027392E-027
   9.2999999999999992E-003    -3.9396092290207045E-026
   9.6000000000000009E-003     5.5931858795326887E-026
   9.8999999999999991E-003     3.9992760122657092E-025
   1.0200000000000001E-002    -3.2714288748684767E-024
   1.0500000000000002E-002     1.1487878244604077E-023
   1.0800000000000004E-002    -1.3159844278844046E-023
   1.1099999999999999E-002    -8.0628915879580942E-023
   1.1400000000000000E-002     5.3468157360624527E-022
   1.1700000000000002E-002    -1.6050184525338723E-021
   1.2000000000000004E-002     1.8107996954952341E-021
   1.2300000000000002E-002     8.2704246334757540E-021
   1.2600000000000000E-002    -6.0545066440445122E-020
   1.2900000000000002E-002     2.3036950836592104E-019
   1.3200000000000000E-002    -6.3383448591176897E-019
   1.3500000000000002E-002     1.2851055717851194E-018
   1.3800000000000003E-002    -1.4722793975530402E-018
   1.4100000000000001E-002    -2.2633828794476019E-018
   1.4400000000000000E-002     2.1962894551394848E-017
   1.4700000000000001E-002    -9.4121333236808826E-017
   1.4999999999999999E-002     3.1865777561878273E-016
   1.5300000000000001E-002    -9.2429137388981339E-016
   1.5600000000000003E-002     2.1718803706718200E-015
   1.5899999999999997E-002    -2.6601106973291442E-015
   1.6199999999999999E-002    -1.1004760544406650E-014
   1.6500000000000001E-002     1.0775099458340739E-013
   1.6800000000000002E-002    -5.3910719750334173E-013
   1.7100000000000004E-002     1.9084982214844618E-012
   1.7400000000000006E-002    -4.5584733109532324E-012
   1.7700000000000000E-002     3.8685963837715171E-012
   1.8000000000000002E-002     2.3314962608525547E-011
   1.8300000000000004E-002    -1.2555300283046541E-010
   1.8600000000000005E-002     2.7920012825989586E-010
   1.8900000000000000E-002    -4.2817846482122231E-011
   1.9200000000000002E-002    -1.5704585121575873E-009
   1.9500000000000003E-002     3.8901569275822440E-009
   1.9799999999999998E-002     5.6286575978698680E-010
   2.0100000000000000E-002    -1.8500253610526881E-008
   2.0400000000000001E-002     1.7398765126835789E-008
   2.0700000000000003E-002     5.7420443583615812E-008
   2.0999999999999998E-002    -8.7114543351854303E-008
   2.1299999999999999E-002    -2.0024432358037002E-007
   2.1600000000000001E-002     2.1323339780197728E-007
   2.1900000000000003E-002     6.4960842075597981E-007
   2.2200000000000004E-002    -2.6327055742489424E-007
   2.2500000000000006E-002    -1.7837045242164020E-006
   2.2800000000000001E-002    -2.1587256842848965E-007
   2.3100000000000002E-002     5.9418893930210096E-006
   2.3400000000000004E-002     1.2630038278019393E-005
   2.3699999999999999E-002     1.6431200019648518E-005
   2.4000000000000000E-002     2.2165192379067201E-005
   2.4300000000000002E-002     3.8961208016187319E-005
   2.4599999999999997E-002     6.9317400909125248E-005
   2.4900000000000005E-002     1.0924390810097358E-004
   2.5200000000000000E-002     1.6162152993267663E-004
   2.5499999999999995E-002     2.4250713728796720E-004
   2.5800000000000003E-002     3.7087013744728102E-004
   2.6099999999999998E-002     5.5911713013637263E-004
   2.6400000000000007E-002     8.2131415861519603E-004
   2.6700000000000002E-002     1.1882856692028751E-003
   2.6999999999999996E-002     1.7060903886752324E-003
   2.7300000000000005E-002     2.4216180195146715E-003
   2.7600000000000000E-002     3.3818073367886873E-003
   2.7900000000000008E-002     4.6487032816538753E-003
   2.8200000000000003E-002     6.3037374347825444E-003
   2.8499999999999998E-002     8.4321213837940372E-003
   2.8800000000000006E-002     1.1108188176066194E-002
   2.9100000000000001E-002     1.4400850097637153E-002
   2.9400000000000003E-002     1.8377694159762918E-002
   2.9700000000000004E-002     2.3083644571830878E-002
   3.0000000000000006E-002     2.8512966259669509E-002
   3.0300000000000001E-002     3.4598285502574641E-002
   3.0600000000000002E-002     4.1207583618076235E-002
   3.0900000000000004E-002     4.8132961485595524E-002
   3.1199999999999999E-002     5.5063472871849456E-002
   3.1500000000000007E-002     6.1567084715437481E-002
   3.1800000000000002E-002     6.7112712210133402E-002
   3.2099999999999997E-002     7.1093475785101626E-002
   3.2400000000000005E-002     7.2834721657727239E-002
   3.2700000000000000E-002     7.1629114068280181E-002
   3.3000000000000002E-002     6.6787504115018062E-002
   3.3300000000000003E-002     5.7728072213669830E-002
   3.3599999999999998E-002     4.4029897774765840E-002
   3.3900000000000000E-002     2.5502201179058430E-002
   3.4200000000000001E-002     2.2527047159528720E-003
   3.4500000000000003E-002    -2.5262141190314231E-002
   3.4799999999999998E-002    -5.6195594909332701E-002
   3.5099999999999999E-002    -8.9310489492645029E-002
   3.5400000000000001E-002   -0.12305434754113792     
   3.5699999999999996E-002   -0.15560873571576458     
   3.6000000000000004E-002   -0.18498257580598190     
   3.6299999999999999E-002   -0.20918961754107618     
   3.6600000000000008E-002   -0.22639683925428272     
   3.6900000000000002E-002   -0.23509268199071054     
   3.7199999999999997E-002   -0.23425471737120679     
   3.7500000000000006E-002   -0.22345204838648824     
   3.7800000000000000E-002   -0.20294170501623493     
   3.8100000000000009E-002   -0.17371227482938101     
   3.8400000000000004E-002   -0.13744837864142559     
   3.8699999999999998E-002    -9.6414486164152172E-002
   3.9000000000000007E-002    -5.3309339138558766E-002
   3.9300000000000002E-002    -1.1065642475481644E-002
   3.9600000000000003E-002     2.7361882410320049E-002
   3.9900000000000005E-002     5.9246457112761518E-002
   4.0200000000000000E-002     8.2315065891030617E-002
   4.0500000000000001E-002     9.4923477260594538E-002
   4.0800000000000003E-002     9.6237367606152160E-002
   4.1100000000000005E-002     8.6279393981781541E-002
   4.1399999999999999E-002     6.5907945063417475E-002
   4.1700000000000008E-002     3.6875199784619277E-002
   4.2000000000000003E-002     1.6451740601552704E-003
   4.2299999999999997E-002    -3.6818160319829131E-002
   4.2600000000000006E-002    -7.5173676863204794E-002
   4.2900000000000001E-002   -0.11000235369455165     
   4.3200000000000002E-002   -0.13803961839365947     
   4.3500000000000004E-002   -0.15640822065701593     
   4.3799999999999999E-002   -0.16295294590346529     
   4.4100000000000000E-002   -0.15633455220437481     
   4.4400000000000002E-002   -0.13615342015077156     
   4.4700000000000004E-002   -0.10318289753514633     
   4.4999999999999998E-002    -5.9289466403387045E-002
   4.5300000000000000E-002    -7.2790180695164472E-003
   4.5600000000000002E-002     4.9168860125668325E-002
   4.5899999999999996E-002    0.10578703363126077     
   4.6200000000000005E-002    0.15809190989896638     
   4.6500000000000000E-002    0.20169497044565526     
   4.6799999999999994E-002    0.23276543975531788     
   4.7100000000000003E-002    0.24840098892769363     
   4.7399999999999998E-002    0.24687060973217634     
   4.7700000000000006E-002    0.22804192023360983     
   4.8000000000000001E-002    0.19332251386725732     
   4.8300000000000010E-002    0.14567770672577077     
   4.8600000000000004E-002     8.9628451344952981E-002
   4.8899999999999999E-002     3.0702191740952005E-002
   4.9200000000000008E-002    -2.4829911156947927E-002
   4.9500000000000002E-002    -7.0431247160174557E-002
   4.9800000000000011E-002    -9.9967790721814900E-002
   5.0100000000000006E-002   -0.10810788422194693     
   5.0400000000000000E-002    -9.0871815104988818E-002
   5.0700000000000009E-002    -4.5987361290472928E-002
   5.1000000000000004E-002     2.6914221277831898E-002
   5.1299999999999998E-002    0.12601326243290401     
   5.1600000000000007E-002    0.24746706573362240     
   5.1900000000000002E-002    0.38567241100238076     
   5.2200000000000010E-002    0.53344200648121676     
   5.2500000000000005E-002    0.68243400360515427     
   5.2800000000000000E-002    0.82371804737184628     
   5.3099999999999994E-002    0.94828579011291003     
   5.3400000000000003E-002     1.0475990455829645     
   5.3699999999999998E-002     1.1141236677326964     
   5.4000000000000006E-002     1.1416414618624759     
   5.4300000000000001E-002     1.1258686423026345     
   5.4599999999999996E-002     1.0645825519305478     
   5.4900000000000004E-002    0.95772209600524361     
   5.5199999999999999E-002    0.80753252180551172     
   5.5499999999999994E-002    0.61831549642832551     
   5.5800000000000002E-002    0.39628680064409177     
   5.6099999999999997E-002    0.14923780433727207     
   5.6400000000000006E-002   -0.11399489554729088     
   5.6700000000000000E-002   -0.38388701350045856     
   5.6999999999999995E-002   -0.65073851973533958     
   5.7300000000000004E-002   -0.90514538110137754     
   5.7599999999999998E-002    -1.1383827593585434     
   5.7900000000000007E-002    -1.3427359659588365     
   5.8200000000000002E-002    -1.5117800972164610     
   5.8499999999999996E-002    -1.6404257510951996     
   5.8800000000000005E-002    -1.7249545515886660     
   5.9100000000000000E-002    -1.7631823461774083     
   5.9400000000000008E-002    -1.7541664278711580     
   5.9700000000000003E-002    -1.6982018397193377     
   6.0000000000000012E-002    -1.5968216131871056     
   6.0300000000000006E-002    -1.4525601377596427     
   6.0600000000000001E-002    -1.2691058680029885     
   6.0900000000000010E-002    -1.0512841574069869     
   6.1200000000000004E-002   -0.80494859917317851     
   6.1500000000000013E-002   -0.53711716316034797     
   6.1800000000000008E-002   -0.25593088987977702     
   6.2100000000000002E-002     2.9533916237704346E-002
   6.2399999999999997E-002    0.30934505794938089     
   6.2700000000000006E-002    0.57316498172530883     
   6.3000000000000000E-002    0.81070426476315216     
   6.3300000000000009E-002     1.0120603705988143     
   6.3600000000000004E-002     1.1686391442206758     
   6.3899999999999998E-002     1.2736379673603633     
   6.4199999999999993E-002     1.3224536927237023     
   6.4500000000000002E-002     1.3136050256800134     
   6.4800000000000010E-002     1.2487077288619834     
   6.5100000000000005E-002     1.1325165838623812     
   6.5400000000000000E-002    0.97307684648891213     
   6.5700000000000008E-002    0.78099611659699875     
   6.5999999999999989E-002    0.56904361598478614     
   6.6299999999999998E-002    0.35111029603518895     
   6.6600000000000006E-002    0.14106100137143818     
   6.6900000000000001E-002    -4.7883637888990138E-002
   6.7199999999999996E-002   -0.20443659601362565     
   6.7500000000000004E-002   -0.32043047969251359     
   6.7800000000000013E-002   -0.39109443642062852     
   6.8099999999999994E-002   -0.41559924635407414     
   6.8400000000000002E-002   -0.39733784411336837     
   6.8700000000000011E-002   -0.34351875556602002     
   6.8999999999999992E-002   -0.26491796357818442     
   6.9300000000000000E-002   -0.17469603910372894     
   6.9600000000000009E-002    -8.7253322330345148E-002
   6.9900000000000004E-002    -1.7396077756032430E-002
   7.0199999999999999E-002     2.1373769674440688E-002
   7.0500000000000007E-002     1.8210084077430223E-002
   7.0800000000000016E-002    -3.4257384683511145E-002
   7.1099999999999997E-002   -0.13848117042712843     
   7.1400000000000005E-002   -0.29202575306663786     
   7.1700000000000000E-002   -0.48729151469953141     
   7.1999999999999995E-002   -0.71135225000670921     
   7.2300000000000003E-002   -0.94721169527705384     
   7.2600000000000012E-002    -1.1750364951052701     
   7.2900000000000006E-002    -1.3734168406925034     
   7.3200000000000001E-002    -1.5210610000057270     
   7.3499999999999996E-002    -1.5986037822083530     
   7.3800000000000004E-002    -1.5903658283211448     
   7.4099999999999999E-002    -1.4861231537145341     
   7.4400000000000008E-002    -1.2815682498735135     
   7.4700000000000003E-002   -0.97901771065987986     
   7.5000000000000011E-002   -0.58808117507042157     
   7.5299999999999992E-002   -0.12469650705528962     
   7.5600000000000001E-002    0.38976388670127787     
   7.5900000000000009E-002    0.92989904090165998     
   7.6200000000000004E-002     1.4680635177068662     
   7.6499999999999999E-002     1.9757708578342277     
   7.6800000000000007E-002     2.4260827431007583     
   7.7099999999999988E-002     2.7955766945263583     
   7.7399999999999997E-002     3.0647419667496436     
   7.7700000000000005E-002     3.2199081156277454     
   7.8000000000000014E-002     3.2538460513765908     
   7.8299999999999995E-002     3.1653305406906616     
   7.8600000000000003E-002     2.9594542038787828     
   7.8900000000000012E-002     2.6467189017732151     
   7.9199999999999993E-002     2.2415031813155850     
   7.9500000000000001E-002     1.7619185088471283     
   7.9800000000000010E-002     1.2281623940409458     
   8.0100000000000018E-002    0.66077036472296624     
   8.0399999999999999E-002     8.0341144475173570E-002
   8.0700000000000008E-002   -0.49382249686481622     
   8.1000000000000003E-002    -1.0439348766009939     
   8.1299999999999997E-002    -1.5542034316639699     
   8.1600000000000006E-002    -2.0114306507620969     
   8.1900000000000014E-002    -2.4044519879485868     
   8.2199999999999995E-002    -2.7237004210341533     
   8.2500000000000004E-002    -2.9621111304669139     
   8.2799999999999999E-002    -3.1139627854842562     
   8.3100000000000007E-002    -3.1749936538392607     
   8.3400000000000002E-002    -3.1429640311284266     
   8.3700000000000011E-002    -3.0167421443095188     
   8.4000000000000005E-002    -2.7974099367375671     
   8.4300000000000000E-002    -2.4888543461703438     
   8.4599999999999995E-002    -2.0967537878613718     
   8.4900000000000003E-002    -1.6301110663484322     
   8.5199999999999998E-002    -1.1010728926364926     
   8.5500000000000007E-002   -0.52453613612882111     
   8.5800000000000001E-002     8.0987625337868976E-002
   8.6100000000000010E-002    0.69541992684016218     
   8.6399999999999991E-002     1.2968150986586262     
   8.6699999999999999E-002     1.8618207421398629     
   8.7000000000000008E-002     2.3681692182486209     
   8.7300000000000003E-002     2.7947932659211396     
   8.7599999999999997E-002     3.1231149525573398     
   8.7900000000000006E-002     3.3387767117279892     
   8.8200000000000014E-002     3.4315937789962994     
   8.8499999999999995E-002     3.3964604207809135     
   8.8800000000000004E-002     3.2340895085418859     
   8.9100000000000013E-002     2.9500900777191723     
   8.9399999999999993E-002     2.5549229815489882     
   8.9700000000000002E-002     2.0637087256409936     
   9.0000000000000011E-002     1.4943519486715198     
   9.0299999999999991E-002    0.86739705950498935     
   9.0600000000000000E-002    0.20510853770784970     
   9.0900000000000009E-002   -0.47035204442945294     
   9.1200000000000017E-002    -1.1362215847791455     
   9.1499999999999998E-002    -1.7707988378300106     
   9.1800000000000007E-002    -2.3540717534799258     
   9.2100000000000001E-002    -2.8665243415170059     
   9.2399999999999996E-002    -3.2917305158858956     
   9.2700000000000005E-002    -3.6148122424566740     
   9.3000000000000013E-002    -3.8231884115767758     
   9.3300000000000008E-002    -3.9084204357574661     
   9.3600000000000003E-002    -3.8645588176170143     
   9.3899999999999997E-002    -3.6901775752165000     
   9.4200000000000006E-002    -3.3890458670489383     
   9.4500000000000001E-002    -2.9690584468635581     
   9.4800000000000009E-002    -2.4442922618733847     
   9.5100000000000004E-002    -1.8337893260927387     
   9.5399999999999999E-002    -1.1604360342391058     
   9.5699999999999993E-002   -0.45185419096587714     
   9.6000000000000002E-002    0.26235021992234964     
   9.6300000000000011E-002    0.95226335627912795     
   9.6600000000000005E-002     1.5880814063240478     
   9.6900000000000000E-002     2.1433457493662376     
   9.7200000000000009E-002     2.5961927462129868     
   9.7499999999999989E-002     2.9298612134263879     
   9.7799999999999998E-002     3.1347795985488016     
   9.8100000000000007E-002     3.2085899416140986     
   9.8400000000000015E-002     3.1553272384744551     
   9.8699999999999996E-002     2.9858476401315324     
   9.9000000000000005E-002     2.7158769972318271     
   9.9300000000000013E-002     2.3650497944076010     
   9.9599999999999994E-002     1.9557840530228181     
   9.9900000000000003E-002     1.5107595782049157     
  0.10020000000000001          1.0521805299231359     
  0.10049999999999999         0.60121668896417280     
  0.10080000000000000         0.17561542716984821     
  0.10110000000000001        -0.20932885326428005     
  0.10140000000000000        -0.54142548314014693     
  0.10170000000000000        -0.81255657821323746     
  0.10200000000000001         -1.0169368523175188     
  0.10230000000000002         -1.1527185015965633     
  0.10260000000000000         -1.2205659982476198     
  0.10290000000000001         -1.2230258907602753     
  0.10320000000000000         -1.1665109227101693     
  0.10350000000000001         -1.0588368117819602     
  0.10380000000000000        -0.90931445839733382     
  0.10410000000000001        -0.72963119990437997     
  0.10440000000000001        -0.53175767481102376     
  0.10470000000000000        -0.32856058809998723     
  0.10500000000000000        -0.13237832432045737     
  0.10530000000000000          4.6402548773202650E-002
  0.10560000000000000         0.19882347155059932     
  0.10590000000000001         0.31847680653408639     
  0.10620000000000000         0.40250902148545259     
  0.10650000000000001         0.45154866145504646     
  0.10679999999999999         0.46936416962171984     
  0.10710000000000000         0.46254910024319812     
  0.10740000000000001         0.43932177098788622     
  0.10770000000000000         0.40944908776766964     
  0.10800000000000000         0.38283755072607284     
  0.10830000000000001         0.36720071635349238     
  0.10859999999999999         0.36903188494165479     
  0.10890000000000000         0.39153710141717513     
  0.10920000000000001         0.43393462179132491     
  0.10950000000000001         0.49285201583112498     
  0.10979999999999999         0.56046650275365750     
  0.11009999999999999         0.62644311479627834     
  0.11040000000000001         0.67926432778474044     
  0.11070000000000001         0.70548214252868935     
  0.11100000000000000         0.69283016193645186     
  0.11130000000000000         0.63081391556715150     
  0.11160000000000002         0.51134040415062199     
  0.11190000000000001         0.33134872022991108     
  0.11220000000000001          9.2239341587520673E-002
  0.11250000000000000        -0.19956702302662790     
  0.11280000000000000        -0.53170614344894218     
  0.11309999999999999        -0.88756314378918288     
  0.11340000000000001         -1.2467344609033506     
  0.11369999999999998         -1.5862040007235856     
  0.11400000000000000         -1.8836899382807528     
  0.11430000000000000         -2.1179115087446849     
  0.11460000000000002         -2.2710448974243715     
  0.11489999999999999         -2.3319255582693792     
  0.11520000000000001         -2.2953061368326164     
  0.11550000000000001         -2.1636676164767525     
  0.11580000000000000         -1.9471085730493447     
  0.11609999999999999         -1.6612567477873021     
  0.11640000000000002         -1.3270556620701142     
  0.11670000000000001        -0.96741644640090640     
  0.11700000000000001        -0.60447882829604482     
  0.11730000000000000        -0.25853657915463552     
  0.11760000000000000          5.5742287368854948E-002
  0.11789999999999999         0.32987378391506023     
  0.11820000000000001         0.56147913002318928     
  0.11850000000000001         0.75532261006227008     
  0.11880000000000000         0.92069193839027308     
  0.11910000000000000          1.0692301665774695     
  0.11940000000000002          1.2135502924949970     
  0.11970000000000001          1.3632473524439328     
  0.12000000000000001          1.5235851518303425     
  0.12030000000000000          1.6944341103022305     
  0.12060000000000000          1.8681182233531393     
  0.12089999999999999          2.0318288112671832     
  0.12119999999999999          2.1683029393621669     
  0.12150000000000001          2.2575327601685342     
  0.12180000000000001          2.2811469307676409     
  0.12210000000000000          2.2234720529129350     
  0.12239999999999999          2.0748550355031026     
  0.12270000000000002          1.8339196068884009     
  0.12300000000000001          1.5069389168967642     
  0.12330000000000001          1.1085019165235039     
  0.12360000000000000         0.66027983973418403     
  0.12390000000000000         0.18767210174646093     
  0.12419999999999999        -0.28140385449268879     
  0.12450000000000001        -0.72035994823979044     
  0.12480000000000001         -1.1070788041524704     
  0.12509999999999999         -1.4243006764294410     
  0.12540000000000001         -1.6622886699055996     
  0.12570000000000003         -1.8195779404766168     
  0.12600000000000000         -1.9003296072424516     
  0.12630000000000002         -1.9148557495118135     
  0.12659999999999999         -1.8767223832268316     
  0.12690000000000001         -1.7994894448556324     
  0.12719999999999998         -1.6968878163427414     
  0.12750000000000000         -1.5783744888284321     
  0.12780000000000002         -1.4487575297664468     
  0.12809999999999999         -1.3084831387493177     
  0.12840000000000001         -1.1525905401697569     
  0.12869999999999998        -0.97345922042154498     
  0.12900000000000000        -0.76148627535192448     
  0.12930000000000003        -0.50681524316593263     
  0.12959999999999999        -0.20412746754602878     
  0.12990000000000002         0.14755082694081062     
  0.13019999999999998         0.54305249797318067     
  0.13050000000000000         0.96870076783472603     
  0.13080000000000003          1.4040016519479250     
  0.13109999999999999          1.8220042543843498     
  0.13140000000000002          2.1910251899996509     
  0.13169999999999998          2.4785658608251202     
  0.13200000000000001          2.6532403687148642     
  0.13229999999999997          2.6881055075796336     
  0.13260000000000000          2.5650934411272965     
  0.13290000000000002          2.2757693976333959     
  0.13319999999999999          1.8238984838320969     
  0.13350000000000001          1.2256144854088702     
  0.13380000000000003         0.50810451188757322     
  0.13410000000000000        -0.29108968971070931     
  0.13440000000000002         -1.1277963094462728     
  0.13469999999999999         -1.9551383209655548     
  0.13500000000000001         -2.7263993925667873     
  0.13529999999999998         -3.3983928607886664     
  0.13560000000000000         -3.9361349724248273     
  0.13590000000000002         -4.3137287028319102     
  0.13619999999999999         -4.5166352883582155     
  0.13650000000000001         -4.5412858426866238     
  0.13680000000000003         -4.3940108574248429     
  0.13710000000000000         -4.0910642817863980     
  0.13740000000000002         -3.6545396510775392     
  0.13769999999999999         -3.1099620591135761     
  0.13800000000000001         -2.4853959953047129     
  0.13829999999999998         -1.8067145245038980     
  0.13860000000000000         -1.0975963064447938     
  0.13890000000000002        -0.37871389963933066     
  0.13919999999999999         0.33485099349167113     
  0.13950000000000001          1.0315898503133512     
  0.13979999999999998          1.7028648273248768     
  0.14010000000000000          2.3431195219321741     
  0.14040000000000002          2.9489687498915691     
  0.14069999999999999          3.5168970311921424     
  0.14100000000000001          4.0433524073810023     
  0.14130000000000004          4.5250532863443080     
  0.14160000000000000          4.9575326583657109     
  0.14189999999999997          5.3352148667075854     
  0.14219999999999999          5.6518595434219341     
  0.14250000000000002          5.9012983222059825     
  0.14279999999999998          6.0762928137540611     
  0.14310000000000000          6.1685384208850014     
  0.14339999999999997          6.1705926674522233     
  0.14369999999999999          6.0737904668567912     
  0.14400000000000002          5.8683061110818446     
  0.14429999999999998          5.5454573474174609     
  0.14460000000000001          5.0958085210095492     
  0.14490000000000003          4.5110092586038517     
  0.14520000000000000          3.7854135689922570     
  0.14550000000000002          2.9159320241128475     
  0.14579999999999999          1.9050156862431318     
  0.14610000000000001         0.76193117024157087     
  0.14640000000000003        -0.49729711244893909     
  0.14670000000000000         -1.8465896856037254     
  0.14699999999999996         -3.2516154057240625     
  0.14729999999999999         -4.6698392649506291     
  0.14760000000000001         -6.0490940861448896     
  0.14789999999999998         -7.3335436680725943     
  0.14820000000000000         -8.4658974560094560     