  -1.4999999999999999E-002     0.0000000000000000     
  -1.4700000000000000E-002    -8.5244922206622464E-006
  -1.4400000000000000E-002    -2.9790000321679286E-005
  -1.4100000000000000E-002     1.9214100671026199E-004
  -1.3800000000000000E-002     5.4929776793711236E-004
  -1.3500000000000000E-002     6.6871192116229900E-004
  -1.3200000000000000E-002     1.0402619028279504E-003
  -1.2899999999999998E-002     1.2615940274492690E-003
  -1.2600000000000000E-002     1.0525380431247616E-003
  -1.2299999999999998E-002     1.2912992825740138E-003
  -1.2000000000000000E-002     2.3574255565815142E-003
  -1.1699999999999999E-002     3.5219215357526947E-003
  -1.1399999999999999E-002     4.1831472707396875E-003
  -1.1099999999999999E-002     5.8054233218010464E-003
  -1.0799999999999999E-002     8.0076672174345682E-003
  -1.0499999999999999E-002     9.1023016234734778E-003
  -1.0199999999999999E-002     9.6314734520751549E-003
  -9.8999999999999991E-003     9.3855034567782540E-003
  -9.5999999999999992E-003     6.5891340024853418E-003
  -9.2999999999999992E-003    -1.7333895444438193E-003
  -8.9999999999999993E-003    -1.7988127429192726E-002
  -8.6999999999999994E-003    -4.5403032334882881E-002
  -8.3999999999999995E-003    -9.0175535672704366E-002
  -8.0999999999999996E-003   -0.15887508704555303     
  -7.7999999999999988E-003   -0.26042082389490190     
  -7.4999999999999997E-003   -0.40557805137980707     
  -7.1999999999999998E-003   -0.60576418680211352     
  -6.8999999999999981E-003   -0.87413251350745713     
  -6.5999999999999982E-003    -1.2230408907513357     
  -6.3000000000000000E-003    -1.6635557545147353     
  -6.0000000000000001E-003    -2.2033299831977491     
  -5.6999999999999985E-003    -2.8440981918686097     
  -5.3999999999999986E-003    -3.5796983352647112     
  -5.1000000000000004E-003    -4.3920978662220538     
  -4.7999999999999987E-003    -5.2498024114060220     
  -4.5000000000000005E-003    -6.1053259116175305     
  -4.1999999999999989E-003    -6.8933445472092334     
  -3.8999999999999990E-003    -7.5332475774806840     
  -3.5999999999999990E-003    -7.9309583811060662     
  -3.2999999999999991E-003    -7.9820472491645891     
  -2.9999999999999992E-003    -7.5805547778465812     
  -2.6999999999999993E-003    -6.6283903273965157     
  -2.3999999999999994E-003    -5.0460665789981292     
  -2.0999999999999977E-003    -2.7853471619332684     
  -1.7999999999999995E-003    0.15935127723460177     
  -1.4999999999999979E-003     3.7396644126902605     
  -1.1999999999999997E-003     7.8484519050684023     
  -8.9999999999999976E-004     12.316097025961104     
  -5.9999999999999810E-004     16.912766685827879     
  -2.9999999999999992E-004     21.362305452292976     
   0.0000000000000000          25.355185014442096     
   3.0000000000000165E-004     28.571377104231974     
   5.9999999999999984E-004     30.708469718132374     
   9.0000000000000149E-004     31.506464553807348     
   1.2000000000000031E-003     30.776951811943565     
   1.5000000000000013E-003     28.424207377125605     
   1.8000000000000030E-003     24.461746696547934     
   2.1000000000000012E-003     19.019216031534899     
   2.3999999999999994E-003     12.337955013257606     
   2.7000000000000010E-003     4.7595792577388822     
   2.9999999999999992E-003    -3.3002487724782079     
   3.3000000000000008E-003    -11.381152639039549     
   3.6000000000000025E-003    -19.012788569920396     
   3.9000000000000007E-003    -25.753274237873018     
   4.2000000000000023E-003    -31.222779311067303     
   4.5000000000000005E-003    -35.131114058248919     
   4.7999999999999987E-003    -37.298034027046945     
   5.1000000000000004E-003    -37.664748986307430     
   5.4000000000000020E-003    -36.291946916269929     
   5.7000000000000037E-003    -33.348946920349832     
   5.9999999999999984E-003    -29.096767695586259     
   6.3000000000000000E-003    -23.861979694873966     
   6.6000000000000017E-003    -18.008257026941635     
   6.9000000000000034E-003    -11.906623775512415     
   7.2000000000000015E-003    -5.9089304120858470     
   7.5000000000000032E-003   -0.32520734086561354     
   7.8000000000000014E-003     4.5942521077084555     
   8.0999999999999996E-003     8.6701148142365163     
   8.4000000000000012E-003     11.798902784000559     
   8.7000000000000029E-003     13.947986031581751     
   9.0000000000000011E-003     15.150382644078665     
   9.2999999999999992E-003     15.494433351329164     
   9.6000000000000009E-003     15.107856094447804     
   9.8999999999999991E-003     14.142127704787031     
   1.0200000000000001E-002     12.757447322129529     
   1.0500000000000002E-002     11.113126219444116     
   1.0800000000000004E-002     9.3524377347411800     
   1.1099999999999999E-002     7.5948791579176671     
   1.1400000000000000E-002     5.9355170319355812     
   1.1700000000000002E-002     4.4394076813584684     
   1.2000000000000004E-002     3.1440812950022257     
   1.2300000000000002E-002     2.0648865526538596     
   1.2600000000000000E-002     1.1983077425497650     
   1.2900000000000002E-002    0.52740523398746508     
   1.3200000000000000E-002     2.7934343198299925E-002
   1.3500000000000002E-002   -0.32643927920454202     
   1.3800000000000003E-002   -0.56186828706453917     
   1.4100000000000001E-002   -0.70291158156999767     
   1.4400000000000000E-002   -0.76967842635689643     
   1.4700000000000001E-002   -0.77781039070353253     
   1.4999999999999999E-002   -0.74230579036267219     
   1.5300000000000001E-002   -0.67547805090124791     
   1.5600000000000003E-002   -0.58764092185192562     
   1.5899999999999997E-002   -0.49076984024439407     
   1.6199999999999999E-002   -0.39449471121440244     
   1.6500000000000001E-002   -0.30786003269192813     
   1.6800000000000002E-002   -0.23860201039873608     
   1.7100000000000004E-002   -0.19027437774750314     
   1.7400000000000006E-002   -0.16498745239726892     
   1.7700000000000000E-002   -0.15987773876790407     
   1.8000000000000002E-002   -0.17019826460161214     
   1.8300000000000004E-002   -0.18987060911866216     
   1.8600000000000005E-002   -0.21088781358025294     
   1.8900000000000000E-002   -0.22763401887037191     
   1.9200000000000002E-002   -0.23489066038662471     
   1.9500000000000003E-002   -0.23096571161592280     
   1.9799999999999998E-002   -0.21838789878567441     
   2.0100000000000000E-002   -0.20050354506181339     
   2.0400000000000001E-002   -0.18218452485586234     
   2.0700000000000003E-002   -0.16968784899738074     
   2.0999999999999998E-002   -0.16823547937464176     
   2.1299999999999999E-002   -0.17949306759285227     
   2.1600000000000001E-002   -0.20280917968279538     
   2.1900000000000003E-002   -0.23575672975184936     
   2.2200000000000004E-002   -0.27284055781724270     
   2.2500000000000006E-002   -0.30668901632330686     
   2.2800000000000001E-002   -0.33083771434042331     
   2.3100000000000002E-002   -0.34064026190016511     
   2.3400000000000004E-002   -0.33239792337268964     
   2.3699999999999999E-002   -0.30593322590476224     
   2.4000000000000000E-002   -0.26485028257128596     
   2.4300000000000002E-002   -0.21372824911372715     
   2.4599999999999997E-002   -0.15838315221387239     
   2.4900000000000005E-002   -0.10492358011291877     
   2.5200000000000000E-002    -5.8824609617706233E-002
   2.5499999999999995E-002    -2.2673186383147574E-002
   2.5800000000000003E-002     2.7727261332430894E-003
   2.6099999999999998E-002     1.8571516765747306E-002
   2.6400000000000007E-002     2.7718331997814521E-002
   2.6700000000000002E-002     3.2342460282724535E-002
   2.6999999999999996E-002     3.5108923101694292E-002
   2.7300000000000005E-002     3.6674984014360583E-002
   2.7600000000000000E-002     3.5381860446009585E-002
   2.7900000000000008E-002     2.7736862279255148E-002
   2.8200000000000003E-002     8.3390325688059552E-003
   2.8499999999999998E-002    -2.7595062772913213E-002
   2.8800000000000006E-002    -8.5547360619174659E-002
   2.9100000000000001E-002   -0.16892240481440757     
   2.9400000000000003E-002   -0.27741358517010867     
   2.9700000000000004E-002   -0.40879720896873595     
   3.0000000000000006E-002   -0.55700182829234934     
   3.0300000000000001E-002   -0.71360098652303350     
   3.0600000000000002E-002   -0.86901705250791539     
   3.0900000000000004E-002    -1.0127903060121091     
   3.1199999999999999E-002    -1.1344804580346495     
   3.1500000000000007E-002    -1.2253507195531219     
   3.1800000000000002E-002    -1.2794308506173093     
   3.2099999999999997E-002    -1.2912183883390707     
   3.2400000000000005E-002    -1.2571121384923458     
   3.2700000000000000E-002    -1.1745967842245661     
   3.3000000000000002E-002    -1.0419962419300257     
   3.3300000000000003E-002   -0.85826045611305279     
   3.3599999999999998E-002   -0.62225008388566017     
   3.3900000000000000E-002   -0.33483109160365915     
   3.4200000000000001E-002     1.5438465504247030E-003
   3.4500000000000003E-002    0.38049262780352028     
   3.4799999999999998E-002    0.79131293382804069     
   3.5099999999999999E-002     1.2198977468476919     
   3.5400000000000001E-002     1.6460744109871879     
   3.5699999999999996E-002     2.0452117842459754     
   3.6000000000000004E-002     2.3918046818435879     
   3.6299999999999999E-002     2.6602949905395419     
   3.6600000000000008E-002     2.8272299528599656     
   3.6900000000000002E-002     2.8754422398843462     
   3.7199999999999997E-002     2.7958590716337119     
   3.7500000000000006E-002     2.5879838225555680     
   3.7800000000000000E-002     2.2617630771061097     
   3.8100000000000009E-002     1.8364993216542516     
   3.8400000000000004E-002     1.3390885548434386     
   3.8699999999999998E-002    0.79977453019900402     
   3.9000000000000007E-002    0.25043816176864792     
   3.9300000000000002E-002   -0.27717368726481367     
   3.9600000000000003E-002   -0.75828676344725732     
   3.9900000000000005E-002    -1.1737036619798473     
   4.0200000000000000E-002    -1.5113007973777401     
   4.0500000000000001E-002    -1.7672181118308850     
   4.0800000000000003E-002    -1.9426118149056302     
   4.1100000000000005E-002    -2.0439343468056723     
   4.1399999999999999E-002    -2.0794265256993665     
   4.1700000000000008E-002    -2.0572304653100781     
   4.2000000000000003E-002    -1.9841277445826737     
   4.2299999999999997E-002    -1.8642644639138144     
   4.2600000000000006E-002    -1.7004618321369251     
   4.2900000000000001E-002    -1.4940632204363533     
   4.3200000000000002E-002    -1.2460355372838843     
   4.3500000000000004E-002   -0.95944782691100172     
   4.3799999999999999E-002   -0.64109662809191004     
   4.4100000000000000E-002   -0.30195166835170378     
   4.4400000000000002E-002     4.2630897227707756E-002
   4.4700000000000004E-002    0.37331932900946058     
   4.4999999999999998E-002    0.66855652593073123     
   4.5300000000000000E-002    0.90567219615559469     
   4.5600000000000002E-002     1.0660761001673236     
   4.5899999999999996E-002     1.1370891987233895     
   4.6200000000000005E-002     1.1126554814296412     
   4.6500000000000000E-002    0.99634389453797967     
   4.6799999999999994E-002    0.80150724680851038     
   4.7100000000000003E-002    0.55060778342735506     
   4.7399999999999998E-002    0.27243603400328986     
   4.7700000000000006E-002     1.5621245576897581E-004
   4.8000000000000001E-002   -0.23243257312633711     
   4.8300000000000010E-002   -0.39611367807481423     
   4.8600000000000004E-002   -0.46753531511797086     
   4.8899999999999999E-002   -0.43315389317532144     
   4.9200000000000008E-002   -0.29125002483342111     
   4.9500000000000002E-002    -5.2298600662403778E-002
   4.9800000000000011E-002    0.26208030024490359     
   5.0100000000000006E-002    0.62142419821961292     
   5.0400000000000000E-002    0.98770042160776816     
   5.0700000000000009E-002     1.3211097021099376     
   5.1000000000000004E-002     1.5828055507139465     
   5.1299999999999998E-002     1.7385553534328153     
   5.1600000000000007E-002     1.7644792249656491     
   5.1900000000000002E-002     1.6475353100103607     
   5.2200000000000010E-002     1.3872278144138879     
   5.2500000000000005E-002    0.99691169083054498     
   5.2800000000000000E-002    0.50338840035709054     
   5.3099999999999994E-002    -5.6882199836390535E-002
   5.3400000000000003E-002   -0.64132100119483915     
   5.3699999999999998E-002    -1.2036498898532777     
   5.4000000000000006E-002    -1.6984073944599869     
   5.4300000000000001E-002    -2.0865289909619755     
   5.4599999999999996E-002    -2.3389782771163805     
   5.4900000000000004E-002    -2.4378385724927325     
   5.5199999999999999E-002    -2.3791087334332452     
   5.5499999999999994E-002    -2.1727336712043575     
   5.5800000000000002E-002    -1.8396187559706794     
   5.6099999999999997E-002    -1.4115342110580122     
   5.6400000000000006E-002   -0.92589714465416029     
   5.6700000000000000E-002   -0.42202304388456946     
   5.6999999999999995E-002     6.1905530844112371E-002
   5.7300000000000004E-002    0.49345980284905355     
   5.7599999999999998E-002    0.84688488134167139     
   5.7900000000000007E-002     1.1061146684993173     
   5.8200000000000002E-002     1.2642802630717578     
   5.8499999999999996E-002     1.3226369356971091     
   5.8800000000000005E-002     1.2903819177664144     
   5.9100000000000000E-002     1.1812674277419739     
   5.9400000000000008E-002     1.0121824386741274     
   5.9700000000000003E-002    0.80166154863546346     
   6.0000000000000012E-002    0.56752386242010022     
   6.0300000000000006E-002    0.32537739209078292     
   6.0600000000000001E-002     8.9354070897186375E-002
   6.0900000000000010E-002   -0.12889187269176181     
   6.1200000000000004E-002   -0.32003395014972696     
   6.1500000000000013E-002   -0.47618369457918691     
   6.1800000000000008E-002   -0.59227894207020781     
   6.2100000000000002E-002   -0.66430347140836254     
   6.2399999999999997E-002   -0.68990277948992618     
   6.2700000000000006E-002   -0.66922015548718050     
   6.3000000000000000E-002   -0.60456402729851133     
   6.3300000000000009E-002   -0.50147518254660828     
   6.3600000000000004E-002   -0.36646614364012520     
   6.3899999999999998E-002   -0.20835939604827564     
   6.4199999999999993E-002    -3.8803809808281527E-002
   6.4500000000000002E-002    0.13094364538297762     
   6.4800000000000010E-002    0.29017401942860621     
   6.5100000000000005E-002    0.42963338618505414     
   6.5400000000000000E-002    0.54167750979989171     
   6.5700000000000008E-002    0.62165502242219406     
   6.5999999999999989E-002    0.66787300274311601     
   6.6299999999999998E-002    0.68111405898449695     
   6.6600000000000006E-002    0.66445277685777449     
   6.6900000000000001E-002    0.62185447381491554     
   6.7199999999999996E-002    0.55833613178021246     
   6.7500000000000004E-002    0.47851606742516162     
   6.7800000000000013E-002    0.38681670671642182     
   6.8099999999999994E-002    0.28719603668191446     
   6.8400000000000002E-002    0.18208652345496590     
   6.8700000000000011E-002     7.4689562670723506E-002
   6.8999999999999992E-002    -3.2158394206612768E-002
   6.9300000000000000E-002   -0.13497707638432707     
   6.9600000000000009E-002   -0.22917165119740635     
   6.9900000000000004E-002   -0.31056308793275006     
   7.0199999999999999E-002   -0.37396451619501631     
   7.0500000000000007E-002   -0.41423040170509379     
   7.0800000000000016E-002   -0.42727043582828250     
   7.1099999999999997E-002   -0.41104879238212083     
   7.1400000000000005E-002   -0.36557295189850342     
   7.1700000000000000E-002   -0.29252069594862229     
   7.1999999999999995E-002   -0.19679978133089565     
   7.2300000000000003E-002    -8.5319928162173056E-002
   7.2600000000000012E-002     3.3557807585032420E-002
   7.2900000000000006E-002    0.15094959247093931     
   7.3200000000000001E-002    0.25762706339775615     
   7.3499999999999996E-002    0.34587936872636094     
   7.3800000000000004E-002    0.40983637478201157     
   7.4099999999999999E-002    0.44463970696762622     
   7.4400000000000008E-002    0.44845425721684951     
   7.4700000000000003E-002    0.42194035493075810     
   7.5000000000000011E-002    0.36662215023197231     
   7.5299999999999992E-002    0.28572824777441952     
   7.5600000000000001E-002    0.18412474061137299     
   7.5900000000000009E-002     6.7376847386803662E-002
   7.6200000000000004E-002    -5.9132923607154941E-002
   7.6499999999999999E-002   -0.18906692948358808     
   7.6800000000000007E-002   -0.31620326460039389     
   7.7099999999999988E-002   -0.43467873157697057     
   7.7399999999999997E-002   -0.53833424817721165     
   7.7700000000000005E-002   -0.62111431054047883     
   7.8000000000000014E-002   -0.67789637641102873     
   7.8299999999999995E-002   -0.70570289566348632     
   7.8600000000000003E-002   -0.70142274478324806     
   7.8900000000000012E-002   -0.66382455185079869     
   7.9199999999999993E-002   -0.59487598536718034     
   7.9500000000000001E-002   -0.49715783714174172     
   7.9800000000000010E-002   -0.37577110231799965     
   8.0100000000000018E-002   -0.23687520551189442     
   8.0399999999999999E-002    -8.7548622745581603E-002
   8.0700000000000008E-002     6.4103323699262721E-002
   8.1000000000000003E-002    0.21075297322551426     
   8.1299999999999997E-002    0.34555127549209658     
   8.1600000000000006E-002    0.46345206404411726     
   8.1900000000000014E-002    0.56026934930851602     
   8.2199999999999995E-002    0.63258796394804984     
   8.2500000000000004E-002    0.67924493165148236     
   8.2799999999999999E-002    0.70029347885805837     
   8.3100000000000007E-002    0.69600230328932633     
   8.3400000000000002E-002    0.66730129696327423     
   8.3700000000000011E-002    0.61671215326997597     
   8.4000000000000005E-002    0.54623514464159406     
   8.4300000000000000E-002    0.45838075921071725     
   8.4599999999999995E-002    0.35673007393884498     
   8.4900000000000003E-002    0.24474039686877888     
   8.5199999999999998E-002    0.12717139728974985     
   8.5500000000000007E-002     8.3486720409913732E-003
   8.5800000000000001E-002   -0.10670819802452482     
   8.6100000000000010E-002   -0.21257679059257834     
   8.6399999999999991E-002   -0.30581077798674949     
   8.6699999999999999E-002   -0.38309460717611554     
   8.7000000000000008E-002   -0.44174700826168267     
   8.7300000000000003E-002   -0.48079502482582431     
   8.7599999999999997E-002   -0.50091069919841347     
   8.7900000000000006E-002   -0.50467801159617565     
   8.8200000000000014E-002   -0.49466681631296711     
   8.8499999999999995E-002   -0.47407558797763194     
   8.8800000000000004E-002   -0.44703606047995642     
   8.9100000000000013E-002   -0.41690883307631810     
   8.9399999999999993E-002   -0.38575738888793948     
   8.9700000000000002E-002   -0.35558560612561191     
   9.0000000000000011E-002   -0.32685327528644009     
   9.0299999999999991E-002   -0.29914596543978283     
   9.0600000000000000E-002   -0.27201342318069449     
   9.0900000000000009E-002   -0.24352983759541139     
   9.1200000000000017E-002   -0.21217481358204893     
   9.1499999999999998E-002   -0.17667379533460428     
   9.1800000000000007E-002   -0.13654887259240500     
   9.2100000000000001E-002    -9.2156190465850801E-002
   9.2399999999999996E-002    -4.3178175535461646E-002
   9.2700000000000005E-002     8.8806823155707388E-003
   9.3000000000000013E-002     6.2202558984077026E-002
   9.3300000000000008E-002    0.11513158722699818     
   9.3600000000000003E-002    0.16565488278584609     
   9.3899999999999997E-002    0.21205741140111609     
   9.4200000000000006E-002    0.25224989610669679     
   9.4500000000000001E-002    0.28483840771424429     
   9.4800000000000009E-002    0.30849432891573320     
   9.5100000000000004E-002    0.32229113524369318     
   9.5399999999999999E-002    0.32591086565251964     
   9.5699999999999993E-002    0.31871023719597175     
   9.6000000000000002E-002    0.30117320980593543     
   9.6300000000000011E-002    0.27387243522620380     
   9.6600000000000005E-002    0.23843593984153857     
   9.6900000000000000E-002    0.19706666654015931     
   9.7200000000000009E-002    0.15155139878328841     
   9.7499999999999989E-002    0.10477591021134755     
   9.7799999999999998E-002     5.9685247373448380E-002
   9.8100000000000007E-002     1.9079943674905550E-002
   9.8400000000000015E-002    -1.4471353885325755E-002
   9.8699999999999996E-002    -3.9237730149043311E-002
   9.9000000000000005E-002    -5.3833850278961683E-002
   9.9300000000000013E-002    -5.7498613414463495E-002
   9.9599999999999994E-002    -5.0130352458266331E-002
   9.9900000000000003E-002    -3.2203516518357019E-002
  0.10020000000000001         -4.4821800609738853E-003
  0.10049999999999999          3.1677354562811171E-002
  0.10080000000000000          7.6014274988172065E-002
  0.10110000000000001         0.12783635443193894     
  0.10140000000000000         0.18511094820026347     
  0.10170000000000000         0.24770054804031338     
  0.10200000000000001         0.31446032740516816     
  0.10230000000000002         0.38322864934919965     
  0.10260000000000000         0.45180447819160319     
  0.10290000000000001         0.51730893924238797     
  0.10320000000000000         0.57674639230277114     
  0.10350000000000001         0.62530826278630958     
  0.10380000000000000         0.65885047832773780     
  0.10410000000000001         0.67441885374397181     
  0.10440000000000001         0.66798751295962555     
  0.10470000000000000         0.63717119748083184     
  0.10500000000000000         0.58135228368547121     
  0.10530000000000000         0.50024705361332922     
  0.10560000000000000         0.39499476053872506     
  0.10590000000000001         0.26846906327777131     
  0.10620000000000000         0.12413407183932731     
  0.10650000000000001         -3.3656213925891659E-002
  0.10679999999999999        -0.19995305889065293     
  0.10710000000000000        -0.36982937934267679     
  0.10740000000000001        -0.53775941492830670     
  0.10770000000000000        -0.69850324666826746     
  0.10800000000000000        -0.84611033425439841     
  0.10830000000000001        -0.97460274893544296     
  0.10859999999999999         -1.0793247119757390     
  0.10890000000000000         -1.1545905960719185     
  0.10920000000000001         -1.1960676800948626     
  0.10950000000000001         -1.2010792385300963     
  0.10979999999999999         -1.1680837761682445     
  0.11009999999999999         -1.0976397887936320     
  0.11040000000000001        -0.99235497969045050     
  0.11070000000000001        -0.85797595185158215     
  0.11100000000000000        -0.70230113845384889     
  0.11130000000000000        -0.53462647979809053     
  0.11160000000000002        -0.36526652975174001     
  0.11190000000000001        -0.20499046146905139     
  0.11220000000000001         -6.3896165864332277E-002
  0.11250000000000000          5.0104064201814243E-002
  0.11280000000000000         0.13108847762869835     
  0.11309999999999999         0.17710590120698308     
  0.11340000000000001         0.18908442390367963     
  0.11369999999999998         0.17055931637381930     
  0.11400000000000000         0.12893194035289207     
  0.11430000000000000          7.2994457482638983E-002
  0.11460000000000002          1.3008339845068445E-002
  0.11489999999999999         -4.1157142589701809E-002
  0.11520000000000001         -8.1124832494135657E-002
  0.11550000000000001         -9.9114580342113276E-002
  0.11580000000000000         -9.0606986771761530E-002
  0.11609999999999999         -5.3869642502257141E-002
  0.11640000000000002          9.5579728390779370E-003
  0.11670000000000001          9.5751262282650018E-002
  0.11700000000000001         0.19897307379743293     
  0.11730000000000000         0.31094166617352675     
  0.11760000000000000         0.42270234316691646     
  0.11789999999999999         0.52575737456797345     
  0.11820000000000001         0.61240524384351036     
  0.11850000000000001         0.67535746529510565     
  0.11880000000000000         0.70988989383921153     
  0.11910000000000000         0.71424788765172842     
  0.11940000000000002         0.68800688300713420     
  0.11970000000000001         0.63353533021306585     
  0.12000000000000001         0.55592853216131555     
  0.12030000000000000         0.46157518306104778     
  0.12060000000000000         0.35782790349397148     
  0.12089999999999999         0.25277751745880800     
  0.12119999999999999         0.15490755389560337     
  0.12150000000000001          7.1139676624549536E-002
  0.12180000000000001          6.3862623233930911E-003
  0.12210000000000000         -3.5651069529458103E-002
  0.12239999999999999         -5.3483942664988258E-002
  0.12270000000000002         -4.8948638057822270E-002
  0.12300000000000001         -2.5376625193570555E-002
  0.12330000000000001          1.2505409441189644E-002
  0.12360000000000000          5.7556471182886593E-002
  0.12390000000000000         0.10357273446134362     
  0.12419999999999999         0.14431045918432983     
  0.12450000000000001         0.17410191810006359     
  0.12480000000000001         0.18930675025203836     
  0.12509999999999999         0.18770307326332358     
  0.12540000000000001         0.17049385750655566     
  0.12570000000000003         0.13931908017050049     
  0.12600000000000000          9.7480391485182977E-002
  0.12630000000000002          5.0943403888231847E-002
  0.12659999999999999          4.7871547689072261E-003
  0.12690000000000001         -3.5626855672942589E-002
  0.12719999999999998         -6.5463255726059780E-002
  0.12750000000000000         -8.1452394202567766E-002
  0.12780000000000002         -8.0964782371961683E-002
  0.12809999999999999         -6.3205614608730226E-002
  0.12840000000000001         -2.8698387117041417E-002
  0.12869999999999998          2.0471817893342605E-002
  0.12900000000000000          8.0965180871232598E-002
  0.12930000000000003         0.14879847235603602     
  0.12959999999999999         0.21951835714258330     
  0.12990000000000002         0.28786839092698491     
  0.13019999999999998         0.34845767614159534     
  0.13050000000000000         0.39652325008018618     
  0.13080000000000003         0.42675183547472351     
  0.13109999999999999         0.43499310114597323     
  0.13140000000000002         0.41747270233064332     
  0.13169999999999998         0.37129903913489282     
  0.13200000000000001         0.29594571318475560     
  0.13229999999999997         0.19178814460224514     
  0.13260000000000000          6.1454078920071306E-002
  0.13290000000000002         -9.0814801102588147E-002
  0.13319999999999999        -0.25892477726983443     
  0.13350000000000001        -0.43462997181944385     
  0.13380000000000003        -0.60909449548560290     
  0.13410000000000000        -0.77284222304891970     
  0.13440000000000002        -0.91638308206777763     
  0.13469999999999999         -1.0307729189929100     
  0.13500000000000001         -1.1087679815355431     
  0.13529999999999998         -1.1453798973635665     
  0.13560000000000000         -1.1374374608682385     
  0.13590000000000002         -1.0842555762108783     
  0.13619999999999999        -0.98743742938769929     
  0.13650000000000001        -0.85172838429782705     
  0.13680000000000003        -0.68378532581283757     
  0.13710000000000000        -0.49152693958752341     
  0.13740000000000002        -0.28470925417210841     
  0.13769999999999999         -7.3370950791023515E-002
  0.13800000000000001         0.13194162146076893     
  0.13829999999999998         0.32098804924537522     
  0.13860000000000000         0.48410212052401913     
  0.13890000000000002         0.61258195944564753     
  0.13919999999999999         0.70009123454744959     
  0.13950000000000001         0.74218761154922286     
  0.13979999999999998         0.73670750165106536     
  0.14010000000000000         0.68401491049745600     
  0.14040000000000002         0.58779656404254077     
  0.14069999999999999         0.45366486567909087     
  0.14100000000000001         0.28938534696765389     
  0.14130000000000004         0.10508602907027825     
  0.14160000000000000         -8.8780713252529495E-002
  0.14189999999999997        -0.28115000799134576     
  0.14219999999999999        -0.46162026359876546     
  0.14250000000000002        -0.62080400209539066     
  0.14279999999999998        -0.75102596325387072     
  0.14310000000000000        -0.84751735816414231     
  0.14339999999999997        -0.90646265523534253     
  0.14369999999999999        -0.92650555082820119     
  0.14400000000000002        -0.90866170784988642     
  0.14429999999999998        -0.85462354053421652     
  0.14460000000000001        -0.76718740082404979     
  0.14490000000000003        -0.64973126265049452     
  0.14520000000000000        -0.50594977961308663     
  0.14550000000000002        -0.33915702967267958     
  0.14579999999999999        -0.15297228145541292     
  0.14610000000000001          4.8991417477956718E-002
  0.14640000000000003         0.26269156822881456     
  0.14670000000000000         0.48255459261345940     
  0.14699999999999996         0.70278984719648241     
  0.14729999999999999         0.91624999011144626     
  0.14760000000000001          1.1152324621986551     
  0.14789999999999998          1.2906929146693058     
  0.14820000000000000          1.4328026613180191     