  -1.4999999999999999E-002     0.0000000000000000     
  -1.4700000000000000E-002     0.0000000000000000     
  -1.4400000000000000E-002     0.0000000000000000     
  -1.4100000000000000E-002     0.0000000000000000     
  -1.3800000000000000E-002     0.0000000000000000     
  -1.3500000000000000E-002     0.0000000000000000     
  -1.3200000000000000E-002     0.0000000000000000     
  -1.2899999999999998E-002     0.0000000000000000     
  -1.2600000000000000E-002     0.0000000000000000     
  -1.2299999999999998E-002     0.0000000000000000     
  -1.2000000000000000E-002     0.0000000000000000     
  -1.1699999999999999E-002     0.0000000000000000     
  -1.1399999999999999E-002     0.0000000000000000     
  -1.1099999999999999E-002     0.0000000000000000     
  -1.0799999999999999E-002     0.0000000000000000     
  -1.0499999999999999E-002     0.0000000000000000     
  -1.0199999999999999E-002     0.0000000000000000     
  -9.8999999999999991E-003     0.0000000000000000     
  -9.5999999999999992E-003     0.0000000000000000     
  -9.2999999999999992E-003     0.0000000000000000     
  -8.9999999999999993E-003     0.0000000000000000     
  -8.6999999999999994E-003     0.0000000000000000     
  -8.3999999999999995E-003     0.0000000000000000     
  -8.0999999999999996E-003     0.0000000000000000     
  -7.7999999999999988E-003     0.0000000000000000     
  -7.4999999999999997E-003     0.0000000000000000     
  -7.1999999999999998E-003     0.0000000000000000     
  -6.8999999999999981E-003     0.0000000000000000     
  -6.5999999999999982E-003     0.0000000000000000     
  -6.3000000000000000E-003     0.0000000000000000     
  -6.0000000000000001E-003     0.0000000000000000     
  -5.6999999999999985E-003     0.0000000000000000     
  -5.3999999999999986E-003     0.0000000000000000     
  -5.1000000000000004E-003     0.0000000000000000     
  -4.7999999999999987E-003     0.0000000000000000     
  -4.5000000000000005E-003     0.0000000000000000     
  -4.1999999999999989E-003     0.0000000000000000     
  -3.8999999999999990E-003     0.0000000000000000     
  -3.5999999999999990E-003     0.0000000000000000     
  -3.2999999999999991E-003     0.0000000000000000     
  -2.9999999999999992E-003     0.0000000000000000     
  -2.6999999999999993E-003     0.0000000000000000     
  -2.3999999999999994E-003     0.0000000000000000     
  -2.0999999999999977E-003     0.0000000000000000     
  -1.7999999999999995E-003     0.0000000000000000     
  -1.4999999999999979E-003     0.0000000000000000     
  -1.1999999999999997E-003     0.0000000000000000     
  -8.9999999999999976E-004     0.0000000000000000     
  -5.9999999999999810E-004     0.0000000000000000     
  -2.9999999999999992E-004     0.0000000000000000     
   0.0000000000000000          0.0000000000000000     
   3.0000000000000165E-004     0.0000000000000000     
   5.9999999999999984E-004     0.0000000000000000     
   9.0000000000000149E-004     0.0000000000000000     
   1.2000000000000031E-003     0.0000000000000000     
   1.5000000000000013E-003     0.0000000000000000     
   1.8000000000000030E-003     0.0000000000000000     
   2.1000000000000012E-003     0.0000000000000000     
   2.3999999999999994E-003     0.0000000000000000     
   2.7000000000000010E-003     0.0000000000000000     
   2.9999999999999992E-003     0.0000000000000000     
   3.3000000000000008E-003     0.0000000000000000     
   3.6000000000000025E-003    -4.0711787557263049E-042
   3.9000000000000007E-003    -4.7348514533864175E-041
   4.2000000000000023E-003     5.6024718707195350E-039
   4.5000000000000005E-003     7.1897311801005031E-037
   4.7999999999999987E-003    -1.2811644449557278E-035
   5.1000000000000004E-003    -5.0405881465015937E-035
   5.4000000000000020E-003     1.9320294228066230E-034
   5.7000000000000037E-003     1.8373923419339372E-033
   5.9999999999999984E-003    -2.4767919981591778E-033
   6.3000000000000000E-003    -2.6961745612729245E-032
   6.6000000000000017E-003     4.4372233544545145E-032
   6.9000000000000034E-003     1.2639321216827163E-031
   7.2000000000000015E-003    -5.4837938336123433E-031
   7.5000000000000032E-003     5.0810004323903027E-030
   7.8000000000000014E-003    -1.9388807492970777E-029
   8.0999999999999996E-003    -7.3947412527143807E-029
   8.4000000000000012E-003     8.4174369483110792E-028
   8.7000000000000029E-003    -2.5522862482988369E-027
   9.0000000000000011E-003    -2.3041497912550675E-027
   9.2999999999999992E-003     5.6105532464065903E-026
   9.6000000000000009E-003    -2.7579606213814335E-025
   9.8999999999999991E-003     6.4929809546143796E-025
   1.0200000000000001E-002     6.5177185030080536E-025
   1.0500000000000002E-002    -1.2899507768835859E-023
   1.0800000000000004E-002     5.8788978978216156E-023
   1.1099999999999999E-002    -1.3948157348720898E-022
   1.1400000000000000E-002     1.5448358258926684E-023
   1.1700000000000002E-002     1.4465355671430873E-021
   1.2000000000000004E-002    -7.2250077524449978E-021
   1.2300000000000002E-002     2.0673594569550244E-020
   1.2600000000000000E-002    -3.0028636196558288E-020
   1.2900000000000002E-002    -5.4828925225772738E-020
   1.3200000000000000E-002     5.8787994752928051E-019
   1.3500000000000002E-002    -2.6112961528836475E-018
   1.3800000000000003E-002     8.5698640234547514E-018
   1.4100000000000001E-002    -2.2851629839371533E-017
   1.4400000000000000E-002     5.0287382287035822E-017
   1.4700000000000001E-002    -9.1832727654589775E-017
   1.4999999999999999E-002     1.7635769234826689E-016
   1.5300000000000001E-002    -7.6653723952706421E-016
   1.5600000000000003E-002     5.4485303508495426E-015
   1.5899999999999997E-002    -3.4120979221951062E-014
   1.6199999999999999E-002     1.7286836755630049E-013
   1.6500000000000001E-002    -7.0822884413295155E-013
   1.6800000000000002E-002     2.2831361446292957E-012
   1.7100000000000004E-002    -5.2062847012389322E-012
   1.7400000000000006E-002     4.6762537000059673E-012
   1.7700000000000000E-002     2.2246423077550293E-011
   1.8000000000000002E-002    -1.2140004068554032E-010
   1.8300000000000004E-002     2.6417782272988516E-010
   1.8600000000000005E-002    -2.5546649947060644E-011
   1.8900000000000000E-002    -1.4790375115817538E-009
   1.9200000000000002E-002     3.4209327188471148E-009
   1.9500000000000003E-002     1.3450090347516994E-009
   1.9799999999999998E-002    -1.7942672465924083E-008
   2.0100000000000000E-002     1.3155818327331376E-008
   2.0400000000000001E-002     6.1435732791633196E-008
   2.0700000000000003E-002    -7.9042363719764441E-008
   2.0999999999999998E-002    -2.1373763045169775E-007
   2.1299999999999999E-002     2.0089383757309727E-007
   2.1600000000000001E-002     6.6501176608494724E-007
   2.1900000000000003E-002    -2.2709125748045626E-007
   2.2200000000000004E-002    -1.7754886756738843E-006
   2.2500000000000006E-002    -3.3297390536936643E-007
   2.2800000000000001E-002     5.7664474044666550E-006
   2.3100000000000002E-002     1.2607472536980704E-005
   2.3400000000000004E-002     1.6581205031440047E-005
   2.3699999999999999E-002     2.2287535071248026E-005
   2.4000000000000000E-002     3.8811655834287727E-005
   2.4300000000000002E-002     6.8911567184392001E-005
   2.4599999999999997E-002     1.0889098033726399E-004
   2.4900000000000005E-002     1.6135510941286233E-004
   2.5200000000000000E-002     2.4200857203757648E-004
   2.5499999999999995E-002     3.6987099806262501E-004
   2.5800000000000003E-002     5.5750143407129959E-004
   2.6099999999999998E-002     8.1917407491328281E-004
   2.6400000000000007E-002     1.1855943027010997E-003
   2.6700000000000002E-002     1.7023509436943022E-003
   2.6999999999999996E-002     2.4162416487270065E-003
   2.7300000000000005E-002     3.3742718918435659E-003
   2.7600000000000000E-002     4.6383519507751901E-003
   2.7900000000000008E-002     6.2896705688770278E-003
   2.8200000000000003E-002     8.4123561636227830E-003
   2.8499999999999998E-002     1.1080290185357174E-002
   2.8800000000000006E-002     1.4362058783709417E-002
   2.9100000000000001E-002     1.8323928619449772E-002
   2.9400000000000003E-002     2.3009251827615183E-002
   2.9700000000000004E-002     2.8409714749978283E-002
   3.0000000000000006E-002     3.4455218999728317E-002
   3.0300000000000001E-002     4.1013286726116205E-002
   3.0600000000000002E-002     4.7871901999668322E-002
   3.0900000000000004E-002     5.4712842254982380E-002
   3.1199999999999999E-002     6.1103116104866184E-002
   3.1500000000000007E-002     6.6509487271367920E-002
   3.1800000000000002E-002     7.0318827696257941E-002
   3.2099999999999997E-002     7.1855700961580560E-002
   3.2400000000000005E-002     7.0409693857657579E-002
   3.2700000000000000E-002     6.5297947532731909E-002
   3.3000000000000002E-002     5.5937819778460365E-002
   3.3300000000000003E-002     4.1916332062590371E-002
   3.3599999999999998E-002     2.3059022281714067E-002
   3.3900000000000000E-002    -5.1779743706502129E-004
   3.4200000000000001E-002    -2.8339839182213111E-002
   3.4500000000000003E-002    -5.9533059622756672E-002
   3.4799999999999998E-002    -9.2851113587555448E-002
   3.5099999999999999E-002   -0.12671527123815177     
   3.5400000000000001E-002   -0.15928730999321564     
   3.5699999999999996E-002   -0.18857268947027889     
   3.6000000000000004E-002   -0.21256497544082933     
   3.6299999999999999E-002   -0.22943414217146063     
   3.6600000000000008E-002   -0.23769006366553963     
   3.6900000000000002E-002   -0.23630470979152179     
   3.7199999999999997E-002   -0.22487317700902823     
   3.7500000000000006E-002   -0.20368459903249250     
   3.7800000000000000E-002   -0.17373678858456040     
   3.8100000000000009E-002   -0.13673421836134686     
   3.8400000000000004E-002    -9.4953864820303158E-002
   3.8699999999999998E-002    -5.1076370235156182E-002
   3.9000000000000007E-002    -8.0133902646617634E-003
   3.9300000000000002E-002     3.1326793355849800E-002
   3.9600000000000003E-002     6.4263732600264925E-002
   3.9900000000000005E-002     8.8602489467596107E-002
   4.0200000000000000E-002    0.10280544263352785     
   4.0500000000000001E-002    0.10608706822810088     
   4.0800000000000003E-002     9.8523985292544330E-002
   4.1100000000000005E-002     8.1057792558519942E-002
   4.1399999999999999E-002     5.5400100954125855E-002
   4.1700000000000008E-002     2.3934351625303645E-002
   4.2000000000000003E-002    -1.0475003404291153E-002
   4.2299999999999997E-002    -4.4723755943412123E-002
   4.2600000000000006E-002    -7.5673931773472369E-002
   4.2900000000000001E-002   -0.10041932340494829     
   4.3200000000000002E-002   -0.11656450473249316     
   4.3500000000000004E-002   -0.12239047132401959     
   4.3799999999999999E-002   -0.11700851390811609     
   4.4100000000000000E-002   -0.10052874135398988     
   4.4400000000000002E-002    -7.4078344143418379E-002
   4.4700000000000004E-002    -3.9724470250917951E-002
   4.4999999999999998E-002    -3.5473018519513975E-004
   4.5300000000000000E-002     4.0533153171348230E-002
   4.5600000000000002E-002     7.9126053501923616E-002
   4.5899999999999996E-002    0.11163214528517203     
   4.6200000000000005E-002    0.13464337567500986     
   4.6500000000000000E-002    0.14553661576599913     
   4.6799999999999994E-002    0.14276530768667767     
   4.7100000000000003E-002    0.12608791291512927     
   4.7399999999999998E-002     9.6718748829720619E-002
   4.7700000000000006E-002     5.7366926884798553E-002
   4.8000000000000001E-002     1.2066434609185592E-002
   4.8300000000000010E-002    -3.4154863973230337E-002
   4.8600000000000004E-002    -7.5565048057666367E-002
   4.8899999999999999E-002   -0.10621702243607474     
   4.9200000000000008E-002   -0.12051191088995872     
   4.9500000000000002E-002   -0.11369256852239085     
   4.9800000000000011E-002    -8.2278256355577575E-002
   5.0100000000000006E-002    -2.4403342486047024E-002
   5.0400000000000000E-002     5.9884735854373858E-002
   5.0700000000000009E-002    0.16854109018723445     
   5.1000000000000004E-002    0.29759242201964808     
   5.1299999999999998E-002    0.44130987837767299     
   5.1600000000000007E-002    0.59261324910023483     
   5.1900000000000002E-002    0.74340343258303965     
   5.2200000000000010E-002    0.88504268709567724     
   5.2500000000000005E-002     1.0089042934616426     
   5.2800000000000000E-002     1.1069210335630453     
   5.3099999999999994E-002     1.1720192833703549     
   5.3400000000000003E-002     1.1984727203987113     
   5.3699999999999998E-002     1.1823129796709613     
   5.4000000000000006E-002     1.1215109977855449     
   5.4300000000000001E-002     1.0161518311473263     
   5.4599999999999996E-002    0.86838033773686063     
   5.4900000000000004E-002    0.68217674233570702     
   5.5199999999999999E-002    0.46333511043686149     
   5.5499999999999994E-002    0.21907653138148331     
   5.5800000000000002E-002    -4.2401119379286763E-002
   5.6099999999999997E-002   -0.31222648687285526     
   5.6400000000000006E-002   -0.58134531414186807     
   5.6700000000000000E-002   -0.84086044180107034     
   5.6999999999999995E-002    -1.0823935687242077     
   5.7300000000000004E-002    -1.2983777844115900     
   5.7599999999999998E-002    -1.4822615594442405     
   5.7900000000000007E-002    -1.6286085744062322     
   5.8200000000000002E-002    -1.7331739152680661     
   5.8499999999999996E-002    -1.7928813346980688     
   5.8800000000000005E-002    -1.8058183348344834     
   5.9100000000000000E-002    -1.7712427968240485     
   5.9400000000000008E-002    -1.6894445376875327     
   5.9700000000000003E-002    -1.5618607404281100     
   6.0000000000000012E-002    -1.3911898741753810     
   6.0300000000000006E-002    -1.1812773517924968     
   6.0600000000000001E-002   -0.93738773257574226     
   6.0900000000000010E-002   -0.66621521861442168     
   6.1200000000000004E-002   -0.37582569759724560     
   6.1500000000000013E-002    -7.5650538842917836E-002
   6.1800000000000008E-002    0.22384462586661397     
   6.2100000000000002E-002    0.51136221930452908     
   6.2399999999999997E-002    0.77529587173500547     
   6.2700000000000006E-002     1.0045578529259989     
   6.3000000000000000E-002     1.1890686406862718     
   6.3300000000000009E-002     1.3204914607672169     
   6.3600000000000004E-002     1.3930232576871762     
   6.3899999999999998E-002     1.4038781084330745     
   6.4199999999999993E-002     1.3537272193553063     
   6.4500000000000002E-002     1.2468564803041136     
   6.4800000000000010E-002     1.0908698913637562     
   6.5100000000000005E-002    0.89644677780865845     
   6.5400000000000000E-002    0.67670043541135083     
   6.5700000000000008E-002    0.44605947738564461     
   6.5999999999999989E-002    0.21931571584156262     
   6.6299999999999998E-002     1.0541760287073945E-002
   6.6600000000000006E-002   -0.16802907227854230     
   6.6900000000000001E-002   -0.30698332190263972     
   6.7199999999999996E-002   -0.40063908031233492     
   6.7500000000000004E-002   -0.44732899305823581     
   6.7800000000000013E-002   -0.44948748042089476     
   6.8099999999999994E-002   -0.41370626995376336     
   6.8400000000000002E-002   -0.35015880911403463     
   6.8700000000000011E-002   -0.27160421693960268     
   6.8999999999999992E-002   -0.19224622447961329     
   6.9300000000000000E-002   -0.12650757012519148     
   6.9600000000000009E-002    -8.7883987491298887E-002
   6.9900000000000004E-002    -8.7534088972061386E-002
   7.0199999999999999E-002   -0.13279839660458753     
   7.0500000000000007E-002   -0.22649033121954826     
   7.0800000000000016E-002   -0.36664380231999433     
   7.1099999999999997E-002   -0.54612544606910618     
   7.1400000000000005E-002   -0.75277365395193729     
   7.1700000000000000E-002   -0.97017895718558012     
   7.1999999999999995E-002    -1.1790714194711542     
   7.2300000000000003E-002    -1.3588871437116521     
   7.2600000000000012E-002    -1.4889570456294252     
   7.2900000000000006E-002    -1.5503194660858595     
   7.3200000000000001E-002    -1.5277539227744714     
   7.3499999999999996E-002    -1.4111962260961775     
   7.3800000000000004E-002    -1.1965066349819335     
   7.4099999999999999E-002   -0.88606813264874873     
   7.4400000000000008E-002   -0.48914250315389174     
   7.4700000000000003E-002    -2.1507781260635850E-002
   7.5000000000000011E-002    0.49560821171057401     
   7.5299999999999992E-002     1.0370323696062838     
   7.5600000000000001E-002     1.5752241061396439     
   7.5900000000000009E-002     2.0818972741859740     
   7.6200000000000004E-002     2.5299863715453226     
   7.6499999999999999E-002     2.8955392461988509     
   7.6800000000000007E-002     3.1591234410861633     
   7.7099999999999988E-002     3.3067696091237795     
   7.7399999999999997E-002     3.3305451027200874     
   7.7700000000000005E-002     3.2291062490030438     
   7.8000000000000014E-002     3.0074092583173346     
   7.8299999999999995E-002     2.6756896514317572     
   7.8600000000000003E-002     2.2486409888055525     
   7.8900000000000012E-002     1.7445794258873404     
   7.9199999999999993E-002     1.1841101835045074     
   7.9500000000000001E-002    0.58872246733930167     
   7.9800000000000010E-002    -2.0287254337313904E-002
   8.0100000000000018E-002   -0.62259765628378694     
   8.0399999999999999E-002    -1.1992656798819741     
   8.0700000000000008E-002    -1.7334361353233085     
   8.1000000000000003E-002    -2.2106128108217780     
   8.1299999999999997E-002    -2.6184524967381213     
   8.1600000000000006E-002    -2.9465777100526029     
   8.1900000000000014E-002    -3.1866542947259591     
   8.2199999999999995E-002    -3.3322850176647414     
   8.2500000000000004E-002    -3.3789227044723398     
   8.2799999999999999E-002    -3.3237335051380121     
   8.3100000000000007E-002    -3.1659238263172167     
   8.3400000000000002E-002    -2.9074378280452522     
   8.3700000000000011E-002    -2.5528840079511745     
   8.4000000000000005E-002    -2.1097402058978920     
   8.4300000000000000E-002    -1.5888726526080497     
   8.4599999999999995E-002    -1.0046712260874646     
   8.4900000000000003E-002   -0.37488635488564720     
   8.5199999999999998E-002    0.27976220492120707     
   8.5500000000000007E-002    0.93651399800610380     
   8.5800000000000001E-002     1.5709719356374265     
   8.6100000000000010E-002     2.1583679316244821     
   8.6399999999999991E-002     2.6748310074218797     
   8.6699999999999999E-002     3.0987000754457692     
   8.7000000000000008E-002     3.4116542691423910     
   8.7300000000000003E-002     3.5995846073174800     
   8.7599999999999997E-002     3.6535444769888055     
   8.7900000000000006E-002     3.5701944719010736     
   8.8200000000000014E-002     3.3518545398679609     
   8.8499999999999995E-002     3.0063088225411532     
   8.8800000000000004E-002     2.5462579440486834     
   8.9100000000000013E-002     1.9886697398849380     
   8.9399999999999993E-002     1.3537841335256267     
   8.9700000000000002E-002    0.66421402560384468     
   9.0000000000000011E-002    -5.6053610943537058E-002
   9.0299999999999991E-002   -0.78245675223583344     
   9.0600000000000000E-002    -1.4905021570241335     
   9.0900000000000009E-002    -2.1566301254367315     
   9.1200000000000017E-002    -2.7585732685546431     
   9.1499999999999998E-002    -3.2758474784059413     
   9.1800000000000007E-002    -3.6903384270137267     
   9.2100000000000001E-002    -3.9864303483334727     
   9.2399999999999996E-002    -4.1518833077144350     
   9.2700000000000005E-002    -4.1784051772259909     
   9.3000000000000013E-002    -4.0620871453046004     
   9.3300000000000008E-002    -3.8042291370004104     
   9.3600000000000003E-002    -3.4115241913839949     
   9.3899999999999997E-002    -2.8963992216765471     
   9.4200000000000006E-002    -2.2771845534240560     
   9.4500000000000001E-002    -1.5774282618000592     
   9.4800000000000009E-002   -0.82488753580792107     
   9.5100000000000004E-002    -5.0410976210306158E-002
   9.5399999999999999E-002    0.71353218482995517     
   9.5699999999999993E-002     1.4347545496811607     
   9.6000000000000002E-002     2.0833628064310550     
   9.6300000000000011E-002     2.6335357883858150     
   9.6600000000000005E-002     3.0648153732240857     
   9.6900000000000000E-002     3.3632476110819298     
   9.7200000000000009E-002     3.5221319322368068     
   9.7499999999999989E-002     3.5418799496576425     
   9.7799999999999998E-002     3.4296287863231476     
   9.8100000000000007E-002     3.1983369302727258     
   9.8400000000000015E-002     2.8653259157144193     
   9.8699999999999996E-002     2.4513018606899486     
   9.9000000000000005E-002     1.9787941094624819     
   9.9300000000000013E-002     1.4704326599891158     
   9.9599999999999994E-002    0.94850063678538987     
   9.9900000000000003E-002    0.43384584382840985     
  0.10020000000000001         -5.4904441367760709E-002
  0.10049999999999999        -0.50132483909043346     
  0.10080000000000000        -0.89156238758168604     
  0.10110000000000001         -1.2145220332793460     
  0.10140000000000000         -1.4619413893284368     
  0.10170000000000000         -1.6287432866793023     
  0.10200000000000001         -1.7125511664708883     
  0.10230000000000002         -1.7142945426789085     
  0.10260000000000000         -1.6386486396190199     
  0.10290000000000001         -1.4933371720844355     
  0.10320000000000000         -1.2889233189320979     
  0.10350000000000001         -1.0385277865181974     
  0.10380000000000000        -0.75712887479776569     
  0.10410000000000001        -0.46067523277773970     
  0.10440000000000001        -0.16461662247514330     
  0.10470000000000000         0.11733397520562100     
  0.10500000000000000         0.37362515759551151     
  0.10530000000000000         0.59564490694653394     
  0.10560000000000000         0.77860428090061107     
  0.10590000000000001         0.92130983083654283     
  0.10620000000000000          1.0259583004027601     
  0.10650000000000001          1.0970335957664674     
  0.10679999999999999          1.1400163570106301     
  0.10710000000000000          1.1611053266409610     
  0.10740000000000001          1.1656527026622701     
  0.10770000000000000          1.1569869608385568     
  0.10800000000000000          1.1362006351460914     
  0.10830000000000001          1.1014422189033448     
  0.10859999999999999          1.0486193848404617     
  0.10890000000000000         0.97201509844949485     
  0.10920000000000001         0.86478976702642418     
  0.10950000000000001         0.72053910575253066     
  0.10979999999999999         0.53433647552595764     
  0.11009999999999999         0.30398663841173335     
  0.11040000000000001          3.1121963371895059E-002
  0.11070000000000001        -0.27880881609199254     
  0.11100000000000000        -0.61614716347181342     
  0.11130000000000000        -0.96702006812497698     
  0.11160000000000002         -1.3147463777184782     
  0.11190000000000001         -1.6410866055064157     
  0.11220000000000001         -1.9276820343740697     
  0.11250000000000000         -2.1577750903307908     
  0.11280000000000000         -2.3177580906375321     
  0.11309999999999999         -2.3988545793327480     
  0.11340000000000001         -2.3982705771817256     
  0.11369999999999998         -2.3189967477794315     
  0.11400000000000000         -2.1700309990399127     
  0.11430000000000000         -1.9655062541749997     
  0.11460000000000002         -1.7228455436959009     
  0.11489999999999999         -1.4610285927269486     
  0.11520000000000001         -1.1981957796675808     
  0.11550000000000001        -0.94920835250675806     
  0.11580000000000000        -0.72426492248341834     
  0.11609999999999999        -0.52724350510448870     
  0.11640000000000002        -0.35521382789677319     
  0.11670000000000001        -0.19922492972106604     
  0.11700000000000001         -4.5174092615240531E-002
  0.11730000000000000         0.12346348874278035     
  0.11760000000000000         0.32308731922550704     
  0.11789999999999999         0.56773622240989474     
  0.11820000000000001         0.86518361296469193     
  0.11850000000000001          1.2154108970477429     
  0.11880000000000000          1.6100291265071216     
  0.11910000000000000          2.0313746299115683     
  0.11940000000000002          2.4539215493363415     
  0.11970000000000001          2.8466478679741689     
  0.12000000000000001          3.1761966749571857     
  0.12030000000000000          3.4104523912165918     
  0.12060000000000000          3.5217610846854592     
  0.12089999999999999          3.4908127953931238     
  0.12119999999999999          3.3087091367823187     
  0.12150000000000001          2.9777978951223445     
  0.12180000000000001          2.5122129807824098     
  0.12210000000000000          1.9365176652728149     
  0.12239999999999999          1.2827951936254012     
  0.12270000000000002         0.58795564569960734     
  0.12300000000000001        -0.10972932696758830     
  0.12330000000000001        -0.77424759445230151     
  0.12360000000000000         -1.3746348282328453     
  0.12390000000000000         -1.8872547502108339     
  0.12419999999999999         -2.2967199708985642     
  0.12450000000000001         -2.5959480078429009     
  0.12480000000000001         -2.7856090740611190     
  0.12509999999999999         -2.8721444248298167     
  0.12540000000000001         -2.8661217178751923     
  0.12570000000000003         -2.7799317083721786     
  0.12600000000000000         -2.6252008083095690     
  0.12630000000000002         -2.4123178338539430     
  0.12659999999999999         -2.1495118183930142     
  0.12690000000000001         -1.8419951554201992     
  0.12719999999999998         -1.4929477930913924     
  0.12750000000000000         -1.1048143923722169     
  0.12780000000000002        -0.68065536435142604     
  0.12809999999999999        -0.22549702827165630     
  0.12840000000000001         0.25250589888539654     
  0.12869999999999998         0.74097552529373112     
  0.12900000000000000          1.2228525841603222     
  0.12930000000000003          1.6773597167444967     
  0.12959999999999999          2.0808735084503658     
  0.12990000000000002          2.4087559216591563     
  0.13019999999999998          2.6376121314126442     
  0.13050000000000000          2.7469607498006154     
  0.13080000000000003          2.7223795120514223     
  0.13109999999999999          2.5571762826535474     
  0.13140000000000002          2.2526444396654917     
  0.13169999999999998          1.8191709346585396     
  0.13200000000000001          1.2760406400700215     
  0.13229999999999997         0.64966339369040460     
  0.13260000000000000         -2.8363811346323597E-002
  0.13290000000000002        -0.72424176395836726     
  0.13319999999999999         -1.4039845246721754     
  0.13350000000000001         -2.0358142398455987     
  0.13380000000000003         -2.5935199106168527     
  0.13410000000000000         -3.0574999651629482     
  0.13440000000000002         -3.4151047976965274     
  0.13469999999999999         -3.6614136902138270     
  0.13500000000000001         -3.7975953913777154     
  0.13529999999999998         -3.8299073729295383     
  0.13560000000000000         -3.7685148275498861     
  0.13590000000000002         -3.6241255381706710     
  0.13619999999999999         -3.4067056984713435     
  0.13650000000000001         -3.1246891768149316     
  0.13680000000000003         -2.7834378115347693     
  0.13710000000000000         -2.3852921854000053     
  0.13740000000000002         -1.9295457046202094     
  0.13769999999999999         -1.4140472688504027     
  0.13800000000000001        -0.83672458278342676     
  0.13829999999999998        -0.19601412333924473     
  0.13860000000000000         0.50660827187195556     
  0.13890000000000002          1.2651685698998492     
  0.13919999999999999          2.0699035754552702     
  0.13950000000000001          2.9059618840972399     
  0.13979999999999998          3.7533488478022501     
  0.14010000000000000          4.5885590539093108     
  0.14040000000000002          5.3852106767398382     
  0.14069999999999999          6.1155344891836183     
  0.14100000000000001          6.7520443822381440     
  0.14130000000000004          7.2678376367434030     
  0.14160000000000000          7.6387752708918022     
  0.14189999999999997          7.8443188817842433     
  0.14219999999999999          7.8675601772045631     
  0.14250000000000002          7.6962716127061999     
  0.14279999999999998          7.3221566920850503     
  0.14310000000000000          6.7421186793896641     
  0.14339999999999997          5.9591139074525064     
  0.14369999999999999          4.9803708631855645     
  0.14400000000000002          3.8188880538839021     
  0.14429999999999998          2.4952651938456354     
  0.14460000000000001          1.0361618154545158     
  0.14490000000000003        -0.52491588740942241     
  0.14520000000000000         -2.1470984095938710     
  0.14550000000000002         -3.7827624518498828     
  0.14579999999999999         -5.3786647897000357     
  0.14610000000000001         -6.8774969155276633     
  0.14640000000000003         -8.2204111641412574     
  0.14670000000000000         -9.3491165181380982     
  0.14699999999999996         -10.210142476980591     
  0.14729999999999999         -10.757802111592612     
  0.14760000000000001         -10.957128188493870     
  0.14789999999999998         -10.788745101553214     
  0.14820000000000000         -10.249787259187531     