  -1.4999999999999999E-002     0.0000000000000000     
  -1.4700000000000000E-002     0.0000000000000000     
  -1.4400000000000000E-002     0.0000000000000000     
  -1.4100000000000000E-002     0.0000000000000000     
  -1.3800000000000000E-002     0.0000000000000000     
  -1.3500000000000000E-002     0.0000000000000000     
  -1.3200000000000000E-002     0.0000000000000000     
  -1.2899999999999998E-002     0.0000000000000000     
  -1.2600000000000000E-002     0.0000000000000000     
  -1.2299999999999998E-002     0.0000000000000000     
  -1.2000000000000000E-002     0.0000000000000000     
  -1.1699999999999999E-002     0.0000000000000000     
  -1.1399999999999999E-002     0.0000000000000000     
  -1.1099999999999999E-002     0.0000000000000000     
  -1.0799999999999999E-002     0.0000000000000000     
  -1.0499999999999999E-002     0.0000000000000000     
  -1.0199999999999999E-002     0.0000000000000000     
  -9.8999999999999991E-003     0.0000000000000000     
  -9.5999999999999992E-003     0.0000000000000000     
  -9.2999999999999992E-003     0.0000000000000000     
  -8.9999999999999993E-003     0.0000000000000000     
  -8.6999999999999994E-003     0.0000000000000000     
  -8.3999999999999995E-003     0.0000000000000000     
  -8.0999999999999996E-003     0.0000000000000000     
  -7.7999999999999988E-003     0.0000000000000000     
  -7.4999999999999997E-003     0.0000000000000000     
  -7.1999999999999998E-003     0.0000000000000000     
  -6.8999999999999981E-003     0.0000000000000000     
  -6.5999999999999982E-003     0.0000000000000000     
  -6.3000000000000000E-003     0.0000000000000000     
  -6.0000000000000001E-003     0.0000000000000000     
  -5.6999999999999985E-003     0.0000000000000000     
  -5.3999999999999986E-003     0.0000000000000000     
  -5.1000000000000004E-003     0.0000000000000000     
  -4.7999999999999987E-003     0.0000000000000000     
  -4.5000000000000005E-003     0.0000000000000000     
  -4.1999999999999989E-003     0.0000000000000000     
  -3.8999999999999990E-003     0.0000000000000000     
  -3.5999999999999990E-003     0.0000000000000000     
  -3.2999999999999991E-003     0.0000000000000000     
  -2.9999999999999992E-003     0.0000000000000000     
  -2.6999999999999993E-003     0.0000000000000000     
  -2.3999999999999994E-003     0.0000000000000000     
  -2.0999999999999977E-003     0.0000000000000000     
  -1.7999999999999995E-003     0.0000000000000000     
  -1.4999999999999979E-003     0.0000000000000000     
  -1.1999999999999997E-003     0.0000000000000000     
  -8.9999999999999976E-004     0.0000000000000000     
  -5.9999999999999810E-004     0.0000000000000000     
  -2.9999999999999992E-004     0.0000000000000000     
   0.0000000000000000          0.0000000000000000     
   3.0000000000000165E-004     0.0000000000000000     
   5.9999999999999984E-004     0.0000000000000000     
   9.0000000000000149E-004     0.0000000000000000     
   1.2000000000000031E-003     0.0000000000000000     
   1.5000000000000013E-003     0.0000000000000000     
   1.8000000000000030E-003     0.0000000000000000     
   2.1000000000000012E-003     0.0000000000000000     
   2.3999999999999994E-003     0.0000000000000000     
   2.7000000000000010E-003     0.0000000000000000     
   2.9999999999999992E-003     0.0000000000000000     
   3.3000000000000008E-003     0.0000000000000000     
   3.6000000000000025E-003     0.0000000000000000     
   3.9000000000000007E-003     0.0000000000000000     
   4.2000000000000023E-003     0.0000000000000000     
   4.5000000000000005E-003     0.0000000000000000     
   4.7999999999999987E-003     0.0000000000000000     
   5.1000000000000004E-003     0.0000000000000000     
   5.4000000000000020E-003     0.0000000000000000     
   5.7000000000000037E-003     0.0000000000000000     
   5.9999999999999984E-003     0.0000000000000000     
   6.3000000000000000E-003     0.0000000000000000     
   6.6000000000000017E-003     0.0000000000000000     
   6.9000000000000034E-003     0.0000000000000000     
   7.2000000000000015E-003     0.0000000000000000     
   7.5000000000000032E-003     0.0000000000000000     
   7.8000000000000014E-003     0.0000000000000000     
   8.0999999999999996E-003     0.0000000000000000     
   8.4000000000000012E-003     1.6846645553333875E-073
   8.7000000000000029E-003     8.9828640371080825E-046
   9.0000000000000011E-003     3.1680668121017748E-044
   9.2999999999999992E-003    -1.0890072404112429E-036
   9.6000000000000009E-003    -9.2277740050932991E-036
   9.8999999999999991E-003     7.6566543019161746E-035
   1.0200000000000001E-002     5.1691229873206513E-034
   1.0500000000000002E-002    -1.8910882369764505E-033
   1.0800000000000004E-002    -1.9324588740939657E-032
   1.1099999999999999E-002     3.1666849587251928E-032
   1.1400000000000000E-002     6.1827508412421799E-031
   1.1700000000000002E-002    -1.9402040596196401E-030
   1.2000000000000004E-002    -1.2268286087636665E-029
   1.2300000000000002E-002     9.8227118679189952E-029
   1.2600000000000000E-002    -1.5514251333962196E-028
   1.2900000000000002E-002    -1.3743989315662712E-027
   1.3200000000000000E-002     1.0263742128124206E-026
   1.3500000000000002E-002    -2.7605195070391899E-026
   1.3800000000000003E-002    -3.8726891529628198E-026
   1.4100000000000001E-002     6.4785883222591191E-025
   1.4400000000000000E-002    -2.5770150766355141E-024
   1.4700000000000001E-002     3.0742243350942495E-024
   1.4999999999999999E-002     1.9731214090428527E-023
   1.5300000000000001E-002    -1.2745496058661203E-022
   1.5600000000000003E-002     3.4034440079941879E-022
   1.5899999999999997E-002    -9.8737670931772659E-023
   1.6199999999999999E-002    -3.2074686404915230E-021
   1.6500000000000001E-002     1.5679385254070402E-020
   1.6800000000000002E-002    -4.1099273583799535E-020
   1.7100000000000004E-002     4.6686685587107767E-020
   1.7400000000000006E-002     1.3133133264738725E-019
   1.7700000000000000E-002    -9.0661919972058212E-019
   1.8000000000000002E-002     2.6128193140628586E-018
   1.8300000000000004E-002    -2.5481835593246932E-018
   1.8600000000000005E-002    -1.7638239270076996E-017
   1.8900000000000000E-002     1.2825929292974671E-016
   1.9200000000000002E-002    -4.9357449358964315E-016
   1.9500000000000003E-002     1.0358073533432849E-015
   1.9799999999999998E-002     1.8014178385028209E-015
   2.0100000000000000E-002    -3.2768549018459653E-014
   2.0400000000000001E-002     2.0871400528600295E-013
   2.0700000000000003E-002    -9.3986060027994262E-013
   2.0999999999999998E-002     3.2069922425867334E-012
   2.1299999999999999E-002    -7.7676496597563236E-012
   2.1600000000000001E-002     8.8013448881786412E-012
   2.1900000000000003E-002     2.4236544581324376E-011
   2.2200000000000004E-002    -1.5597982887617260E-010
   2.2500000000000006E-002     3.6348055983510535E-010
   2.2800000000000001E-002    -1.1940898623012501E-010
   2.3100000000000002E-002    -1.7285955214465448E-009
   2.3400000000000004E-002     4.3243897832643376E-009
   2.3699999999999999E-002     8.6841731508371514E-010
   2.4000000000000000E-002    -2.0528535513740619E-008
   2.4300000000000002E-002     1.6635171225002647E-008
   2.4599999999999997E-002     6.8107269695684477E-008
   2.4900000000000005E-002    -8.9791156946580266E-008
   2.5200000000000000E-002    -2.3745163100761534E-007
   2.5499999999999995E-002     2.2938516254018152E-007
   2.5800000000000003E-002     7.5413947660300123E-007
   2.6099999999999998E-002    -2.5736630830810928E-007
   2.6400000000000007E-002    -2.0062393519231411E-006
   2.6700000000000002E-002    -5.0937591733234136E-007
   2.6999999999999996E-002     5.4949737247704610E-006
   2.7300000000000005E-002     1.0814323119402000E-005
   2.7600000000000000E-002     1.1339673686666119E-005
   2.7900000000000008E-002     1.3090947669704301E-005
   2.8200000000000003E-002     2.6567764781484091E-005
   2.8499999999999998E-002     5.2794152387964670E-005
   2.8800000000000006E-002     8.3862142356425101E-005
   2.9100000000000001E-002     1.1996649942924892E-004
   2.9400000000000003E-002     1.7762555371817910E-004
   2.9700000000000004E-002     2.7574028590247239E-004
   3.0000000000000006E-002     4.2142172232970934E-004
   3.0300000000000001E-002     6.1997928956393012E-004
   3.0600000000000002E-002     8.9535449724428395E-004
   3.0900000000000004E-002     1.2889506876462855E-003
   3.1199999999999999E-002     1.8399714192601619E-003
   3.1500000000000007E-002     2.5818008234135253E-003
   3.1800000000000002E-002     3.5618825681286007E-003
   3.2099999999999997E-002     4.8517575945967078E-003
   3.2400000000000005E-002     6.5288604862144039E-003
   3.2700000000000000E-002     8.6590182876298896E-003
   3.3000000000000002E-002     1.1305041722566255E-002
   3.3300000000000003E-002     1.4539085474072176E-002
   3.3599999999999998E-002     1.8427543529305691E-002
   3.3900000000000000E-002     2.2999821467930358E-002
   3.4200000000000001E-002     2.8238505420870350E-002
   3.4500000000000003E-002     3.4087099498008866E-002
   3.4799999999999998E-002     4.0441062739545945E-002
   3.5099999999999999E-002     4.7119170946756855E-002
   3.5400000000000001E-002     5.3844497212266432E-002
   3.5699999999999996E-002     6.0255394075648422E-002
   3.6000000000000004E-002     6.5919526691890662E-002
   3.6299999999999999E-002     7.0338279849926008E-002
   3.6600000000000008E-002     7.2958410680895536E-002
   3.6900000000000002E-002     7.3199340135111229E-002
   3.7199999999999997E-002     7.0506804613314808E-002
   3.7500000000000006E-002     6.4409867809943372E-002
   3.7800000000000000E-002     5.4552418043327507E-002
   3.8100000000000009E-002     4.0744156304687119E-002
   3.8400000000000004E-002     2.3021167616314824E-002
   3.8699999999999998E-002     1.6816949949810325E-003
   3.9000000000000007E-002    -2.2703612273928555E-002
   3.9300000000000002E-002    -4.9297120796303669E-002
   3.9600000000000003E-002    -7.7020027468484423E-002
   3.9900000000000005E-002   -0.10460066159165714     
   4.0200000000000000E-002   -0.13064520205832383     
   4.0500000000000001E-002   -0.15374222576295249     
   4.0800000000000003E-002   -0.17257742791796138     
   4.1100000000000005E-002   -0.18602863185893398     
   4.1399999999999999E-002   -0.19327058146217199     
   4.1700000000000008E-002   -0.19385670381750170     
   4.2000000000000003E-002   -0.18777676182191594     
   4.2299999999999997E-002   -0.17549038179305654     
   4.2600000000000006E-002   -0.15789488186239184     
   4.2900000000000001E-002   -0.13628323579919083     
   4.3200000000000002E-002   -0.11225370491769687     
   4.3500000000000004E-002    -8.7597550375707989E-002
   4.3799999999999999E-002    -6.4171211012461496E-002
   4.4100000000000000E-002    -4.3750864288164909E-002
   4.4400000000000002E-002    -2.7904021113555576E-002
   4.4700000000000004E-002    -1.7874697499908686E-002
   4.4999999999999998E-002    -1.4471005785477819E-002
   4.5300000000000000E-002    -1.8003722734725003E-002
   4.5600000000000002E-002    -2.8255187088627773E-002
   4.5899999999999996E-002    -4.4490572292784990E-002
   4.6200000000000005E-002    -6.5473132248218047E-002
   4.6500000000000000E-002    -8.9514405186734217E-002
   4.6799999999999994E-002   -0.11460514458734629     
   4.7100000000000003E-002   -0.13853258014038158     
   4.7399999999999998E-002   -0.15897609438012356     
   4.7700000000000006E-002   -0.17365913257429080     
   4.8000000000000001E-002   -0.18052078959711113     
   4.8300000000000010E-002   -0.17785059093425354     
   4.8600000000000004E-002   -0.16440627146278203     
   4.8899999999999999E-002   -0.13950435961141619     
   4.9200000000000008E-002   -0.10310604530284254     
   4.9500000000000002E-002    -5.5867199427040340E-002
   4.9800000000000011E-002     8.9961550501761257E-004
   5.0100000000000006E-002     6.5256723018036325E-002
   5.0400000000000000E-002    0.13475965115302774     
   5.0700000000000009E-002    0.20658725732464767     
   5.1000000000000004E-002    0.27764952495322481     
   5.1299999999999998E-002    0.34480080397283597     
   5.1600000000000007E-002    0.40502238731081719     
   5.1900000000000002E-002    0.45555666604414863     
   5.2200000000000010E-002    0.49403513037545749     
   5.2500000000000005E-002    0.51856500498561509     
   5.2800000000000000E-002    0.52785289887006714     
   5.3099999999999994E-002    0.52124322053263261     
   5.3400000000000003E-002    0.49867410035102189     
   5.3699999999999998E-002    0.46067727136734465     
   5.4000000000000006E-002    0.40838104951986381     
   5.4300000000000001E-002    0.34350237642257153     
   5.4599999999999996E-002    0.26829278775406473     
   5.4900000000000004E-002    0.18543288323412563     
   5.5199999999999999E-002     9.8031559213282285E-002
   5.5499999999999994E-002     9.6328054639137836E-003
   5.5800000000000002E-002    -7.5912998012052035E-002
   5.6099999999999997E-002   -0.15458744944165256     
   5.6400000000000006E-002   -0.22233322521771201     
   5.6700000000000000E-002   -0.27519351565434685     
   5.6999999999999995E-002   -0.30952218537894077     
   5.7300000000000004E-002   -0.32226175449670330     
   5.7599999999999998E-002   -0.31119230759016486     
   5.7900000000000007E-002   -0.27513844104903068     
   5.8200000000000002E-002   -0.21418692433402745     
   5.8499999999999996E-002   -0.12983612882333145     
   5.8800000000000005E-002    -2.5060538665712374E-002
   5.9100000000000000E-002     9.5647462638426287E-002
   5.9400000000000008E-002    0.22644385939459563     
   5.9700000000000003E-002    0.36041891974729218     
   6.0000000000000012E-002    0.48985052660016093     
   6.0300000000000006E-002    0.60660774204393564     
   6.0600000000000001E-002    0.70264137594021470     
   6.0900000000000010E-002    0.77049864223255271     
   6.1200000000000004E-002    0.80382598373565317     
   6.1500000000000013E-002    0.79775805205262917     
   6.1800000000000008E-002    0.74932838358172171     
   6.2100000000000002E-002    0.65775705153530761     
   6.2399999999999997E-002    0.52451593302792698     
   6.2700000000000006E-002    0.35342660970482837     
   6.3000000000000000E-002    0.15050007594980788     
   6.3300000000000009E-002    -7.6392599132198397E-002
   6.3600000000000004E-002   -0.31786948788285768     
   6.3899999999999998E-002   -0.56353265675825881     
   6.4199999999999993E-002   -0.80249674032531482     
   6.4500000000000002E-002    -1.0239338990848765     
   6.4800000000000010E-002    -1.2177162308889848     
   6.5100000000000005E-002    -1.3748983301510940     
   6.5400000000000000E-002    -1.4881375005968607     
   6.5700000000000008E-002    -1.5520748077621775     
   6.5999999999999989E-002    -1.5635545432977391     
   6.6299999999999998E-002    -1.5217740710472518     
   6.6600000000000006E-002    -1.4282351896573546     
   6.6900000000000001E-002    -1.2866662889099587     
   6.7199999999999996E-002    -1.1028341182514227     
   6.7500000000000004E-002   -0.88415480687765025     
   6.7800000000000013E-002   -0.63935954127753969     
   6.8099999999999994E-002   -0.37814838145129159     
   6.8400000000000002E-002   -0.11074690665666398     
   6.8700000000000011E-002    0.15259246685571909     
   6.8999999999999992E-002    0.40197629181183242     
   6.9300000000000000E-002    0.62822914829897469     
   6.9600000000000009E-002    0.82327319124620479     
   6.9900000000000004E-002    0.98043270036019670     
   7.0199999999999999E-002     1.0947213298126033     
   7.0500000000000007E-002     1.1629800929952099     
   7.0800000000000016E-002     1.1839295761904218     
   7.1099999999999997E-002     1.1583175792771492     
   7.1400000000000005E-002     1.0889021284067173     
   7.1700000000000000E-002    0.98026264848731626     
   7.1999999999999995E-002    0.83857471722962307     
   7.2300000000000003E-002    0.67139352146967446     
   7.2600000000000012E-002    0.48743650882745643     
   7.2900000000000006E-002    0.29608175501242057     
   7.3200000000000001E-002    0.10693122568530834     
   7.3499999999999996E-002    -7.0544035096884158E-002
   7.3800000000000004E-002   -0.22751751811093401     
   7.4099999999999999E-002   -0.35626161517976929     
   7.4400000000000008E-002   -0.45057306223111954     
   7.4700000000000003E-002   -0.50619179604238318     
   7.5000000000000011E-002   -0.52112466707042304     
   7.5299999999999992E-002   -0.49584517461887567     
   7.5600000000000001E-002   -0.43339172509675550     
   7.5900000000000009E-002   -0.33944055830007924     
   7.6200000000000004E-002   -0.22203301145635654     
   7.6499999999999999E-002    -9.1163584069928347E-002
   7.6800000000000007E-002     4.1676406421447022E-002
   7.7099999999999988E-002    0.16424282100738721     
   7.7399999999999997E-002    0.26444366898574501     
   7.7700000000000005E-002    0.33128703044146518     
   7.8000000000000014E-002    0.35576880411241668     
   7.8299999999999995E-002    0.33178300071095984     
   7.8600000000000003E-002    0.25697139224191767     
   7.8900000000000012E-002    0.13315598840960485     
   7.9199999999999993E-002    -3.3492192827628879E-002
   7.9500000000000001E-002   -0.23254798605228649     
   7.9800000000000010E-002   -0.44998610526001043     
   8.0100000000000018E-002   -0.66906452941004602     
   8.0399999999999999E-002   -0.87148309752494835     
   8.0700000000000008E-002    -1.0389158845190063     
   8.1000000000000003E-002    -1.1545803679959818     
   8.1299999999999997E-002    -1.2046679397411222     
   8.1600000000000006E-002    -1.1795562642109210     
   8.1900000000000014E-002    -1.0748928909857547     
   8.2199999999999995E-002   -0.89224732958971620     
   8.2500000000000004E-002   -0.63899106534190475     
   8.2799999999999999E-002   -0.32783896121393824     
   8.3100000000000007E-002     2.3916058369147904E-002
   8.3400000000000002E-002    0.39567098460248523     
   8.3700000000000011E-002    0.76512677339670276     
   8.4000000000000005E-002     1.1100477105977469     
   8.4300000000000000E-002     1.4098942439967517     
   8.4599999999999995E-002     1.6472799965373424     
   8.4900000000000003E-002     1.8091423717504955     
   8.5199999999999998E-002     1.8876545644328666     
   8.5500000000000007E-002     1.8807049012040173     
   8.5800000000000001E-002     1.7916382755568243     
   8.6100000000000010E-002     1.6286682076355745     
   8.6399999999999991E-002     1.4041215341666389     
   8.6699999999999999E-002     1.1332891116847019     
   8.7000000000000008E-002    0.83307440040734060     
   8.7300000000000003E-002    0.52055276035047815     
   8.7599999999999997E-002    0.21167752388392333     
   8.7900000000000006E-002    -7.9625741562323396E-002
   8.8200000000000014E-002   -0.34234244023229909     
   8.8499999999999995E-002   -0.56879240924828500     
   8.8800000000000004E-002   -0.75477577117747252     
   8.9100000000000013E-002   -0.89943123888877086     
   8.9399999999999993E-002    -1.0045529718130994     
   8.9700000000000002E-002    -1.0739399316323344     
   9.0000000000000011E-002    -1.1126108294943100     
   9.0299999999999991E-002    -1.1259151823319393     
   9.0600000000000000E-002    -1.1188045864668370     
   9.0900000000000009E-002    -1.0951545359529979     
   9.1200000000000017E-002    -1.0573858138689329     
   9.1499999999999998E-002    -1.0063246598188584     
   9.1800000000000007E-002   -0.94127900427358113     
   9.2100000000000001E-002   -0.86050594780163336     
   9.2399999999999996E-002   -0.76164985521442119     
   9.2700000000000005E-002   -0.64226616119133229     
   9.3000000000000013E-002   -0.50058222357645843     
   9.3300000000000008E-002   -0.33620408546065950     
   9.3600000000000003E-002   -0.15048922773510201     
   9.3899999999999997E-002     5.3325441106080125E-002
   9.4200000000000006E-002    0.26993212366990510     
   9.4500000000000001E-002    0.49192905921835456     
   9.4800000000000009E-002    0.71037257444033874     
   9.5100000000000004E-002    0.91546441069230011     
   9.5399999999999999E-002     1.0970468635142587     
   9.5699999999999993E-002     1.2451330553602911     
   9.6000000000000002E-002     1.3507044457524753     
   9.6300000000000011E-002     1.4064192920939145     
   9.6600000000000005E-002     1.4070532472085260     
   9.6900000000000000E-002     1.3496943857432266     
   9.7200000000000009E-002     1.2338380947646963     
   9.7499999999999989E-002     1.0616184589903852     
   9.7799999999999998E-002    0.83788366066275777     
   9.8100000000000007E-002    0.56967467732590060     
   9.8400000000000015E-002    0.26583919273698742     
   9.8699999999999996E-002    -6.3054882027223202E-002
   9.9000000000000005E-002   -0.40493616831536305     
   9.9300000000000013E-002   -0.74678272749040597     
   9.9599999999999994E-002    -1.0753992905998218     
   9.9900000000000003E-002    -1.3775839949245379     
  0.10020000000000001         -1.6403746778274155     
  0.10049999999999999         -1.8517943818519624     
  0.10080000000000000         -2.0014515138964937     
  0.10110000000000001         -2.0809841382425112     
  0.10140000000000000         -2.0843668212714750     
  0.10170000000000000         -2.0083377583550432     
  0.10200000000000001         -1.8528943268756992     
  0.10230000000000002         -1.6213697378032719     
  0.10260000000000000         -1.3204955013646329     
  0.10290000000000001        -0.96031130481983096     
  0.10320000000000000        -0.55378467522084796     
  0.10350000000000001        -0.11639715180886455     
  0.10380000000000000         0.33455926486869869     
  0.10410000000000001         0.78072369905669159     
  0.10440000000000001          1.2036614546441802     
  0.10470000000000000          1.5859646968976295     
  0.10500000000000000          1.9119332045712205     
  0.10530000000000000          2.1684491872892089     
  0.10560000000000000          2.3458626529485129     
  0.10590000000000001          2.4385884078458360     
  0.10620000000000000          2.4451556477464602     
  0.10650000000000001          2.3680005337198682     
  0.10679999999999999          2.2133403071256645     
  0.10710000000000000          1.9906784518440368     
  0.10740000000000001          1.7116533709477542     
  0.10770000000000000          1.3891005672098884     
  0.10800000000000000          1.0360610602210445     
  0.10830000000000001         0.66504163313028974     
  0.10859999999999999         0.28716817846075948     
  0.10890000000000000         -8.8553861426938121E-002
  0.10920000000000001        -0.45515746344466662     
  0.10950000000000001        -0.80745709795221710     
  0.10979999999999999         -1.1415047767643580     
  0.11009999999999999         -1.4540766634329123     
  0.11040000000000001         -1.7419672201312832     
  0.11070000000000001         -2.0008104065858605     
  0.11100000000000000         -2.2243972068860725     
  0.11130000000000000         -2.4047818449550959     
  0.11160000000000002         -2.5322904868284315     
  0.11190000000000001         -2.5957420162655214     
  0.11220000000000001         -2.5833118252732867     
  0.11250000000000000         -2.4840951247422365     
  0.11280000000000000         -2.2896316312783864     
  0.11309999999999999         -1.9950070610583057     
  0.11340000000000001         -1.6001260466387557     
  0.11369999999999998         -1.1110586058951211     
  0.11400000000000000        -0.54064632126412737     
  0.11430000000000000          9.1833793197696800E-002
  0.11460000000000002         0.76136738886953370     
  0.11489999999999999          1.4380871217962568     
  0.11520000000000001          2.0887823340522642     
  0.11550000000000001          2.6791019743797126     
  0.11580000000000000          3.1759105090515005     
  0.11609999999999999          3.5493245530067377     
  0.11640000000000002          3.7745075657301199     
  0.11670000000000001          3.8334246120129030     
  0.11700000000000001          3.7164509721208208     
  0.11730000000000000          3.4229288491867114     
  0.11760000000000000          2.9612360337629036     
  0.11789999999999999          2.3484812048739281     
  0.11820000000000001          1.6098864258840559     
  0.11850000000000001         0.77751387006017270     
  0.11880000000000000        -0.11164290643722079     
  0.11910000000000000         -1.0174629811067766     
  0.11940000000000002         -1.8984437212644665     
  0.11970000000000001         -2.7137024719517111     
  0.12000000000000001         -3.4251585404400351     
  0.12030000000000000         -3.9992592797087414     
  0.12060000000000000         -4.4081922085199441     
  0.12089999999999999         -4.6313343579746125     
  0.12119999999999999         -4.6563497122391935     
  0.12150000000000001         -4.4794908080548677     
  0.12180000000000001         -4.1058965195459365     
  0.12210000000000000         -3.5495319767335101     
  0.12239999999999999         -2.8326540310741009     
  0.12270000000000002         -1.9848948936437081     
  0.12300000000000001         -1.0421604028680711     
  0.12330000000000001         -4.5036311788140777E-002
  0.12360000000000000         0.96303201918367787     
  0.12390000000000000          1.9375577204123462     
  0.12419999999999999          2.8350792264752855     
  0.12450000000000001          3.6155426924628009     
  0.12480000000000001          4.2443633573097932     
  0.12509999999999999          4.6939287729605432     
  0.12540000000000001          4.9449997519556002     
  0.12570000000000003          4.9881482698936610     
  0.12600000000000000          4.8242397862236750     
  0.12630000000000002          4.4639530692279834     
  0.12659999999999999          3.9271569698484923     
  0.12690000000000001          3.2419338591726237     
  0.12719999999999998          2.4430871281109940     
  0.12750000000000000          1.5698305537153476     
  0.12780000000000002         0.66370571286433711     
  0.12809999999999999        -0.23331897379703581     
  0.12840000000000001         -1.0812120577871700     
  0.12869999999999998         -1.8436502446310357     
  0.12900000000000000         -2.4894225899039744     
  0.12930000000000003         -2.9938543201009558     
  0.12959999999999999         -3.3394813933123704     
  0.12990000000000002         -3.5164747650909849     
  0.13019999999999998         -3.5227609090446612     
  0.13050000000000000         -3.3638041406722659     
  0.13080000000000003         -3.0522988189698652     
  0.13109999999999999         -2.6073568159049372     
  0.13140000000000002         -2.0538456664295612     
  0.13169999999999998         -1.4214412122430395     
  0.13200000000000001        -0.74331719366262983     
  0.13229999999999997         -5.5320336222939630E-002
  0.13260000000000000         0.60549122973816061     
  0.13290000000000002          1.2028856432847415     
  0.13319999999999999          1.7028968544813148     
  0.13350000000000001          2.0754308950864262     
  0.13380000000000003          2.2961771760126588     
  0.13410000000000000          2.3487015044436625     
  0.13440000000000002          2.2260601776306830     
  0.13469999999999999          1.9313327292192377     
  0.13500000000000001          1.4780942364557259     
  0.13529999999999998         0.89076728560761620     
  0.13560000000000000         0.20351517330168944     
  0.13590000000000002        -0.54221744074574307     
  0.13619999999999999         -1.3003350655478436     
  0.13650000000000001         -2.0226259471948631     
  0.13680000000000003         -2.6623828722494158     
  0.13710000000000000         -3.1785164247143061     
  0.13740000000000002         -3.5384419370348659     
  0.13769999999999999         -3.7200270122915473     
  0.13800000000000001         -3.7133684578829831     
  0.13829999999999998         -3.5215232768882143     
  0.13860000000000000         -3.1595969554122867     
  0.13890000000000002         -2.6526098547015144     
  0.13919999999999999         -2.0331487881045742     
  0.13950000000000001         -1.3383414892680885     
  0.13979999999999998        -0.60632974566503939     
  0.14010000000000000         0.12690536833948277     
  0.14040000000000002         0.83005816677617250     
  0.14069999999999999          1.4782701895615029     
  0.14100000000000001          2.0541324844087088     
  0.14130000000000004          2.5475778863309011     
  0.14160000000000000          2.9549894662543421     
  0.14189999999999997          3.2779238591111342     
  0.14219999999999999          3.5210764804548567     
  0.14250000000000002          3.6904020727785278     
  0.14279999999999998          3.7915382818502237     
  0.14310000000000000          3.8283889735024990     
  0.14339999999999997          3.8022568668348709     
  0.14369999999999999          3.7118938405354491     
  0.14400000000000002          3.5540085260455423     
  0.14429999999999998          3.3242278497021243     
  0.14460000000000001          3.0183508760641864     
  0.14490000000000003          2.6337693058274181     
  0.14520000000000000          2.1710298327900079     
  0.14550000000000002          1.6350157463442996     
  0.14579999999999999          1.0355785023002029     
  0.14610000000000001         0.38721091062241603     
  0.14640000000000003        -0.29080379336392320     
  0.14670000000000000        -0.97535229902336351     
  0.14699999999999996         -1.6414697370095466     
  0.14729999999999999         -2.2644658365727981     
  0.14760000000000001         -2.8215966570596862     
  0.14789999999999998         -3.2937601016657845     
  0.14820000000000000         -3.6677146407529757     