  -1.4999999999999999E-002     0.0000000000000000     
  -1.4700000000000000E-002     0.0000000000000000     
  -1.4400000000000000E-002     0.0000000000000000     
  -1.4100000000000000E-002     0.0000000000000000     
  -1.3800000000000000E-002     0.0000000000000000     
  -1.3500000000000000E-002     0.0000000000000000     
  -1.3200000000000000E-002     0.0000000000000000     
  -1.2899999999999998E-002     0.0000000000000000     
  -1.2600000000000000E-002     0.0000000000000000     
  -1.2299999999999998E-002     0.0000000000000000     
  -1.2000000000000000E-002     0.0000000000000000     
  -1.1699999999999999E-002     0.0000000000000000     
  -1.1399999999999999E-002     0.0000000000000000     
  -1.1099999999999999E-002     0.0000000000000000     
  -1.0799999999999999E-002     0.0000000000000000     
  -1.0499999999999999E-002     0.0000000000000000     
  -1.0199999999999999E-002     0.0000000000000000     
  -9.8999999999999991E-003     0.0000000000000000     
  -9.5999999999999992E-003     0.0000000000000000     
  -9.2999999999999992E-003     0.0000000000000000     
  -8.9999999999999993E-003     0.0000000000000000     
  -8.6999999999999994E-003     0.0000000000000000     
  -8.3999999999999995E-003     0.0000000000000000     
  -8.0999999999999996E-003     0.0000000000000000     
  -7.7999999999999988E-003     0.0000000000000000     
  -7.4999999999999997E-003     0.0000000000000000     
  -7.1999999999999998E-003     0.0000000000000000     
  -6.8999999999999981E-003     0.0000000000000000     
  -6.5999999999999982E-003     0.0000000000000000     
  -6.3000000000000000E-003     0.0000000000000000     
  -6.0000000000000001E-003     0.0000000000000000     
  -5.6999999999999985E-003     0.0000000000000000     
  -5.3999999999999986E-003     0.0000000000000000     
  -5.1000000000000004E-003     0.0000000000000000     
  -4.7999999999999987E-003     0.0000000000000000     
  -4.5000000000000005E-003     0.0000000000000000     
  -4.1999999999999989E-003     0.0000000000000000     
  -3.8999999999999990E-003     0.0000000000000000     
  -3.5999999999999990E-003     0.0000000000000000     
  -3.2999999999999991E-003     0.0000000000000000     
  -2.9999999999999992E-003     0.0000000000000000     
  -2.6999999999999993E-003     0.0000000000000000     
  -2.3999999999999994E-003     0.0000000000000000     
  -2.0999999999999977E-003     0.0000000000000000     
  -1.7999999999999995E-003     0.0000000000000000     
  -1.4999999999999979E-003     0.0000000000000000     
  -1.1999999999999997E-003     0.0000000000000000     
  -8.9999999999999976E-004     0.0000000000000000     
  -5.9999999999999810E-004     0.0000000000000000     
  -2.9999999999999992E-004     0.0000000000000000     
   0.0000000000000000          7.9556967596523565E-045
   3.0000000000000165E-004    -8.4304027861460374E-044
   5.9999999999999984E-004     4.2114406226598520E-038
   9.0000000000000149E-004    -1.5512272501939880E-036
   1.2000000000000031E-003     1.0477252564585279E-035
   1.5000000000000013E-003    -1.3014783215263567E-035
   1.8000000000000030E-003    -1.6597833303184732E-034
   2.1000000000000012E-003     1.0875497747848204E-033
   2.3999999999999994E-003    -3.5074093308738552E-033
   2.7000000000000010E-003     4.0352173507193593E-033
   2.9999999999999992E-003     1.0577118809246605E-032
   3.3000000000000008E-003    -7.2467325312923882E-032
   3.6000000000000025E-003     2.2095876347090813E-031
   3.9000000000000007E-003    -4.3490383658783697E-031
   4.2000000000000023E-003     5.9211596896905133E-031
   4.5000000000000005E-003    -4.1427829658007665E-031
   4.7999999999999987E-003    -3.0188148234921268E-030
   5.1000000000000004E-003     1.5516337800508928E-029
   5.4000000000000020E-003     7.5262870711676564E-030
   5.7000000000000037E-003    -2.0614852310039585E-028
   5.9999999999999984E-003    -6.4707285516337404E-029
   6.3000000000000000E-003     5.1699380179032516E-027
   6.6000000000000017E-003    -2.0935336123634850E-026
   6.9000000000000034E-003     2.5969101820590472E-027
   7.2000000000000015E-003     3.9996647926292599E-025
   7.5000000000000032E-003    -2.3401130810737559E-024
   7.8000000000000014E-003     5.4155319817862595E-024
   8.0999999999999996E-003     1.4445702241641732E-023
   8.4000000000000012E-003    -1.8023211145416043E-022
   8.7000000000000029E-003     7.8046739800452283E-022
   9.0000000000000011E-003    -1.7305768860550693E-021
   9.2999999999999992E-003    -3.1349090178432295E-022
   9.6000000000000009E-003     1.8592214056309414E-020
   9.8999999999999991E-003    -7.5866040390983457E-020
   1.0200000000000001E-002     1.2895119434219483E-019
   1.0500000000000002E-002     3.5371791910707186E-019
   1.0800000000000004E-002    -4.1319489756921359E-018
   1.1099999999999999E-002     2.2779655008897609E-017
   1.1400000000000000E-002    -1.0165957477852980E-016
   1.1700000000000002E-002     4.1638058634532863E-016
   1.2000000000000004E-002    -1.6404772329564094E-015
   1.2300000000000002E-002     6.2510858904027730E-015
   1.2600000000000000E-002    -2.2495114775334662E-014
   1.2900000000000002E-002     7.2887052429878536E-014
   1.3200000000000000E-002    -1.9514440162470728E-013
   1.3500000000000002E-002     3.4104742453320444E-013
   1.3800000000000003E-002     1.8067429303271044E-013
   1.4100000000000001E-002    -4.3283643518710838E-012
   1.4400000000000000E-002     1.8774337894364861E-011
   1.4700000000000001E-002    -4.3893608097681078E-011
   1.4999999999999999E-002     2.4349902290661694E-011
   1.5300000000000001E-002     2.2109248619056280E-010
   1.5600000000000003E-002    -7.9602591306471313E-010
   1.5899999999999997E-002     7.2717553506715014E-010
   1.6199999999999999E-002     2.6772186572061030E-009
   1.6500000000000001E-002    -7.8942974405378470E-009
   1.6800000000000002E-002    -1.5951912682179583E-009
   1.7100000000000004E-002     3.2079115847150777E-008
   1.7400000000000006E-002    -1.2497837072296168E-008
   1.7700000000000000E-002    -1.1182239440223613E-007
   1.8000000000000002E-002     1.5813477741099930E-008
   1.8300000000000004E-002     3.2448776616149801E-007
   1.8600000000000005E-002     9.9856403185338800E-008
   1.8900000000000000E-002    -7.8834835930449672E-007
   1.9200000000000002E-002    -6.2507826980099682E-007
   1.9500000000000003E-002     2.3535875073708237E-006
   1.9799999999999998E-002     7.1642626016324663E-006
   2.0100000000000000E-002     1.1307185845461686E-005
   2.0400000000000001E-002     1.5022278698049920E-005
   2.0700000000000003E-002     2.2454099406718055E-005
   2.0999999999999998E-002     3.7447212747955472E-005
   2.1299999999999999E-002     6.0210280258034886E-005
   2.1600000000000001E-002     9.0912472913871000E-005
   2.1900000000000003E-002     1.3499076057669983E-004
   2.2200000000000004E-002     2.0225085872233351E-004
   2.2500000000000006E-002     3.0206433103213530E-004
   2.2800000000000001E-002     4.4278099439693192E-004
   2.3100000000000002E-002     6.3730237315036680E-004
   2.3400000000000004E-002     9.0608473319673621E-004
   2.3699999999999999E-002     1.2725184725282507E-003
   2.4000000000000000E-002     1.7594908436952318E-003
   2.4300000000000002E-002     2.3918886491070121E-003
   2.4599999999999997E-002     3.1988572790825577E-003
   2.4900000000000005E-002     4.2100202415057825E-003
   2.5200000000000000E-002     5.4469334642346379E-003
   2.5499999999999995E-002     6.9178899123829478E-003
   2.5800000000000003E-002     8.6169519421184539E-003
   2.6099999999999998E-002     1.0516639487376019E-002
   2.6400000000000007E-002     1.2555256158494336E-002
   2.6700000000000002E-002     1.4626630259023681E-002
   2.6999999999999996E-002     1.6577236065752322E-002
   2.7300000000000005E-002     1.8200102978126347E-002
   2.7600000000000000E-002     1.9233371967626464E-002
   2.7900000000000008E-002     1.9355714403491341E-002
   2.8200000000000003E-002     1.8201379428554345E-002
   2.8499999999999998E-002     1.5383667009652248E-002
   2.8800000000000006E-002     1.0516827058519203E-002
   2.9100000000000001E-002     3.2579512496057248E-003
   2.9400000000000003E-002    -6.6517190973990649E-003
   2.9700000000000004E-002    -1.9328353461399043E-002
   3.0000000000000006E-002    -3.4690798292387963E-002
   3.0300000000000001E-002    -5.2427482457889821E-002
   3.0600000000000002E-002    -7.1948562162973434E-002
   3.0900000000000004E-002    -9.2358093963435167E-002
   3.1199999999999999E-002   -0.11245959661644422     
   3.1500000000000007E-002   -0.13077355621613854     
   3.1800000000000002E-002   -0.14560486139217527     
   3.2099999999999997E-002   -0.15511996896747399     
   3.2400000000000005E-002   -0.15744756130506452     
   3.2700000000000000E-002   -0.15082195507734081     
   3.3000000000000002E-002   -0.13372488581170675     
   3.3300000000000003E-002   -0.10502411105176163     
   3.3599999999999998E-002    -6.4137837211644733E-002
   3.3900000000000000E-002    -1.1085250369257964E-002
   3.4200000000000001E-002     5.3391760800526093E-002
   3.4500000000000003E-002    0.12776700177539230     
   3.4799999999999998E-002    0.20978534672081212     
   3.5099999999999999E-002    0.29642187487138455     
   3.5400000000000001E-002    0.38399471795197432     
   3.5699999999999996E-002    0.46829326973589980     
   3.6000000000000004E-002    0.54467349390237085     
   3.6299999999999999E-002    0.60820006621521994     
   3.6600000000000008E-002    0.65392201617592793     
   3.6900000000000002E-002    0.67693692129218996     
   3.7199999999999997E-002    0.67270535133565368     
   3.7500000000000006E-002    0.63736176618213181     
   3.7800000000000000E-002    0.56785488478823298     
   3.8100000000000009E-002    0.46234042017158838     
   3.8400000000000004E-002    0.32047987749723622     
   3.8699999999999998E-002    0.14364347811715122     
   3.9000000000000007E-002    -6.4680125608491512E-002
   3.9300000000000002E-002   -0.29894526538958827     
   3.9600000000000003E-002   -0.55147706088970339     
   3.9900000000000005E-002   -0.81241290293466983     
   4.0200000000000000E-002    -1.0702755297533808     
   4.0500000000000001E-002    -1.3123594364600482     
   4.0800000000000003E-002    -1.5253907282985688     
   4.1100000000000005E-002    -1.6964806160824806     
   4.1399999999999999E-002    -1.8138520564987337     
   4.1700000000000008E-002    -1.8678531502458069     
   4.2000000000000003E-002    -1.8518501387431254     
   4.2299999999999997E-002    -1.7627032877464359     
   4.2600000000000006E-002    -1.6013554235079608     
   4.2900000000000001E-002    -1.3728364627443121     
   4.3200000000000002E-002    -1.0859194939004415     
   4.3500000000000004E-002   -0.75280058090312918     
   4.3799999999999999E-002   -0.38812127683228159     
   4.4100000000000000E-002    -7.7558575939857509E-003
   4.4400000000000002E-002    0.37202131224139928     
   4.4700000000000004E-002    0.73592799109797979     
   4.4999999999999998E-002     1.0705790414873468     
   4.5300000000000000E-002     1.3652263751356706     
   4.5600000000000002E-002     1.6125607340567545     
   4.5899999999999996E-002     1.8085601160739841     
   4.6200000000000005E-002     1.9524092488979168     
   4.6500000000000000E-002     2.0463580886258512     
   4.6799999999999994E-002     2.0945906429464629     
   4.7100000000000003E-002     2.1026584884778416     
   4.7399999999999998E-002     2.0767388121546992     
   4.7700000000000006E-002     2.0224144234697254     
   4.8000000000000001E-002     1.9443067089574253     
   4.8300000000000010E-002     1.8455110570299571     
   4.8600000000000004E-002     1.7272759466147982     
   4.8899999999999999E-002     1.5892184774611011     
   4.9200000000000008E-002     1.4292394932277619     
   4.9500000000000002E-002     1.2442967729059859     
   4.9800000000000011E-002     1.0312692980402161     
   5.0100000000000006E-002    0.78723095741903426     
   5.0400000000000000E-002    0.51039182359946045     
   5.0700000000000009E-002    0.20112719718974464     
   5.1000000000000004E-002   -0.13773487513720215     
   5.1299999999999998E-002   -0.50043201013482996     
   5.1600000000000007E-002   -0.87817054087768798     
   5.1900000000000002E-002    -1.2589931349428958     
   5.2200000000000010E-002    -1.6282988599337782     
   5.2500000000000005E-002    -1.9696788553111149     
   5.2800000000000000E-002    -2.2655245978712308     
   5.3099999999999994E-002    -2.4982015768677126     
   5.3400000000000003E-002    -2.6515452512708197     
   5.3699999999999998E-002    -2.7116229164395196     
   5.4000000000000006E-002    -2.6682607749947387     
   5.4300000000000001E-002    -2.5164987669297845     
   5.4599999999999996E-002    -2.2566649563964258     
   5.4900000000000004E-002    -1.8952104733779722     
   5.5199999999999999E-002    -1.4451672773524853     
   5.5499999999999994E-002   -0.92551140091436412     
   5.5800000000000002E-002   -0.36043085567626992     
   5.6099999999999997E-002    0.22207640296842071     
   5.6400000000000006E-002    0.79141079619788435     
   5.6700000000000000E-002     1.3160596916142893     
   5.6999999999999995E-002     1.7662012319215987     
   5.7300000000000004E-002     2.1154603622495456     
   5.7599999999999998E-002     2.3424675066336547     
   5.7900000000000007E-002     2.4326452767332940     
   5.8200000000000002E-002     2.3792528643967712     
   5.8499999999999996E-002     2.1841692466200078     
   5.8800000000000005E-002     1.8579303787845651     
   5.9100000000000000E-002     1.4187892296113362     
   5.9400000000000008E-002    0.89184144049839154     
   5.9700000000000003E-002    0.30764771309894728     
   6.0000000000000012E-002   -0.29987178419565858     
   6.0300000000000006E-002   -0.89553624488839101     
   6.0600000000000001E-002    -1.4454477927739657     
   6.0900000000000010E-002    -1.9188148775239569     
   6.1200000000000004E-002    -2.2895991510507012     
   6.1500000000000013E-002    -2.5386025537665042     
   6.1800000000000008E-002    -2.6544720700879862     
   6.2100000000000002E-002    -2.6340846552166859     
   6.2399999999999997E-002    -2.4827057834990320     
   6.2700000000000006E-002    -2.2133669376180123     
   6.3000000000000000E-002    -1.8460446140950855     
   6.3300000000000009E-002    -1.4062454282377375     
   6.3600000000000004E-002   -0.92311271311003362     
   6.3899999999999998E-002   -0.42718127226688191     
   6.4199999999999993E-002     5.1652717229691635E-002
   6.4500000000000002E-002    0.48605205480570018     
   6.4800000000000010E-002    0.85344196576957709     
   6.5100000000000005E-002     1.1375804006244101     
   6.5400000000000000E-002     1.3296633958338071     
   6.5700000000000008E-002     1.4289702120315133     
   6.5999999999999989E-002     1.4425384888227704     
   6.6299999999999998E-002     1.3847201901297064     
   6.6600000000000006E-002     1.2757580069410286     
   6.6900000000000001E-002     1.1397098043953537     
   6.7199999999999996E-002     1.0023853473022108     
   6.7500000000000004E-002    0.88882466619112876     
   6.7800000000000013E-002    0.82074685925083268     
   6.8099999999999994E-002    0.81420309981022931     
   6.8400000000000002E-002    0.87782926665959893     
   6.8700000000000011E-002     1.0120384201541235     
   6.8999999999999992E-002     1.2081300705232940     
   6.9300000000000000E-002     1.4488275733254503     
   6.9600000000000009E-002     1.7100448109632140     
   6.9900000000000004E-002     1.9623271947264476     
   7.0199999999999999E-002     2.1734575798122626     
   7.0500000000000007E-002     2.3117889992978786     
   7.0800000000000016E-002     2.3490748119743499     
   7.1099999999999997E-002     2.2630777168727492     
   7.1400000000000005E-002     2.0400421538919202     
   7.1700000000000000E-002     1.6765172522294853     
   7.1999999999999995E-002     1.1801450421845463     
   7.2300000000000003E-002    0.56945583243057307     
   7.2600000000000012E-002   -0.12751747863751303     
   7.2900000000000006E-002   -0.87487423918588691     
   7.3200000000000001E-002    -1.6311259812794447     
   7.3499999999999996E-002    -2.3529159293221200     
   7.3800000000000004E-002    -2.9981204680772371     
   7.4099999999999999E-002    -3.5284248979227466     
   7.4400000000000008E-002    -3.9124578641747925     
   7.4700000000000003E-002    -4.1278261403476950     
   7.5000000000000011E-002    -4.1624049495265343     
   7.5299999999999992E-002    -4.0148801282023188     
   7.5600000000000001E-002    -3.6939775574835858     
   7.5900000000000009E-002    -3.2177169129545500     
   7.6200000000000004E-002    -2.6121139521788685     
   7.6499999999999999E-002    -1.9084648081871438     
   7.6800000000000007E-002    -1.1413139479888745     
   7.7099999999999988E-002   -0.34690612060444981     
   7.7399999999999997E-002    0.43900321941362386     
   7.7700000000000005E-002     1.1828014043401012     
   7.8000000000000014E-002     1.8539411138996826     
   7.8299999999999995E-002     2.4259394683147195     
   7.8600000000000003E-002     2.8767177152505177     
   7.8900000000000012E-002     3.1886312109932664     
   7.9199999999999993E-002     3.3497089583120712     
   7.9500000000000001E-002     3.3532468647479545     
   7.9800000000000010E-002     3.1979617609633895     
   8.0100000000000018E-002     2.8888230047079806     
   8.0399999999999999E-002     2.4376103803124498     
   8.0700000000000008E-002     1.8629224433575524     
   8.1000000000000003E-002     1.1899043659762036     
   8.1299999999999997E-002    0.44996791436459760     
   8.1600000000000006E-002   -0.31956898083874147     
   8.1900000000000014E-002    -1.0777582276679056     
   8.2199999999999995E-002    -1.7823887114471271     
   8.2500000000000004E-002    -2.3917921965987752     
   8.2799999999999999E-002    -2.8686398442737895     
   8.3100000000000007E-002    -3.1824773767579062     
   8.3400000000000002E-002    -3.3121673180789681     
   8.3700000000000011E-002    -3.2488600470133639     
   8.4000000000000005E-002    -2.9964823169175703     
   8.4300000000000000E-002    -2.5718550344822897     
   8.4599999999999995E-002    -2.0044672387655287     
   8.4900000000000003E-002    -1.3336987635117734     
   8.5199999999999998E-002   -0.60627243653269935     
   8.5500000000000007E-002    0.12760724317267155     
   8.5800000000000001E-002    0.81819902375221165     
   8.6100000000000010E-002     1.4200125073574539     
   8.6399999999999991E-002     1.8955852069264336     
   8.6699999999999999E-002     2.2177838368457112     
   8.7000000000000008E-002     2.3719781985162185     
   8.7300000000000003E-002     2.3564788572655404     
   8.7599999999999997E-002     2.1822370925785504     
   8.7900000000000006E-002     1.8712393876628042     
   8.8200000000000014E-002     1.4542109816088469     
   8.8499999999999995E-002    0.96810633528106271     
   8.8800000000000004E-002    0.45305111506188411     
   8.9100000000000013E-002    -5.1039535936126153E-002
   8.9399999999999993E-002   -0.50665051499689162     
   8.9700000000000002E-002   -0.88109922518474459     
   9.0000000000000011E-002    -1.1481855510301016     
   9.0299999999999991E-002    -1.2895476258793073     
   9.0600000000000000E-002    -1.2948175191829501     
   9.0900000000000009E-002    -1.1616028188961161     
   9.1200000000000017E-002   -0.89567665098646232     
   9.1499999999999998E-002   -0.50970774309599687     
   9.1800000000000007E-002    -2.2919243857829303E-002
   9.2100000000000001E-002    0.54001334825641778     
   9.2399999999999996E-002     1.1502551659370182     
   9.2700000000000005E-002     1.7753951078293904     
   9.3000000000000013E-002     2.3809394301678863     
   9.3300000000000008E-002     2.9317755138745816     
   9.3600000000000003E-002     3.3938366819434638     
   9.3899999999999997E-002     3.7356140116688175     
   9.4200000000000006E-002     3.9298216884231882     
   9.4500000000000001E-002     3.9557456671022204     
   9.4800000000000009E-002     3.8005883529747360     
   9.5100000000000004E-002     3.4611091598186587     
   9.5399999999999999E-002     2.9446866648508867     
   9.5699999999999993E-002     2.2695434375557308     
   9.6000000000000002E-002     1.4645798619171186     
   9.6300000000000011E-002    0.56798332157275222     
   9.6600000000000005E-002   -0.37434455789620175     
   9.6900000000000000E-002    -1.3117725221021634     
   9.7200000000000009E-002    -2.1926674219930886     
   9.7499999999999989E-002    -2.9672340771286136     
   9.7799999999999998E-002    -3.5919515597789724     
   9.8100000000000007E-002    -4.0329174627015920     
   9.8400000000000015E-002    -4.2689990775772371     
   9.8699999999999996E-002    -4.2937478960524817     
   9.9000000000000005E-002    -4.1162858118472112     
   9.9300000000000013E-002    -3.7620890409789158     
   9.9599999999999994E-002    -3.2707252911981421     
   9.9900000000000003E-002    -2.6925423665616552     
  0.10020000000000001         -2.0859892961336959     
  0.10049999999999999         -1.5122612144760696     
  0.10080000000000000         -1.0296886572002555     
  0.10110000000000001        -0.68872266471913723     
  0.10140000000000000        -0.52681027287442139     
  0.10170000000000000        -0.56448808401179096     
  0.10200000000000001        -0.80213917821617209     
  0.10230000000000002         -1.2192258823274975     
  0.10260000000000000         -1.7747675010223147     
  0.10290000000000001         -2.4097671197693846     
  0.10320000000000000         -3.0524065071553497     
  0.10350000000000001         -3.6233000258172412     
  0.10380000000000000         -4.0424045989358337     
  0.10410000000000001         -4.2367352929345570     
  0.10440000000000001         -4.1475176363156825     
  0.10470000000000000         -3.7363080631837491     
  0.10500000000000000         -2.9893610262970021     
  0.10530000000000000         -1.9203634199518824     
  0.10560000000000000        -0.57100142008820653     
  0.10590000000000001         0.99170724055291382     
  0.10620000000000000          2.6793393708631590     
  0.10650000000000001          4.3894910330652817     
  0.10679999999999999          6.0126046589479740     
  0.10710000000000000          7.4406222733295113     
  0.10740000000000001          8.5761126934363574     
  0.10770000000000000          9.3388204105381618     
  0.10800000000000000          9.6726989381232382     
  0.10830000000000001          9.5500716929462932     
  0.10859999999999999          8.9726095113603321     
  0.10890000000000000          7.9722309177968818     
  0.10920000000000001          6.6077418535922945     
  0.10950000000000001          4.9595995283167857     
  0.10979999999999999          3.1244228319015050     
  0.11009999999999999          1.2079775832825892     
  0.11040000000000001        -0.68257451697092897     
  0.11070000000000001         -2.4462787573940905     
  0.11100000000000000         -3.9936499095743838     
  0.11130000000000000         -5.2525643856857540     
  0.11160000000000002         -6.1713833435540613     
  0.11190000000000001         -6.7211932843002131     
  0.11220000000000001         -6.8958024766083827     
  0.11250000000000000         -6.7102537016232882     
  0.11280000000000000         -6.1985931319240581     
  0.11309999999999999         -5.4105315175938280     
  0.11340000000000001         -4.4068379394883959     
  0.11369999999999998         -3.2556085584440639     
  0.11400000000000000         -2.0270638450788003     
  0.11430000000000000        -0.79078876520562968     
  0.11460000000000002         0.38823921387245142     
  0.11489999999999999          1.4540685557279023     
  0.11520000000000001          2.3590736588225441     
  0.11550000000000001          3.0673640029663187     
  0.11580000000000000          3.5554163761190241     
  0.11609999999999999          3.8113637313348594     
  0.11640000000000002          3.8354390029756367     
  0.11670000000000001          3.6377513767052307     
  0.11700000000000001          3.2373085351018309     
  0.11730000000000000          2.6615987093551108     
  0.11760000000000000          1.9427056491172077     
  0.11789999999999999          1.1167253313371863     
  0.11820000000000001         0.22167495469143222     
  0.11850000000000001        -0.70467140905825720     
  0.11880000000000000         -1.6253588645723565     
  0.11910000000000000         -2.5059626737941145     
  0.11940000000000002         -3.3148127420998712     
  0.11970000000000001         -4.0242343933875597     
  0.12000000000000001         -4.6102906396684871     
  0.12030000000000000         -5.0532795220504632     
  0.12060000000000000         -5.3370963416561734     
  0.12089999999999999         -5.4498797736228957     
  0.12119999999999999         -5.3840681339246341     
  0.12150000000000001         -5.1365395697139995     
  0.12180000000000001         -4.7089448915448902     
  0.12210000000000000         -4.1082349553603157     
  0.12239999999999999         -3.3469913488630323     
  0.12270000000000002         -2.4442320077443327     
  0.12300000000000001         -1.4246295608951678     
  0.12330000000000001        -0.31823920480619905     
  0.12360000000000000         0.83903509898738304     
  0.12390000000000000          2.0084989971880827     
  0.12419999999999999          3.1495639011166436     
  0.12450000000000001          4.2225638721672087     
  0.12480000000000001          5.1900855509027473     
  0.12509999999999999          6.0187598724949254     
  0.12540000000000001          6.6830889231642594     
  0.12570000000000003          7.1650730537669878     
  0.12600000000000000          7.4543620371334995     
  0.12630000000000002          7.5490494788260705     
  0.12659999999999999          7.4538174437232776     
  0.12690000000000001          7.1789322367722903     
  0.12719999999999998          6.7383051062486636     
  0.12750000000000000          6.1471390526736771     
  0.12780000000000002          5.4207276756541622     
  0.12809999999999999          4.5731968007274935     
  0.12840000000000001          3.6192315830990491     
  0.12869999999999998          2.5729402050715171     
  0.12900000000000000          1.4488554726602063     
  0.12930000000000003         0.26579534817562334     
  0.12959999999999999        -0.95179195170897424     
  0.12990000000000002         -2.1733395550975523     
  0.13019999999999998         -3.3604173073580093     
  0.13050000000000000         -4.4678861341234839     
  0.13080000000000003         -5.4456249666656493     
  0.13109999999999999         -6.2412358394077971     
  0.13140000000000002         -6.8052020756179354     
  0.13169999999999998         -7.0964999451608080     
  0.13200000000000001         -7.0864801195363443     
  0.13229999999999997         -6.7638201023331792     
  0.13260000000000000         -6.1380389958890200     
  0.13290000000000002         -5.2413099589310974     
  0.13319999999999999         -4.1287591832111801     
  0.13350000000000001         -2.8722953833820255     
  0.13380000000000003         -1.5577051422257038     
  0.13410000000000000        -0.27973415624101944     
  0.13440000000000002         0.86855922595142876     
  0.13469999999999999          1.8030664127573370     
  0.13500000000000001          2.4549556029977206     
  0.13529999999999998          2.7773246769556992     
  0.13560000000000000          2.7486636309125276     
  0.13590000000000002          2.3760167817339282     
  0.13619999999999999          1.6930973525419850     
  0.13650000000000001         0.75753105648900143     
  0.13680000000000003        -0.35247720431219970     
  0.13710000000000000         -1.5470111684870529     
  0.13740000000000002         -2.7308243100543517     
  0.13769999999999999         -3.8077405694347606     
  0.13800000000000001         -4.6915861719678800     
  0.13829999999999998         -5.3125259300231731     
  0.13860000000000000         -5.6178943710111700     
  0.13890000000000002         -5.5787403262119728     
  0.13919999999999999         -5.1911036630536511     
  0.13950000000000001         -4.4741856610997459     
  0.13979999999999998         -3.4699994893579040     
  0.14010000000000000         -2.2383674703413492     
  0.14040000000000002        -0.85312605214169901     
  0.14069999999999999         0.60205772367875765     
  0.14100000000000001          2.0441290734393016     
  0.14130000000000004          3.3912679838094197     
  0.14160000000000000          4.5702609947429718     
  0.14189999999999997          5.5251503096638217     
  0.14219999999999999          6.2146487438369915     
  0.14250000000000002          6.6175470564574823     
  0.14279999999999998          6.7346587311830639     
  0.14310000000000000          6.5847253767849709     
  0.14339999999999997          6.2051968308948693     
  0.14369999999999999          5.6459636135292390     
  0.14400000000000002          4.9657224746221393     
  0.14429999999999998          4.2292135974199043     
  0.14460000000000001          3.4972973804222489     
  0.14490000000000003          2.8247278457644840     
  0.14520000000000000          2.2580116388278841     
  0.14550000000000002          1.8266320803521645     
  0.14579999999999999          1.5448984587502312     
  0.14610000000000001          1.4123488381235829     
  0.14640000000000003          1.4102259943587334     
  0.14670000000000000          1.5075753260904898     
  0.14699999999999996          1.6634935010267293     
  0.14729999999999999          1.8299764851271658     
  0.14760000000000001          1.9587797978291368     
  0.14789999999999998          2.0036963650109114     
  0.14820000000000000          1.9255306456099663     