  -1.4999999999999999E-002     0.0000000000000000     
  -1.4700000000000000E-002     0.0000000000000000     
  -1.4400000000000000E-002     0.0000000000000000     
  -1.4100000000000000E-002     0.0000000000000000     
  -1.3800000000000000E-002     0.0000000000000000     
  -1.3500000000000000E-002     0.0000000000000000     
  -1.3200000000000000E-002     0.0000000000000000     
  -1.2899999999999998E-002     0.0000000000000000     
  -1.2600000000000000E-002     0.0000000000000000     
  -1.2299999999999998E-002     0.0000000000000000     
  -1.2000000000000000E-002     0.0000000000000000     
  -1.1699999999999999E-002     0.0000000000000000     
  -1.1399999999999999E-002     0.0000000000000000     
  -1.1099999999999999E-002     0.0000000000000000     
  -1.0799999999999999E-002     0.0000000000000000     
  -1.0499999999999999E-002     0.0000000000000000     
  -1.0199999999999999E-002     0.0000000000000000     
  -9.8999999999999991E-003     0.0000000000000000     
  -9.5999999999999992E-003     0.0000000000000000     
  -9.2999999999999992E-003     0.0000000000000000     
  -8.9999999999999993E-003     0.0000000000000000     
  -8.6999999999999994E-003     0.0000000000000000     
  -8.3999999999999995E-003     0.0000000000000000     
  -8.0999999999999996E-003     0.0000000000000000     
  -7.7999999999999988E-003     0.0000000000000000     
  -7.4999999999999997E-003     0.0000000000000000     
  -7.1999999999999998E-003     0.0000000000000000     
  -6.8999999999999981E-003     0.0000000000000000     
  -6.5999999999999982E-003     0.0000000000000000     
  -6.3000000000000000E-003     0.0000000000000000     
  -6.0000000000000001E-003     0.0000000000000000     
  -5.6999999999999985E-003     0.0000000000000000     
  -5.3999999999999986E-003     0.0000000000000000     
  -5.1000000000000004E-003     0.0000000000000000     
  -4.7999999999999987E-003     0.0000000000000000     
  -4.5000000000000005E-003     0.0000000000000000     
  -4.1999999999999989E-003     0.0000000000000000     
  -3.8999999999999990E-003     0.0000000000000000     
  -3.5999999999999990E-003     0.0000000000000000     
  -3.2999999999999991E-003     0.0000000000000000     
  -2.9999999999999992E-003     0.0000000000000000     
  -2.6999999999999993E-003     0.0000000000000000     
  -2.3999999999999994E-003     0.0000000000000000     
  -2.0999999999999977E-003     0.0000000000000000     
  -1.7999999999999995E-003     0.0000000000000000     
  -1.4999999999999979E-003     0.0000000000000000     
  -1.1999999999999997E-003     0.0000000000000000     
  -8.9999999999999976E-004     0.0000000000000000     
  -5.9999999999999810E-004     0.0000000000000000     
  -2.9999999999999992E-004     0.0000000000000000     
   0.0000000000000000          0.0000000000000000     
   3.0000000000000165E-004     0.0000000000000000     
   5.9999999999999984E-004     0.0000000000000000     
   9.0000000000000149E-004     0.0000000000000000     
   1.2000000000000031E-003     0.0000000000000000     
   1.5000000000000013E-003     0.0000000000000000     
   1.8000000000000030E-003     0.0000000000000000     
   2.1000000000000012E-003     0.0000000000000000     
   2.3999999999999994E-003     0.0000000000000000     
   2.7000000000000010E-003     4.8535765039770004E-042
   2.9999999999999992E-003     3.6595417242176810E-041
   3.3000000000000008E-003    -1.4955631462519474E-039
   3.6000000000000025E-003     5.1686456571795066E-037
   3.9000000000000007E-003     2.5201704595674918E-036
   4.2000000000000023E-003    -4.1365435534872012E-035
   4.5000000000000005E-003    -1.6540530184943844E-034
   4.7999999999999987E-003     3.6970674729728473E-034
   5.1000000000000004E-003     8.4086145084043781E-033
   5.4000000000000020E-003     1.0424132507067765E-032
   5.7000000000000037E-003    -1.7152736616330772E-031
   5.9999999999999984E-003    -4.1609137032098924E-031
   6.3000000000000000E-003     3.2232138660577581E-030
   6.6000000000000017E-003     5.9346308960686136E-030
   6.9000000000000034E-003    -5.9845787923933379E-029
   7.2000000000000015E-003     3.7391964845086366E-029
   7.5000000000000032E-003     7.2534673295243191E-028
   7.8000000000000014E-003    -3.4828356008402861E-027
   8.0999999999999996E-003     5.4961691807295426E-027
   8.4000000000000012E-003     3.7976356001630840E-026
   8.7000000000000029E-003    -3.2593457019462557E-025
   9.0000000000000011E-003     9.7542918225274546E-025
   9.2999999999999992E-003     8.8221413077567050E-025
   9.6000000000000009E-003    -1.9598225039075039E-023
   9.8999999999999991E-003     7.8136089444374458E-023
   1.0200000000000001E-002    -9.8812265741030353E-023
   1.0500000000000002E-002    -5.0542154238017721E-022
   1.0800000000000004E-002     3.4270074767571800E-021
   1.1099999999999999E-002    -1.0255374572734639E-020
   1.1400000000000000E-002     1.2797182797043856E-020
   1.1700000000000002E-002     3.6094263915435750E-020
   1.2000000000000004E-002    -2.6676262822107358E-019
   1.2300000000000002E-002     8.5001533003754642E-019
   1.2600000000000000E-002    -1.4039001326733666E-018
   1.2900000000000002E-002    -1.8948178879814647E-018
   1.3200000000000000E-002     2.8551692249028550E-017
   1.3500000000000002E-002    -1.6801430588643349E-016
   1.3800000000000003E-002     8.3625253775163614E-016
   1.4100000000000001E-002    -3.9932050835539282E-015
   1.4400000000000000E-002     1.8551502990539931E-014
   1.4700000000000001E-002    -8.1542623846807775E-014
   1.4999999999999999E-002     3.2550671353927581E-013
   1.5300000000000001E-002    -1.1213717216378088E-012
   1.5600000000000003E-002     3.0601932417979581E-012
   1.5899999999999997E-002    -5.1178571860401411E-012
   1.6199999999999999E-002    -4.4092181934233877E-012
   1.6500000000000001E-002     7.0014256051850059E-011
   1.6800000000000002E-002    -2.7056551983740289E-010
   1.7100000000000004E-002     5.1912404434995194E-010
   1.7400000000000006E-002     1.0755078284739267E-010
   1.7700000000000000E-002    -3.6602456430054268E-009
   1.8000000000000002E-002     9.0012117924440231E-009
   1.8300000000000004E-002    -6.3691367950921129E-010
   1.8600000000000005E-002    -4.1926524082609266E-008
   1.8900000000000000E-002     6.3900062219509630E-008
   1.9200000000000002E-002     9.3547027682486318E-008
   1.9500000000000003E-002    -3.0271012344185692E-007
   1.9799999999999998E-002    -2.0487015198919655E-007
   2.0100000000000000E-002     8.6318810815017736E-007
   2.0400000000000001E-002     6.9294078899590408E-007
   2.0700000000000003E-002    -2.0814730709710511E-006
   2.0999999999999998E-002    -3.3519566751094611E-006
   2.1299999999999999E-002     4.6676507952565711E-006
   2.1600000000000001E-002     2.6690363140901105E-005
   2.1900000000000003E-002     6.1394775521279087E-005
   2.2200000000000004E-002     1.0687920179820529E-004
   2.2500000000000006E-002     1.6695641611367320E-004
   2.2800000000000001E-002     2.5387711265114276E-004
   2.3100000000000002E-002     3.8926880394940869E-004
   2.3400000000000004E-002     6.0140165356761918E-004
   2.3699999999999999E-002     9.2502322770863067E-004
   2.4000000000000000E-002     1.4076659097996868E-003
   2.4300000000000002E-002     2.1143083457471645E-003
   2.4599999999999997E-002     3.1321931290864582E-003
   2.4900000000000005E-002     4.5782214946548157E-003
   2.5200000000000000E-002     6.6030997179365829E-003
   2.5499999999999995E-002     9.3926105948921226E-003
   2.5800000000000003E-002     1.3167911333952299E-002
   2.6099999999999998E-002     1.8186906846574469E-002
   2.6400000000000007E-002     2.4740476986133908E-002
   2.6700000000000002E-002     3.3134903725431930E-002
   2.6999999999999996E-002     4.3666341684195344E-002
   2.7300000000000005E-002     5.6591272648049210E-002
   2.7600000000000000E-002     7.2081423296924227E-002
   2.7900000000000008E-002     9.0162850921997328E-002
   2.8200000000000003E-002    0.11064190991892145     
   2.8499999999999998E-002    0.13302428217014650     
   2.8800000000000006E-002    0.15644057790161023     
   2.9100000000000001E-002    0.17956567955146746     
   2.9400000000000003E-002    0.20056820035921846     
   2.9700000000000004E-002    0.21708302457437922     
   3.0000000000000006E-002    0.22624354258203297     
   3.0300000000000001E-002    0.22477142370546263     
   3.0600000000000002E-002    0.20912457398705347     
   3.0900000000000004E-002    0.17575867667022155     
   3.1199999999999999E-002    0.12142867847623701     
   3.1500000000000007E-002     4.3596521506367877E-002
   3.1800000000000002E-002    -5.9154821460848238E-002
   3.2099999999999997E-002   -0.18667319451356196     
   3.2400000000000005E-002   -0.33685705658820531     
   3.2700000000000000E-002   -0.50535520094398401     
   3.3000000000000002E-002   -0.68540310058093279     
   3.3300000000000003E-002   -0.86789836925348329     
   3.3599999999999998E-002    -1.0416729995096738     
   3.3900000000000000E-002    -1.1940431553135820     
   3.4200000000000001E-002    -1.3115881320560638     
   3.4500000000000003E-002    -1.3811384758799479     
   3.4799999999999998E-002    -1.3909195523288076     
   3.5099999999999999E-002    -1.3316750837511402     
   3.5400000000000001E-002    -1.1977672520344562     
   3.5699999999999996E-002   -0.98805759720078279     
   3.6000000000000004E-002   -0.70650619731872022     
   3.6299999999999999E-002   -0.36236653969113281     
   3.6600000000000008E-002     3.0098870833007517E-002
   3.6900000000000002E-002    0.45231230695303559     
   3.7199999999999997E-002    0.88250121444424845     
   3.7500000000000006E-002     1.2972364325901637     
   3.7800000000000000E-002     1.6730220542398397     
   3.8100000000000009E-002     1.9880663092253363     
   3.8400000000000004E-002     2.2239326925798042     
   3.8699999999999998E-002     2.3668637301076307     
   3.9000000000000007E-002     2.4088455111006839     
   3.9300000000000002E-002     2.3480832612239793     
   3.9600000000000003E-002     2.1890503658352949     
   3.9900000000000005E-002     1.9420437450899111     
   4.0200000000000000E-002     1.6221595274238587     
   4.0500000000000001E-002     1.2482403119214533     
   4.0800000000000003E-002    0.84130512570160865     
   4.1100000000000005E-002    0.42303135497431238     
   4.1399999999999999E-002     1.4373008162708888E-002
   4.1700000000000008E-002   -0.36581215940731793     
   4.2000000000000003E-002   -0.70168414417994884     
   4.2299999999999997E-002   -0.98116553176272014     
   4.2600000000000006E-002    -1.1963162487157319     
   4.2900000000000001E-002    -1.3433359515578827     
   4.3200000000000002E-002    -1.4224339895789482     
   4.3500000000000004E-002    -1.4372635657674011     
   4.3799999999999999E-002    -1.3943573301038144     
   4.4100000000000000E-002    -1.3025708105990548     
   4.4400000000000002E-002    -1.1721327769268424     
   4.4700000000000004E-002    -1.0142142876033482     
   4.4999999999999998E-002   -0.84015206649850493     
   4.5300000000000000E-002   -0.66092138680233425     
   4.5600000000000002E-002   -0.48681594066103906     
   4.5899999999999996E-002   -0.32679501089377594     
   4.6200000000000005E-002   -0.18842101111238024     
   4.6500000000000000E-002    -7.7497841536736167E-002
   4.6799999999999994E-002     2.1691086683531440E-003
   4.7100000000000003E-002     4.8697786670760912E-002
   4.7399999999999998E-002     6.2413664460638993E-002
   4.7700000000000006E-002     4.5672235438580115E-002
   4.8000000000000001E-002     2.6771824969695872E-003
   4.8300000000000010E-002    -6.0564424608899166E-002
   4.8600000000000004E-002   -0.13675923809516730     
   4.8899999999999999E-002   -0.21776461822776791     
   4.9200000000000008E-002   -0.29499712660306315     
   4.9500000000000002E-002   -0.36020541061868716     
   4.9800000000000011E-002   -0.40594080870751298     
   5.0100000000000006E-002   -0.42616243982572855     
   5.0400000000000000E-002   -0.41680263490560887     
   5.0700000000000009E-002   -0.37584694070214625     
   5.1000000000000004E-002   -0.30379737640622817     
   5.1299999999999998E-002   -0.20351655257711662     
   5.1600000000000007E-002    -7.9835601525859334E-002
   5.1900000000000002E-002     6.0456292226836517E-002
   5.2200000000000010E-002    0.20955909142288445     
   5.2500000000000005E-002    0.35904544029864988     
   5.2800000000000000E-002    0.50044531875696752     
   5.3099999999999994E-002    0.62608370347959341     
   5.3400000000000003E-002    0.72924286512474878     
   5.3699999999999998E-002    0.80486281507447655     
   5.4000000000000006E-002    0.84949871913745101     
   5.4300000000000001E-002    0.86140991502303899     
   5.4599999999999996E-002    0.84068082761694218     
   5.4900000000000004E-002    0.78867234460300994     
   5.5199999999999999E-002    0.70805520860098903     
   5.5499999999999994E-002    0.60247735107041933     
   5.5800000000000002E-002    0.47617973620414045     
   5.6099999999999997E-002    0.33391648256113315     
   5.6400000000000006E-002    0.18069003042574333     
   5.6700000000000000E-002     2.1723726666954893E-002
   5.6999999999999995E-002   -0.13759522661917942     
   5.7300000000000004E-002   -0.29188023058542456     
   5.7599999999999998E-002   -0.43578303079819414     
   5.7900000000000007E-002   -0.56389242899149650     
   5.8200000000000002E-002   -0.67116723916503851     
   5.8499999999999996E-002   -0.75297473031506512     
   5.8800000000000005E-002   -0.80540074390942418     
   5.9100000000000000E-002   -0.82557664269298126     
   5.9400000000000008E-002   -0.81178411326815303     
   5.9700000000000003E-002   -0.76405949014974206     
   6.0000000000000012E-002   -0.68399238474593760     
   6.0300000000000006E-002   -0.57488946858545509     
   6.0600000000000001E-002   -0.44187627214514569     
   6.0900000000000010E-002   -0.29119554550461058     
   6.1200000000000004E-002   -0.13020719807524578     
   6.1500000000000013E-002     3.3344011694270398E-002
   6.1800000000000008E-002    0.19198436686234524     
   6.2100000000000002E-002    0.33898828646993173     
   6.2399999999999997E-002    0.46912386117507887     
   6.2700000000000006E-002    0.57900664797843393     
   6.3000000000000000E-002    0.66753909721197524     
   6.3300000000000009E-002    0.73590473128764311     
   6.3600000000000004E-002    0.78716620195813869     
   6.3899999999999998E-002    0.82598581994932851     
   6.4199999999999993E-002    0.85798901500724167     
   6.4500000000000002E-002    0.88863087427677045     
   6.4800000000000010E-002    0.92244712906734438     
   6.5100000000000005E-002    0.96206788661361409     
   6.5400000000000000E-002     1.0073305835089550     
   6.5700000000000008E-002     1.0550028344010440     
   6.5999999999999989E-002     1.0983823960102914     
   6.6299999999999998E-002     1.1277506415430765     
   6.6600000000000006E-002     1.1309916414834016     
   6.6900000000000001E-002     1.0946691568119427     
   6.7199999999999996E-002     1.0057123936150043     
   6.7500000000000004E-002    0.85251967116199423     
   6.7800000000000013E-002    0.62712601698860770     
   6.8099999999999994E-002    0.32641203406102293     
   6.8400000000000002E-002    -4.6820355009042955E-002
   6.8700000000000011E-002   -0.48304304086705285     
   6.8999999999999992E-002   -0.96615477746850309     
   6.9300000000000000E-002    -1.4737581419091621     
   6.9600000000000009E-002    -1.9787767216005905     
   6.9900000000000004E-002    -2.4508458708368956     
   7.0199999999999999E-002    -2.8586003453536639     
   7.0500000000000007E-002    -3.1721998629212780     
   7.0800000000000016E-002    -3.3652904209784076     
   7.1099999999999997E-002    -3.4176023001440958     
   7.1400000000000005E-002    -3.3165558249807230     
   7.1700000000000000E-002    -3.0582742392379609     
   7.1999999999999995E-002    -2.6485686186930066     
   7.2300000000000003E-002    -2.1024935021031439     
   7.2600000000000012E-002    -1.4437357248247256     
   7.2900000000000006E-002   -0.70315458839404676     
   7.3200000000000001E-002     8.3444702864291898E-002
   7.3499999999999996E-002    0.87686259481474838     
   7.3800000000000004E-002     1.6375971546480730     
   7.4099999999999999E-002     2.3280368176194841     
   7.4400000000000008E-002     2.9142709373127524     
   7.4700000000000003E-002     3.3689090913225899     
   7.5000000000000011E-002     3.6716369782558651     
   7.5299999999999992E-002     3.8105678185288419     
   7.5600000000000001E-002     3.7829525359244469     
   7.5900000000000009E-002     3.5941938997761875     
   7.6200000000000004E-002     3.2580351963795637     
   7.6499999999999999E-002     2.7947892620305246     
   7.6800000000000007E-002     2.2300828240864283     
   7.7099999999999988E-002     1.5933707896564326     
   7.7399999999999997E-002    0.91534427666945750     
   7.7700000000000005E-002    0.22699983596725931     
   7.8000000000000014E-002   -0.44242592662764446     
   7.8299999999999995E-002    -1.0672279692712090     
   7.8600000000000003E-002    -1.6257288862680817     
   7.8900000000000012E-002    -2.1014439190292293     
   7.9199999999999993E-002    -2.4833777127346628     
   7.9500000000000001E-002    -2.7656259308157276     
   7.9800000000000010E-002    -2.9472165061747893     
   8.0100000000000018E-002    -3.0311369281098068     
   8.0399999999999999E-002    -3.0233956289220272     
   8.0700000000000008E-002    -2.9321162269979757     
   8.1000000000000003E-002    -2.7659945109799526     
   8.1299999999999997E-002    -2.5340114909519396     
   8.1600000000000006E-002    -2.2443038070056653     
   8.1900000000000014E-002    -1.9036247775106925     
   8.2199999999999995E-002    -1.5181281585368891     
   8.2500000000000004E-002    -1.0927126453447742     
   8.2799999999999999E-002   -0.63217916544016917     
   8.3100000000000007E-002   -0.14227959827701100     
   8.3400000000000002E-002    0.37001527999246908     
   8.3700000000000011E-002    0.89484677876596963     
   8.4000000000000005E-002     1.4198275736459307     
   8.4300000000000000E-002     1.9291160730418568     
   8.4599999999999995E-002     2.4037242993090300     
   8.4900000000000003E-002     2.8227972017942240     
   8.5199999999999998E-002     3.1639903157087339     
   8.5500000000000007E-002     3.4058360944931905     
   8.5800000000000001E-002     3.5293832361742381     
   8.6100000000000010E-002     3.5198242852063251     
   8.6399999999999991E-002     3.3688615016227330     
   8.6699999999999999E-002     3.0757870372409246     
   8.7000000000000008E-002     2.6483846004880762     
   8.7300000000000003E-002     2.1035286446308241     
   8.7599999999999997E-002     1.4661135130840197     
   8.7900000000000006E-002    0.76828239589097580     
   8.8200000000000014E-002     4.7052475937144927E-002
   8.8499999999999995E-002   -0.65806401831113293     
   8.8800000000000004E-002    -1.3075802921350088     
   8.9100000000000013E-002    -1.8653722148938325     
   8.9399999999999993E-002    -2.3009464016873080     
   8.9700000000000002E-002    -2.5918022797910001     
   9.0000000000000011E-002    -2.7253782306139174     
   9.0299999999999991E-002    -2.6992114035961023     
   9.0600000000000000E-002    -2.5214787580727749     
   9.0900000000000009E-002    -2.2099998417809674     
   9.1200000000000017E-002    -1.7904026074419113     
   9.1499999999999998E-002    -1.2945319281898693     
   9.1800000000000007E-002   -0.75733388250408795     
   9.2100000000000001E-002   -0.21495591419926374     
   9.2399999999999996E-002    0.29818457782398067     
   9.2700000000000005E-002    0.75175937457540154     
   9.3000000000000013E-002     1.1204676489146559     
   9.3300000000000008E-002     1.3861222567551639     
   9.3600000000000003E-002     1.5377546362932901     
   9.3899999999999997E-002     1.5716913043206553     
   9.4200000000000006E-002     1.4914939677627197     
   9.4500000000000001E-002     1.3069265594187645     
   9.4800000000000009E-002     1.0332818048056420     
   9.5100000000000004E-002    0.68995482732666080     
   9.5399999999999999E-002    0.29949648335634937     
   9.5699999999999993E-002   -0.11349146427925125     
   9.6000000000000002E-002   -0.52376688847317143     
   9.6300000000000011E-002   -0.90625373240394191     
   9.6600000000000005E-002    -1.2373616497904227     
   9.6900000000000000E-002    -1.4960491661528361     
   9.7200000000000009E-002    -1.6649714443560861     
   9.7499999999999989E-002    -1.7314585950298698     
   9.7799999999999998E-002    -1.6885045608794127     
   9.8100000000000007E-002    -1.5357226071009180     
   9.8400000000000015E-002    -1.2795401244592530     
   9.8699999999999996E-002   -0.93341094757296972     
   9.9000000000000005E-002   -0.51748991141224565     
   9.9300000000000013E-002    -5.7709798502907833E-002
   9.9599999999999994E-002    0.41577126169670714     
   9.9900000000000003E-002    0.87039987131985064     
  0.10020000000000001          1.2732792981786620     
  0.10049999999999999          1.5937251642391992     
  0.10080000000000000          1.8055727546616487     
  0.10110000000000001          1.8892399483172952     
  0.10140000000000000          1.8333242036878636     
  0.10170000000000000          1.6359103816775962     
  0.10200000000000001          1.3048639127426895     
  0.10230000000000002         0.85711561597666464     
  0.10260000000000000         0.31804766061176942     
  0.10290000000000001        -0.28060087298611075     
  0.10320000000000000        -0.90281507672234340     
  0.10350000000000001         -1.5108907332647805     
  0.10380000000000000         -2.0684492068996070     
  0.10410000000000001         -2.5423165949822355     
  0.10440000000000001         -2.9055070631217812     
  0.10470000000000000         -3.1385703913545044     
  0.10500000000000000         -3.2307605818582896     
  0.10530000000000000         -3.1809654645550207     
  0.10560000000000000         -2.9967517792573428     
  0.10590000000000001         -2.6941236647087048     
  0.10620000000000000         -2.2955576564492173     
  0.10650000000000001         -1.8279633516634144     
  0.10679999999999999         -1.3205832776233257     
  0.10710000000000000        -0.80205013395890667     
  0.10740000000000001        -0.29832689341528135     
  0.10770000000000000         0.16952252458201442     
  0.10800000000000000         0.58712566454185211     
  0.10830000000000001         0.94729094728949970     
  0.10859999999999999          1.2504131502958886     
  0.10890000000000000          1.5037526118104176     
  0.10920000000000001          1.7197928219091603     
  0.10950000000000001          1.9143878777560261     
  0.10979999999999999          2.1041492226183030     
  0.11009999999999999          2.3035849543778952     
  0.11040000000000001          2.5233854054522613     
  0.11070000000000001          2.7675896655977090     
  0.11100000000000000          3.0332179117247979     
  0.11130000000000000          3.3098583653870510     
  0.11160000000000002          3.5797525007079489     
  0.11190000000000001          3.8205423177691360     
  0.11220000000000001          4.0064093398117366     
  0.11250000000000000          4.1119233899234029     
  0.11280000000000000          4.1150867351083811     
  0.11309999999999999          3.9991388437200479     
  0.11340000000000001          3.7564017905578506     
  0.11369999999999998          3.3880243507350105     
  0.11400000000000000          2.9053759893747415     
  0.11430000000000000          2.3293310299327907     
  0.11460000000000002          1.6875547946952070     
  0.11489999999999999          1.0135119557320720     
  0.11520000000000001         0.34175323448736489     
  0.11550000000000001        -0.29435818818871839     
  0.11580000000000000        -0.86551517136783040     
  0.11609999999999999         -1.3502445397366778     
  0.11640000000000002         -1.7351723021265855     
  0.11670000000000001         -2.0168230362095017     
  0.11700000000000001         -2.2011948053006765     
  0.11730000000000000         -2.3020411325063010     
  0.11760000000000000         -2.3397282486393767     
  0.11789999999999999         -2.3385132318301620     
  0.11820000000000001         -2.3230629178492950     
  0.11850000000000001         -2.3169777664486353     
  0.11880000000000000         -2.3393991069247129     
  0.11910000000000000         -2.4029782210471451     
  0.11940000000000002         -2.5140609119938073     
  0.11970000000000001         -2.6702742798048615     
  0.12000000000000001         -2.8623850780657691     
  0.12030000000000000         -3.0749022412947165     
  0.12060000000000000         -3.2865887851558240     
  0.12089999999999999         -3.4748550043149931     
  0.12119999999999999         -3.6152460283949308     
  0.12150000000000001         -3.6855260272295527     
  0.12180000000000001         -3.6677569426171326     
  0.12210000000000000         -3.5483068166901162     
  0.12239999999999999         -3.3219872351316804     
  0.12270000000000002         -2.9903675522491509     
  0.12300000000000001         -2.5627327086690372     
  0.12330000000000001         -2.0564793916927546     
  0.12360000000000000         -1.4940442808571375     
  0.12390000000000000        -0.90341717563327029     
  0.12419999999999999        -0.31497452848650653     
  0.12450000000000001         0.24091351107243142     
  0.12480000000000001         0.73511751957363303     
  0.12509999999999999          1.1429799361278863     
  0.12540000000000001          1.4454602158494003     
  0.12570000000000003          1.6300874324929588     
  0.12600000000000000          1.6931044570586871     
  0.12630000000000002          1.6382730644347863     
  0.12659999999999999          1.4769039940597293     
  0.12690000000000001          1.2276823489416384     
  0.12719999999999998         0.91364797332164516     
  0.12750000000000000         0.56250859913188922     
  0.12780000000000002         0.20367984787591609     
  0.12809999999999999        -0.13382252761883051     
  0.12840000000000001        -0.42138036790878597     
  0.12869999999999998        -0.63419835881770126     
  0.12900000000000000        -0.75123795290057094     
  0.12930000000000003        -0.75620135678912970     
  0.12959999999999999        -0.63936771242986479     
  0.12990000000000002        -0.39582082209845931     
  0.13019999999999998         -2.7663767716269501E-002
  0.13050000000000000         0.45720957225857162     
  0.13080000000000003          1.0456794192258152     
  0.13109999999999999          1.7185222649585308     
  0.13140000000000002          2.4527126401124990     
  0.13169999999999998          3.2212684049748717     
  0.13200000000000001          3.9940291044888805     
  0.13229999999999997          4.7398635376666416     
  0.13260000000000000          5.4267039395461243     
  0.13290000000000002          6.0229259314638659     
  0.13319999999999999          6.4993599236974591     
  0.13350000000000001          6.8294946638035849     
  0.13380000000000003          6.9906326955456422     
  0.13410000000000000          6.9657402168120850     
  0.13440000000000002          6.7429529010054434     
  0.13469999999999999          6.3172828764758453     
  0.13500000000000001          5.6908588300183940     
  0.13529999999999998          4.8722071695012286     
  0.13560000000000000          3.8787901584153097     
  0.13590000000000002          2.7337129639353734     
  0.13619999999999999          1.4675225830646239     
  0.13650000000000001         0.11730311874219035     
  0.13680000000000003         -1.2767412729731171     
  0.13710000000000000         -2.6688079371996052     
  0.13740000000000002         -4.0128586336425300     
  0.13769999999999999         -5.2628643416708076     
  0.13800000000000001         -6.3741187593955839     
  0.13829999999999998         -7.3075031682796849     
  0.13860000000000000         -8.0287733975548896     
  0.13890000000000002         -8.5119774128526675     
  0.13919999999999999         -8.7404359975392012     
  0.13950000000000001         -8.7062248322880755     
  0.13979999999999998         -8.4124537162055706     
  0.14010000000000000         -7.8713738358681482     
  0.14040000000000002         -7.1042308003769064     
  0.14069999999999999         -6.1410137583702307     
  0.14100000000000001         -5.0173107378754924     
  0.14130000000000004         -3.7745358336405515     
  0.14160000000000000         -2.4582703980418978     
  0.14189999999999997         -1.1148643677915184     
  0.14219999999999999         0.20739981668183538     
  0.14250000000000002          1.4614287649840132     
  0.14279999999999998          2.6033087262623482     
  0.14310000000000000          3.5907087248287812     
  0.14339999999999997          4.3883005754492457     
  0.14369999999999999          4.9657439711820839     
  0.14400000000000002          5.3000231043814043     
  0.14429999999999998          5.3782901315118972     
  0.14460000000000001          5.1954454876091223     
  0.14490000000000003          4.7593293937435508     
  0.14520000000000000          4.0879451871759453     
  0.14550000000000002          3.2097794542744942     
  0.14579999999999999          2.1656921806232061     
  0.14610000000000001          1.0036695355765053     
  0.14640000000000003        -0.21940266595133329     
  0.14670000000000000         -1.4420190842465301     
  0.14699999999999996         -2.6017351143938052     
  0.14729999999999999         -3.6360052549680031     
  0.14760000000000001         -4.4888830626206513     
  0.14789999999999998         -5.1115325149379407     
  0.14820000000000000         -5.4660286164156613     