  -1.4999999999999999E-002     0.0000000000000000     
  -1.4700000000000000E-002     0.0000000000000000     
  -1.4400000000000000E-002     0.0000000000000000     
  -1.4100000000000000E-002     0.0000000000000000     
  -1.3800000000000000E-002     0.0000000000000000     
  -1.3500000000000000E-002     0.0000000000000000     
  -1.3200000000000000E-002     0.0000000000000000     
  -1.2899999999999998E-002     0.0000000000000000     
  -1.2600000000000000E-002     0.0000000000000000     
  -1.2299999999999998E-002     0.0000000000000000     
  -1.2000000000000000E-002     0.0000000000000000     
  -1.1699999999999999E-002     0.0000000000000000     
  -1.1399999999999999E-002     0.0000000000000000     
  -1.1099999999999999E-002     0.0000000000000000     
  -1.0799999999999999E-002     0.0000000000000000     
  -1.0499999999999999E-002     0.0000000000000000     
  -1.0199999999999999E-002     0.0000000000000000     
  -9.8999999999999991E-003     0.0000000000000000     
  -9.5999999999999992E-003     0.0000000000000000     
  -9.2999999999999992E-003     0.0000000000000000     
  -8.9999999999999993E-003     0.0000000000000000     
  -8.6999999999999994E-003     0.0000000000000000     
  -8.3999999999999995E-003     0.0000000000000000     
  -8.0999999999999996E-003     0.0000000000000000     
  -7.7999999999999988E-003     0.0000000000000000     
  -7.4999999999999997E-003     0.0000000000000000     
  -7.1999999999999998E-003     0.0000000000000000     
  -6.8999999999999981E-003     0.0000000000000000     
  -6.5999999999999982E-003     0.0000000000000000     
  -6.3000000000000000E-003     0.0000000000000000     
  -6.0000000000000001E-003     0.0000000000000000     
  -5.6999999999999985E-003     0.0000000000000000     
  -5.3999999999999986E-003     0.0000000000000000     
  -5.1000000000000004E-003     0.0000000000000000     
  -4.7999999999999987E-003     0.0000000000000000     
  -4.5000000000000005E-003     0.0000000000000000     
  -4.1999999999999989E-003     0.0000000000000000     
  -3.8999999999999990E-003     0.0000000000000000     
  -3.5999999999999990E-003     0.0000000000000000     
  -3.2999999999999991E-003     0.0000000000000000     
  -2.9999999999999992E-003     0.0000000000000000     
  -2.6999999999999993E-003     0.0000000000000000     
  -2.3999999999999994E-003     0.0000000000000000     
  -2.0999999999999977E-003     0.0000000000000000     
  -1.7999999999999995E-003     0.0000000000000000     
  -1.4999999999999979E-003     0.0000000000000000     
  -1.1999999999999997E-003     0.0000000000000000     
  -8.9999999999999976E-004     0.0000000000000000     
  -5.9999999999999810E-004     4.1108011655444218E-043
  -2.9999999999999992E-004    -7.5712568077048910E-042
   0.0000000000000000         -4.6217887834256585E-039
   3.0000000000000165E-004     1.5341976389267797E-037
   5.9999999999999984E-004    -7.0117380872618385E-037
   9.0000000000000149E-004    -3.5594191511079826E-036
   1.2000000000000031E-003     4.9812153192484682E-035
   1.5000000000000013E-003    -1.8217485697949465E-034
   1.8000000000000030E-003     2.9710219577312135E-034
   2.1000000000000012E-003     1.7107423985299767E-033
   2.3999999999999994E-003    -9.3890919237694457E-033
   2.7000000000000010E-003     2.7747684773370239E-032
   2.9999999999999992E-003    -5.1862011167659853E-032
   3.3000000000000008E-003     3.2947097587031690E-032
   3.6000000000000025E-003     1.6501207829680136E-031
   3.9000000000000007E-003    -7.6909020356864303E-031
   4.2000000000000023E-003     1.9661670237408974E-030
   4.5000000000000005E-003    -3.8642524865371818E-030
   4.7999999999999987E-003     6.9841341458981736E-030
   5.1000000000000004E-003    -7.0495408949244999E-030
   5.4000000000000020E-003    -2.6423139700898759E-029
   5.7000000000000037E-003     7.0536719630041220E-029
   5.9999999999999984E-003     6.6406556340673596E-028
   6.3000000000000000E-003    -5.0603634664974505E-027
   6.6000000000000017E-003     1.0255650257378409E-026
   6.9000000000000034E-003     6.6576221283645844E-026
   7.2000000000000015E-003    -6.7974660036043481E-025
   7.5000000000000032E-003     2.9164122844796338E-024
   7.8000000000000014E-003    -4.4993629202215444E-024
   8.0999999999999996E-003    -2.8122446092653422E-023
   8.4000000000000012E-003     2.5933218285440771E-022
   8.7000000000000029E-003    -1.1782326298911463E-021
   9.0000000000000011E-003     3.5890238719905619E-021
   9.2999999999999992E-003    -7.2682118174773389E-021
   9.6000000000000009E-003     8.0679522234835328E-021
   9.8999999999999991E-003    -1.3016710372795305E-020
   1.0200000000000001E-002     2.1556628238687508E-019
   1.0500000000000002E-002    -2.0556534509483956E-018
   1.0800000000000004E-002     1.3356452773556517E-017
   1.1099999999999999E-002    -7.0438840384888000E-017
   1.1400000000000000E-002     3.2521725780873190E-016
   1.1700000000000002E-002    -1.3547972635574122E-015
   1.2000000000000004E-002     5.0930032351270862E-015
   1.2300000000000002E-002    -1.6741886734538793E-014
   1.2600000000000000E-002     4.3820036454982415E-014
   1.2900000000000002E-002    -6.1253690199996620E-014
   1.3200000000000000E-002    -1.9570511176146644E-013
   1.3500000000000002E-002     1.9867420881497654E-012
   1.3800000000000003E-002    -9.1111491097500577E-012
   1.4100000000000001E-002     2.6966180972383926E-011
   1.4400000000000000E-002    -4.2341315744706559E-011
   1.4700000000000001E-002    -4.6983774361453277E-011
   1.4999999999999999E-002     4.9386022446549683E-010
   1.5300000000000001E-002    -1.2890637189853481E-009
   1.5600000000000003E-002     5.8074501006007026E-010
   1.5899999999999997E-002     5.8768668498744663E-009
   1.6199999999999999E-002    -1.4712578361977917E-008
   1.6500000000000001E-002    -3.3944130383995436E-009
   1.6800000000000002E-002     6.5187014412953388E-008
   1.7100000000000004E-002    -4.4943730962063378E-008
   1.7400000000000006E-002    -2.0801774333010618E-007
   1.7700000000000000E-002     1.4946376408509686E-007
   1.8000000000000002E-002     5.8822426279741827E-007
   1.8300000000000004E-002    -2.0953441039682573E-007
   1.8600000000000005E-002    -1.8385515130773678E-006
   1.8900000000000000E-002    -6.5252076755915191E-007
   1.9200000000000002E-002     8.2529936743351787E-006
   1.9500000000000003E-002     2.7246405615382176E-005
   1.9799999999999998E-002     5.5544030263751990E-005
   2.0100000000000000E-002     9.2748389604122076E-005
   2.0400000000000001E-002     1.4280969477114931E-004
   2.0700000000000003E-002     2.1663686763782327E-004
   2.0999999999999998E-002     3.3179343097665306E-004
   2.1299999999999999E-002     5.1073330191230947E-004
   2.1600000000000001E-002     7.8205186732578842E-004
   2.1900000000000003E-002     1.1837316093994390E-003
   2.2200000000000004E-002     1.7670294966506714E-003
   2.2500000000000006E-002     2.6015041381591249E-003
   2.2800000000000001E-002     3.7789185238597395E-003
   2.3100000000000002E-002     5.4151869577430808E-003
   2.3400000000000004E-002     7.6512221776432326E-003
   2.3699999999999999E-002     1.0652922881470234E-002
   2.4000000000000000E-002     1.4610072990077869E-002
   2.4300000000000002E-002     1.9728776299036837E-002
   2.4599999999999997E-002     2.6217758869986684E-002
   2.4900000000000005E-002     3.4268958715964762E-002
   2.5200000000000000E-002     4.4029576618354847E-002
   2.5499999999999995E-002     5.5565469619573558E-002
   2.5800000000000003E-002     6.8812829209572740E-002
   2.6099999999999998E-002     8.3524725600285649E-002
   2.6400000000000007E-002     9.9211655747692862E-002
   2.6700000000000002E-002    0.11508713212073282     
   2.6999999999999996E-002    0.13002024198791656     
   2.7300000000000005E-002    0.14250509394984559     
   2.7600000000000000E-002    0.15066338671684651     
   2.7900000000000008E-002    0.15229163263616355     
   2.8200000000000003E-002    0.14494160376255555     
   2.8499999999999998E-002    0.12607115749182082     
   2.8800000000000006E-002     9.3252448933033666E-002
   2.9100000000000001E-002     4.4422699501963897E-002
   2.9400000000000003E-002    -2.1799069195384050E-002
   2.9700000000000004E-002   -0.10580389240784772     
   3.0000000000000006E-002   -0.20668262674307875     
   3.0300000000000001E-002   -0.32196004643381959     
   3.0600000000000002E-002   -0.44744603240215419     
   3.0900000000000004E-002   -0.57718118942348351     
   3.1199999999999999E-002   -0.70357794625089976     
   3.1500000000000007E-002   -0.81773375933460202     
   3.1800000000000002E-002   -0.90992169496706432     
   3.2099999999999997E-002   -0.97027438877583849     
   3.2400000000000005E-002   -0.98957534161556282     
   3.2700000000000000E-002   -0.96014450921539929     
   3.3000000000000002E-002   -0.87670246798511042     
   3.3300000000000003E-002   -0.73711813395727643     
   3.3599999999999998E-002   -0.54297254257959271     
   3.3900000000000000E-002   -0.29984821357055447     
   3.4200000000000001E-002    -1.7316878339655707E-002
   3.4500000000000003E-002    0.29150949865245174     
   3.4799999999999998E-002    0.61062665912149616     
   3.5099999999999999E-002    0.92224714259350249     
   3.5400000000000001E-002     1.2079991881932344     
   3.5699999999999996E-002     1.4503931632596023     
   3.6000000000000004E-002     1.6340504310636066     
   3.6299999999999999E-002     1.7470049846205085     
   3.6600000000000008E-002     1.7816340382575668     
   3.6900000000000002E-002     1.7352057801183982     
   3.7199999999999997E-002     1.6101989223864319     
   3.7500000000000006E-002     1.4139971921371000     
   3.7800000000000000E-002     1.1583211832359743     
   3.8100000000000009E-002    0.85835366622164144     
   3.8400000000000004E-002    0.53148689666509896     
   3.8699999999999998E-002    0.19610741075093771     
   3.9000000000000007E-002   -0.12966371757694228     
   3.9300000000000002E-002   -0.42930015146057615     
   3.9600000000000003E-002   -0.68871475930978854     
   3.9900000000000005E-002   -0.89703927381113047     
   4.0200000000000000E-002    -1.0472409901019297     
   4.0500000000000001E-002    -1.1360573208399962     
   4.0800000000000003E-002    -1.1640903535727853     
   4.1100000000000005E-002    -1.1354089087943475     
   4.1399999999999999E-002    -1.0569622805949905     
   4.1700000000000008E-002   -0.93803601602434239     
   4.2000000000000003E-002   -0.78943917852793688     
   4.2299999999999997E-002   -0.62281398515627895     
   4.2600000000000006E-002   -0.44992204121572782     
   4.2900000000000001E-002   -0.28192463588849703     
   4.3200000000000002E-002   -0.12887032024131748     
   4.3500000000000004E-002     8.4870224672563971E-004
   4.3799999999999999E-002    0.10092831818991424     
   4.4100000000000000E-002    0.16732915674944115     
   4.4400000000000002E-002    0.19854455836843102     
   4.4700000000000004E-002    0.19551998208745125     
   4.4999999999999998E-002    0.16148528378951307     
   4.5300000000000000E-002    0.10183624826026121     
   4.5600000000000002E-002     2.3553978697577152E-002
   4.5899999999999996E-002    -6.5185315982012854E-002
   4.6200000000000005E-002   -0.15560046272983347     
   4.6500000000000000E-002   -0.23903322551791262     
   4.6799999999999994E-002   -0.30735837175241076     
   4.7100000000000003E-002   -0.35377993179702305     
   4.7399999999999998E-002   -0.37315479692530218     
   4.7700000000000006E-002   -0.36221049529208554     
   4.8000000000000001E-002   -0.31992202793464830     
   4.8300000000000010E-002   -0.24728527071163697     
   4.8600000000000004E-002   -0.14735421513376576     
   4.8899999999999999E-002    -2.4893907133311216E-002
   4.9200000000000008E-002    0.11395318165315121     
   4.9500000000000002E-002    0.26186981901171774     
   4.9800000000000011E-002    0.41100787574529152     
   5.0100000000000006E-002    0.55311391307709101     
   5.0400000000000000E-002    0.67985001397328915     
   5.0700000000000009E-002    0.78318124823869617     
   5.1000000000000004E-002    0.85555404941702984     
   5.1299999999999998E-002    0.89023672212891281     
   5.1600000000000007E-002    0.88163428386389797     
   5.1900000000000002E-002    0.82562627763969432     
   5.2200000000000010E-002    0.71994430171514412     
   5.2500000000000005E-002    0.56462396230807355     
   5.2800000000000000E-002    0.36236931056705990     
   5.3099999999999994E-002    0.11896044699098191     
   5.3400000000000003E-002   -0.15683357634023637     
   5.3699999999999998E-002   -0.45314079637875282     
   5.4000000000000006E-002   -0.75526590420581718     
   5.4300000000000001E-002    -1.0464882307514656     
   5.4599999999999996E-002    -1.3087406523653489     
   5.4900000000000004E-002    -1.5238280331221510     
   5.5199999999999999E-002    -1.6745364392329647     
   5.5499999999999994E-002    -1.7461337013302030     
   5.5800000000000002E-002    -1.7276904074739770     
   5.6099999999999997E-002    -1.6129667475811242     
   5.6400000000000006E-002    -1.4014881626165545     
   5.6700000000000000E-002    -1.0988266446872612     
   5.6999999999999995E-002   -0.71654938128703904     
   5.7300000000000004E-002   -0.27187905139788088     
   5.7599999999999998E-002    0.21341725474054041     
   5.7900000000000007E-002    0.71417693180838215     
   5.8200000000000002E-002     1.2036878231138091     
   5.8499999999999996E-002     1.6555485248349504     
   5.8800000000000005E-002     2.0450918404579523     
   5.9100000000000000E-002     2.3516430506283386     
   5.9400000000000008E-002     2.5595122761798663     
   5.9700000000000003E-002     2.6591112784084006     
   6.0000000000000012E-002     2.6474233722812772     
   6.0300000000000006E-002     2.5279613581508551     
   6.0600000000000001E-002     2.3102096704185846     
   6.0900000000000010E-002     2.0083145538593481     
   6.1200000000000004E-002     1.6400700189803019     
   6.1500000000000013E-002     1.2250457031081909     
   6.1800000000000008E-002    0.78310609557656807     
   6.2100000000000002E-002    0.33280962847563267     
   6.2399999999999997E-002   -0.10970460917622293     
   6.2700000000000006E-002   -0.53142788216026093     
   6.3000000000000000E-002   -0.92320240814115573     
   6.3300000000000009E-002    -1.2790168557924178     
   6.3600000000000004E-002    -1.5956607557499558     
   6.3899999999999998E-002    -1.8718822321875168     
   6.4199999999999993E-002    -2.1070817437009302     
   6.4500000000000002E-002    -2.3006384195843146     
   6.4800000000000010E-002    -2.4505569380196968     
   6.5100000000000005E-002    -2.5535142349507485     
   6.5400000000000000E-002    -2.6041469589974238     
   6.5700000000000008E-002    -2.5955500595641183     
   6.5999999999999989E-002    -2.5204075648523201     
   6.6299999999999998E-002    -2.3714793469468143     
   6.6600000000000006E-002    -2.1434111270019796     
   6.6900000000000001E-002    -1.8337061799715704     
   6.7199999999999996E-002    -1.4439402009688411     
   6.7500000000000004E-002   -0.98066642403569215     
   6.7800000000000013E-002   -0.45565645754201123     
   6.8099999999999994E-002    0.11408614172511916     
   6.8400000000000002E-002    0.70702648419591851     
   6.8700000000000011E-002     1.2982554137539593     
   6.8999999999999992E-002     1.8607409764739218     
   6.9300000000000000E-002     2.3669350624342478     
   6.9600000000000009E-002     2.7907650867849152     
   6.9900000000000004E-002     3.1087732864264130     
   7.0199999999999999E-002     3.3016948828989117     
   7.0500000000000007E-002     3.3557698091865387     
   7.0800000000000016E-002     3.2628286393962922     
   7.1099999999999997E-002     3.0216553519495548     
   7.1400000000000005E-002     2.6375233610981894     
   7.1700000000000000E-002     2.1220926544438572     
   7.1999999999999995E-002     1.4937910269230510     
   7.2300000000000003E-002    0.77612504534224058     
   7.2600000000000012E-002    -1.9751202625928471E-003
   7.2900000000000006E-002   -0.80765206420009228     
   7.3200000000000001E-002    -1.6054911057794616     
   7.3499999999999996E-002    -2.3578599112836343     
   7.3800000000000004E-002    -3.0281386496297595     
   7.4099999999999999E-002    -3.5812870329114430     
   7.4400000000000008E-002    -3.9860998817217004     
   7.4700000000000003E-002    -4.2176686248205160     
   7.5000000000000011E-002    -4.2580502284246293     
   7.5299999999999992E-002    -4.0988628983507160     
   7.5600000000000001E-002    -3.7415138255840503     
   7.5900000000000009E-002    -3.1975421478838322     
   7.6200000000000004E-002    -2.4889700534721584     
   7.6499999999999999E-002    -1.6464379283603425     
   7.6800000000000007E-002   -0.70834558036853901     
   7.7099999999999988E-002    0.28158457636506895     
   7.7399999999999997E-002     1.2769959892282621     
   7.7700000000000005E-002     2.2308704748206969     
   7.8000000000000014E-002     3.0984954131918565     
   7.8299999999999995E-002     3.8399116323022033     
   7.8600000000000003E-002     4.4211861836322566     
   7.8900000000000012E-002     4.8163966963019504     
   7.9199999999999993E-002     5.0085770822318505     
   7.9500000000000001E-002     4.9896166423645285     
   7.9800000000000010E-002     4.7613418118487871     
   8.0100000000000018E-002     4.3342230254975211     
   8.0399999999999999E-002     3.7272783135842049     
   8.0700000000000008E-002     2.9676907157272017     
   8.1000000000000003E-002     2.0887411948854662     
   8.1299999999999997E-002     1.1300443945999574     
   8.1600000000000006E-002    0.13501156494827238     
   8.1900000000000014E-002   -0.85035022442649510     
   8.2199999999999995E-002    -1.7787810698864144     
   8.2500000000000004E-002    -2.6052953957896090     
   8.2799999999999999E-002    -3.2878800668376154     
   8.3100000000000007E-002    -3.7910555695209665     
   8.3400000000000002E-002    -4.0883575133429115     
   8.3700000000000011E-002    -4.1633040500668947     
   8.4000000000000005E-002    -4.0127344540858809     
   8.4300000000000000E-002    -3.6463356349598692     
   8.4599999999999995E-002    -3.0873153351721103     
   8.4900000000000003E-002    -2.3717899137540122     
   8.5199999999999998E-002    -1.5457809335360300     
   8.5500000000000007E-002   -0.66329865650327935     
   8.5800000000000001E-002    0.21794623716508366     
   8.6100000000000010E-002     1.0407062724220064     
   8.6399999999999991E-002     1.7520963768240576     
   8.6699999999999999E-002     2.3079291630867460     
   8.7000000000000008E-002     2.6761000828098145     
   8.7300000000000003E-002     2.8384981810399443     
   8.7599999999999997E-002     2.7926386043914841     
   8.7900000000000006E-002     2.5511688361411697     
   8.8200000000000014E-002     2.1403111981237766     
   8.8499999999999995E-002     1.5982823480569273     
   8.8800000000000004E-002    0.97062977154945629     
   8.9100000000000013E-002    0.30727497742192217     
   8.9399999999999993E-002   -0.34153975019676441     
   8.9700000000000002E-002   -0.92999661333165551     
   9.0000000000000011E-002    -1.4184431657360603     
   9.0299999999999991E-002    -1.7774382060462954     
   9.0600000000000000E-002    -1.9885581552466496     
   9.0900000000000009E-002    -2.0450523142599417     
   9.1200000000000017E-002    -1.9527766065738987     
   9.1499999999999998E-002    -1.7278475626237064     
   9.1800000000000007E-002    -1.3959147238090837     
   9.2100000000000001E-002   -0.98971668409941183     
   9.2399999999999996E-002   -0.54640067660418623     
   9.2700000000000005E-002   -0.10530250614526934     
   9.3000000000000013E-002    0.29522136212552075     
   9.3300000000000008E-002    0.62036245628996756     
   9.3600000000000003E-002    0.84109737684858887     
   9.3899999999999997E-002    0.93645400623771113     
   9.4200000000000006E-002    0.89511751297238207     
   9.4500000000000001E-002    0.71592425433035523     
   9.4800000000000009E-002    0.40895561800241031     
   9.5100000000000004E-002    -5.6864192457863616E-003
   9.5399999999999999E-002   -0.49909774656284711     
   9.5699999999999993E-002    -1.0346500977213513     
   9.6000000000000002E-002    -1.5721254361248005     
   9.6300000000000011E-002    -2.0695581508143874     
   9.6600000000000005E-002    -2.4869041928946429     
   9.6900000000000000E-002    -2.7897141331488591     
   9.7200000000000009E-002    -2.9508742293972912     
   9.7499999999999989E-002    -2.9542686129091127     
   9.7799999999999998E-002    -2.7947652632074558     
   9.8100000000000007E-002    -2.4795519421838144     
   9.8400000000000015E-002    -2.0275204631392199     
   9.8699999999999996E-002    -1.4665757959135384     
   9.9000000000000005E-002   -0.83272152314120196     
   9.9300000000000013E-002   -0.16517637154092263     
   9.9599999999999994E-002    0.49581608673295319     
   9.9900000000000003E-002     1.1127666286038669     
  0.10020000000000001          1.6545821670795156     
  0.10049999999999999          2.0981420544265159     
  0.10080000000000000          2.4308182378976788     
  0.10110000000000001          2.6502981117458200     
  0.10140000000000000          2.7647939838494340     
  0.10170000000000000          2.7911761680847218     
  0.10200000000000001          2.7527709926615018     
  0.10230000000000002          2.6768434534629550     
  0.10260000000000000          2.5908060778102362     
  0.10290000000000001          2.5201290490170574     
  0.10320000000000000          2.4846363674947902     
  0.10350000000000001          2.4972521233452123     
  0.10380000000000000          2.5621959975562150     
  0.10410000000000001          2.6743206781084936     
  0.10440000000000001          2.8206944882675460     
  0.10470000000000000          2.9805560186725097     
  0.10500000000000000          3.1286109485673523     
  0.10530000000000000          3.2373633369027730     
  0.10560000000000000          3.2793583633665637     
  0.10590000000000001          3.2311309361894534     
  0.10620000000000000          3.0744096673402592     
  0.10650000000000001          2.7992617165880818     
  0.10679999999999999          2.4050923051970274     
  0.10710000000000000          1.9006432792143322     
  0.10740000000000001          1.3042476180896452     
  0.10770000000000000         0.64230048333003120     
  0.10800000000000000         -5.2782638452862851E-002
  0.10830000000000001        -0.74504552493474840     
  0.10859999999999999         -1.3978725448854179     
  0.10890000000000000         -1.9776833400300897     
  0.10920000000000001         -2.4556345796405035     
  0.10950000000000001         -2.8112904631361584     
  0.10979999999999999         -3.0338162697221813     
  0.11009999999999999         -3.1225518109228880     
  0.11040000000000001         -3.0883824011871650     
  0.11070000000000001         -2.9511467919238421     
  0.11100000000000000         -2.7395675014875489     
  0.11130000000000000         -2.4879646957717250     
  0.11160000000000002         -2.2326669093924156     
  0.11190000000000001         -2.0110431896969350     
  0.11220000000000001         -1.8558404888777682     
  0.11250000000000000         -1.7945172069221735     
  0.11280000000000000         -1.8463702906904085     
  0.11309999999999999         -2.0200079626727430     
  0.11340000000000001         -2.3150081464592906     
  0.11369999999999998         -2.7191775484148959     
  0.11400000000000000         -3.2111233807085764     
  0.11430000000000000         -3.7616488038657372     
  0.11460000000000002         -4.3341485706656240     
  0.11489999999999999         -4.8890496979664082     
  0.11520000000000001         -5.3840976741780429     
  0.11550000000000001         -5.7784190491573399     
  0.11580000000000000         -6.0346124706253708     
  0.11609999999999999         -6.1200000370887988     
  0.11640000000000002         -6.0103153649872567     
  0.11670000000000001         -5.6896412882386125     
  0.11700000000000001         -5.1519297068720320     
  0.11730000000000000         -4.4025211781072322     
  0.11760000000000000         -3.4563401079645732     
  0.11789999999999999         -2.3390194568691607     
  0.11820000000000001         -1.0847854353129787     
  0.11850000000000001         0.26551774529835659     
  0.11880000000000000          1.6651099060039574     
  0.11910000000000000          3.0655219517046657     
  0.11940000000000002          4.4171226436037632     
  0.11970000000000001          5.6729835167944360     
  0.12000000000000001          6.7905193667714983     
  0.12030000000000000          7.7324323087185602     
  0.12060000000000000          8.4692768154395868     
  0.12089999999999999          8.9799529891665983     
  0.12119999999999999          9.2514264773077493     
  0.12150000000000001          9.2791811140390941     
  0.12180000000000001          9.0668498113525509     
  0.12210000000000000          8.6253986700224079     
  0.12239999999999999          7.9725826392612777     
  0.12270000000000002          7.1313712730821690     
  0.12300000000000001          6.1305194773564748     
  0.12330000000000001          5.0027661479296377     
  0.12360000000000000          3.7841688576457519     
  0.12390000000000000          2.5142149470090440     
  0.12419999999999999          1.2338153487616124     
  0.12450000000000001         -1.4946791381267754E-002
  0.12480000000000001         -1.1901479720000017     
  0.12509999999999999         -2.2512376646113696     
  0.12540000000000001         -3.1602040143802914     
  0.12570000000000003         -3.8840932824625440     
  0.12600000000000000         -4.3955591116350163     
  0.12630000000000002         -4.6745075893125119     
  0.12659999999999999         -4.7095560366266174     
  0.12690000000000001         -4.4989117213294412     
  0.12719999999999998         -4.0510211183584488     
  0.12750000000000000         -3.3845717300468108     
  0.12780000000000002         -2.5287518184178852     
  0.12809999999999999         -1.5218381134930055     
  0.12840000000000001        -0.41069492409513764     
  0.12869999999999998         0.75110498569891138     
  0.12900000000000000          1.9053108619850923     
  0.12930000000000003          2.9910579677147231     
  0.12959999999999999          3.9481848423770600     
  0.12990000000000002          4.7186637630954538     
  0.13019999999999998          5.2513639041970404     
  0.13050000000000000          5.5037836923194794     
  0.13080000000000003          5.4443282214874298     
  0.13109999999999999          5.0565223158891746     
  0.13140000000000002          4.3386479685986998     
  0.13169999999999998          3.3061967349433110     
  0.13200000000000001          1.9921220615355986     
  0.13229999999999997         0.44471432915122022     
  0.13260000000000000         -1.2724072696130655     
  0.13290000000000002         -3.0845670425447400     
  0.13319999999999999         -4.9088419029185957     
  0.13350000000000001         -6.6579297138167091     
  0.13380000000000003         -8.2465555845753489     
  0.13410000000000000         -9.5947313179218430     
  0.13440000000000002         -10.632991804324973     
  0.13469999999999999         -11.307332814040775     
  0.13500000000000001         -11.580779531317196     
  0.13529999999999998         -11.437989560405175     
  0.13560000000000000         -10.884823628523609     
  0.13590000000000002         -9.9480248346637303     
  0.13619999999999999         -8.6757970672662594     
  0.13650000000000001         -7.1323905249705826     
  0.13680000000000003         -5.3959955770045243     
  0.13710000000000000         -3.5544300467543515     
  0.13740000000000002         -1.6973861376700521     
  0.13769999999999999          8.5326754844610164E-002
  0.13800000000000001          1.7122711596092608     
  0.13829999999999998          3.1150248204408459     
  0.13860000000000000          4.2396485533195190     
  0.13890000000000002          5.0542566773874729     
  0.13919999999999999          5.5472388595520945     
  0.13950000000000001          5.7287198723362582     
  0.13979999999999998          5.6311849340635991     
  0.14010000000000000          5.3030489962072744     
  0.14040000000000002          4.8083753709020582     
  0.14069999999999999          4.2209131283093777     
  0.14100000000000001          3.6155832192575588     
  0.14130000000000004          3.0680927687802293     
  0.14160000000000000          2.6435135756554820     
  0.14189999999999997          2.3936449914368092     
  0.14219999999999999          2.3548157824381963     
  0.14250000000000002          2.5390795287960510     
  0.14279999999999998          2.9398966668651130     
  0.14310000000000000          3.5276779111762906     
  0.14339999999999997          4.2524163724996136     
  0.14369999999999999          5.0519224539523631     
  0.14400000000000002          5.8489787484664344     
  0.14429999999999998          6.5650127824693598     
  0.14460000000000001          7.1226669904090816     
  0.14490000000000003          7.4511708624311952     
  0.14520000000000000          7.4978430877829645     
  0.14550000000000002          7.2260106507588011     
  0.14579999999999999          6.6238014126186275     
  0.14610000000000001          5.7037056469479079     
  0.14640000000000003          4.5003600761629254     
  0.14670000000000000          3.0727743723191576     
  0.14699999999999996          1.4945471482249117     
  0.14729999999999999        -0.14811847970159731     
  0.14760000000000001         -1.7643133658729204     
  0.14789999999999998         -3.2673983773932918     
  0.14820000000000000         -4.5792205666709815     