  -1.4999999999999999E-002     0.0000000000000000     
  -1.4700000000000000E-002     0.0000000000000000     
  -1.4400000000000000E-002     0.0000000000000000     
  -1.4100000000000000E-002     0.0000000000000000     
  -1.3800000000000000E-002     0.0000000000000000     
  -1.3500000000000000E-002     0.0000000000000000     
  -1.3200000000000000E-002     0.0000000000000000     
  -1.2899999999999998E-002     0.0000000000000000     
  -1.2600000000000000E-002     0.0000000000000000     
  -1.2299999999999998E-002     0.0000000000000000     
  -1.2000000000000000E-002     0.0000000000000000     
  -1.1699999999999999E-002     0.0000000000000000     
  -1.1399999999999999E-002     0.0000000000000000     
  -1.1099999999999999E-002     0.0000000000000000     
  -1.0799999999999999E-002     0.0000000000000000     
  -1.0499999999999999E-002     0.0000000000000000     
  -1.0199999999999999E-002     0.0000000000000000     
  -9.8999999999999991E-003     0.0000000000000000     
  -9.5999999999999992E-003     0.0000000000000000     
  -9.2999999999999992E-003     0.0000000000000000     
  -8.9999999999999993E-003     0.0000000000000000     
  -8.6999999999999994E-003     0.0000000000000000     
  -8.3999999999999995E-003     0.0000000000000000     
  -8.0999999999999996E-003     0.0000000000000000     
  -7.7999999999999988E-003     0.0000000000000000     
  -7.4999999999999997E-003     0.0000000000000000     
  -7.1999999999999998E-003     0.0000000000000000     
  -6.8999999999999981E-003     0.0000000000000000     
  -6.5999999999999982E-003     0.0000000000000000     
  -6.3000000000000000E-003     0.0000000000000000     
  -6.0000000000000001E-003     0.0000000000000000     
  -5.6999999999999985E-003     0.0000000000000000     
  -5.3999999999999986E-003     0.0000000000000000     
  -5.1000000000000004E-003     0.0000000000000000     
  -4.7999999999999987E-003     0.0000000000000000     
  -4.5000000000000005E-003     0.0000000000000000     
  -4.1999999999999989E-003     0.0000000000000000     
  -3.8999999999999990E-003     0.0000000000000000     
  -3.5999999999999990E-003     0.0000000000000000     
  -3.2999999999999991E-003     0.0000000000000000     
  -2.9999999999999992E-003     0.0000000000000000     
  -2.6999999999999993E-003     0.0000000000000000     
  -2.3999999999999994E-003     0.0000000000000000     
  -2.0999999999999977E-003     0.0000000000000000     
  -1.7999999999999995E-003     0.0000000000000000     
  -1.4999999999999979E-003     0.0000000000000000     
  -1.1999999999999997E-003     0.0000000000000000     
  -8.9999999999999976E-004     0.0000000000000000     
  -5.9999999999999810E-004     0.0000000000000000     
  -2.9999999999999992E-004     0.0000000000000000     
   0.0000000000000000          0.0000000000000000     
   3.0000000000000165E-004     0.0000000000000000     
   5.9999999999999984E-004     0.0000000000000000     
   9.0000000000000149E-004     0.0000000000000000     
   1.2000000000000031E-003     0.0000000000000000     
   1.5000000000000013E-003     0.0000000000000000     
   1.8000000000000030E-003    -1.4167155759541857E-043
   2.1000000000000012E-003     2.1641105978967046E-042
   2.3999999999999994E-003     1.3709852443989621E-041
   2.7000000000000010E-003     1.8902086906044953E-038
   2.9999999999999992E-003    -1.9617846793402780E-037
   3.3000000000000008E-003     9.0469533686389635E-037
   3.6000000000000025E-003     7.4657771713337571E-036
   3.9000000000000007E-003    -3.1789269381670395E-035
   4.2000000000000023E-003    -9.6309487777770128E-035
   4.5000000000000005E-003    -4.7272555998805553E-034
   4.7999999999999987E-003     1.8933485341549111E-033
   5.1000000000000004E-003     1.2454844635268836E-032
   5.4000000000000020E-003     2.1244455027654697E-032
   5.7000000000000037E-003    -1.7122047568476132E-031
   5.9999999999999984E-003    -8.5499325682792841E-031
   6.3000000000000000E-003     9.4880454620431630E-031
   6.6000000000000017E-003     1.6727379313098143E-029
   6.9000000000000034E-003     1.4717599863975115E-029
   7.2000000000000015E-003    -3.7118425427026517E-028
   7.5000000000000032E-003     1.3200890481818602E-028
   7.8000000000000014E-003     6.7048764343882560E-027
   8.0999999999999996E-003    -2.7104611312727949E-026
   8.4000000000000012E-003     1.3685036960799761E-026
   8.7000000000000029E-003     4.1348284770251911E-025
   9.0000000000000011E-003    -2.6425155414796319E-024
   9.2999999999999992E-003     6.6437786120219516E-024
   9.6000000000000009E-003     1.5597620693267141E-023
   9.8999999999999991E-003    -2.1240820179246742E-022
   1.0200000000000001E-002     9.2575533592827914E-022
   1.0500000000000002E-002    -1.9680811962306525E-021
   1.0800000000000004E-002    -1.1389037505097825E-021
   1.1099999999999999E-002     2.5812615726013905E-020
   1.1400000000000000E-002    -1.0311701251689321E-019
   1.1700000000000002E-002     1.9166972459525457E-019
   1.2000000000000004E-002     2.9363493133303896E-019
   1.2300000000000002E-002    -4.3664966206017385E-018
   1.2600000000000000E-002     2.4751103802292215E-017
   1.2900000000000002E-002    -1.1493136043149632E-016
   1.3200000000000000E-002     5.1532718064091325E-016
   1.3500000000000002E-002    -2.3523682301361049E-015
   1.3800000000000003E-002     1.0767771350837896E-014
   1.4100000000000001E-002    -4.7213070707952943E-014
   1.4400000000000000E-002     1.8865320249244396E-013
   1.4700000000000001E-002    -6.5132069890303986E-013
   1.4999999999999999E-002     1.7910791601823857E-012
   1.5300000000000001E-002    -3.1371473568313081E-012
   1.5600000000000003E-002    -1.2749916747495413E-012
   1.5899999999999997E-002     3.3474908451053353E-011
   1.6199999999999999E-002    -1.2891263763277974E-010
   1.6500000000000001E-002     2.3313071432267591E-010
   1.6800000000000002E-002     9.2421425584029338E-011
   1.7100000000000004E-002    -1.6437275378837854E-009
   1.7400000000000006E-002     3.3791801288693763E-009
   1.7700000000000000E-002     1.7966826460825140E-009
   1.8000000000000002E-002    -1.8354873542843905E-008
   1.8300000000000004E-002     1.3115119596418960E-008
   1.8600000000000005E-002     6.1237404944057042E-008
   1.8900000000000000E-002    -8.0565414385829874E-008
   1.9200000000000002E-002    -2.0697953947041318E-007
   1.9500000000000003E-002     2.1243787214216540E-007
   1.9799999999999998E-002     6.3538872016260040E-007
   2.0100000000000000E-002    -2.9008657142249810E-007
   2.0400000000000001E-002    -1.7198514561938699E-006
   2.0700000000000003E-002    -8.0029867408255114E-008
   2.0999999999999998E-002     6.1730954065330428E-006
   2.1299999999999999E-002     1.3499567284296719E-005
   2.1600000000000001E-002     1.8624029119205484E-005
   2.1900000000000003E-002     2.5478501074214682E-005
   2.2200000000000004E-002     4.2159011182651763E-005
   2.2500000000000006E-002     7.1901183806152727E-005
   2.2800000000000001E-002     1.1298759476993542E-004
   2.3100000000000002E-002     1.6880760881755961E-004
   2.3400000000000004E-002     2.5325158020225724E-004
   2.3699999999999999E-002     3.8374415255430560E-004
   2.4000000000000000E-002     5.7404287396333581E-004
   2.4300000000000002E-002     8.4046561915125434E-004
   2.4599999999999997E-002     1.2127570572637962E-003
   2.4900000000000005E-002     1.7322761673927997E-003
   2.5200000000000000E-002     2.4423743781603114E-003
   2.5499999999999995E-002     3.3887224963113295E-003
   2.5800000000000003E-002     4.6286871920981406E-003
   2.6099999999999998E-002     6.2320208090221371E-003
   2.6400000000000007E-002     8.2674338530779705E-003
   2.6700000000000002E-002     1.0792532638195110E-002
   2.6999999999999996E-002     1.3855301568152779E-002
   2.7300000000000005E-002     1.7490436520039065E-002
   2.7600000000000000E-002     2.1700312573023552E-002
   2.7900000000000008E-002     2.6431995503512710E-002
   2.8200000000000003E-002     3.1566564194737419E-002
   2.8499999999999998E-002     3.6914858157148615E-002
   2.8800000000000006E-002     4.2202496828347619E-002
   2.9100000000000001E-002     4.7053142086743258E-002
   2.9400000000000003E-002     5.0986893383616047E-002
   2.9700000000000004E-002     5.3439977285173877E-002
   3.0000000000000006E-002     5.3793858960672569E-002
   3.0300000000000001E-002     5.1400384530164739E-002
   3.0600000000000002E-002     4.5618109161333645E-002
   3.0900000000000004E-002     3.5889013010252470E-002
   3.1199999999999999E-002     2.1815854719080728E-002
   3.1500000000000007E-002     3.2281017720588315E-003
   3.1800000000000002E-002    -1.9756144122430316E-002
   3.2099999999999997E-002    -4.6672112809147979E-002
   3.2400000000000005E-002    -7.6656737817231729E-002
   3.2700000000000000E-002   -0.10844858142145226     
   3.3000000000000002E-002   -0.14042081959695321     
   3.3300000000000003E-002   -0.17065303190909037     
   3.3599999999999998E-002   -0.19703888641760980     
   3.3900000000000000E-002   -0.21741948759505800     
   3.4200000000000001E-002   -0.22976168384821172     
   3.4500000000000003E-002   -0.23232175863106141     
   3.4799999999999998E-002   -0.22379928298164398     
   3.5099999999999999E-002   -0.20352265202089892     
   3.5400000000000001E-002   -0.17152908488595345     
   3.5699999999999996E-002   -0.12860558320891080     
   3.6000000000000004E-002    -7.6272714930581895E-002
   3.6299999999999999E-002    -1.6704958581407397E-002
   3.6600000000000008E-002     4.7385776012684788E-002
   3.6900000000000002E-002    0.11293174378398284     
   3.7199999999999997E-002    0.17672602452024483     
   3.7500000000000006E-002    0.23562940286886952     
   3.7800000000000000E-002    0.28678837191732909     
   3.8100000000000009E-002    0.32773282738431136     
   3.8400000000000004E-002    0.35645845774270385     
   3.8699999999999998E-002    0.37156701349347032     
   3.9000000000000007E-002    0.37223766500375655     
   3.9300000000000002E-002    0.35808969688183645     
   3.9600000000000003E-002    0.32913659589490007     
   3.9900000000000005E-002    0.28576026538195126     
   4.0200000000000000E-002    0.22860981489248378     
   4.0500000000000001E-002    0.15846501555439549     
   4.0800000000000003E-002     7.6297074257434316E-002
   4.1100000000000005E-002    -1.6673160197258931E-002
   4.1399999999999999E-002   -0.11889385042540240     
   4.1700000000000008E-002   -0.22841548932132766     
   4.2000000000000003E-002   -0.34282170165474701     
   4.2299999999999997E-002   -0.45902508317506108     
   4.2600000000000006E-002   -0.57324633218989773     
   4.2900000000000001E-002   -0.68105458074112613     
   4.3200000000000002E-002   -0.77747130888438765     
   4.3500000000000004E-002   -0.85716946523127746     
   4.3799999999999999E-002   -0.91470359302052451     
   4.4100000000000000E-002   -0.94484906815370184     
   4.4400000000000002E-002   -0.94306134339961667     
   4.4700000000000004E-002   -0.90582575160491174     
   4.4999999999999998E-002   -0.83101741129895723     
   4.5300000000000000E-002   -0.71820240476460817     
   4.5600000000000002E-002   -0.56883713835534100     
   4.5899999999999996E-002   -0.38630432559409378     
   4.6200000000000005E-002   -0.17583717093950421     
   4.6500000000000000E-002     5.5756672796376625E-002
   4.6799999999999994E-002    0.30044978946513207     
   4.7100000000000003E-002    0.54938105766937095     
   4.7399999999999998E-002    0.79347396213994348     
   4.7700000000000006E-002     1.0239150036600646     
   4.8000000000000001E-002     1.2326566150179883     
   4.8300000000000010E-002     1.4127893473962529     
   4.8600000000000004E-002     1.5588298541741012     
   4.8899999999999999E-002     1.6669362346319982     
   4.9200000000000008E-002     1.7348538530024324     
   4.9500000000000002E-002     1.7618084001136747     
   4.9800000000000011E-002     1.7483711106986768     
   5.0100000000000006E-002     1.6960714081485282     
   5.0400000000000000E-002     1.6071408450974529     
   5.0700000000000009E-002     1.4842818135561608     
   5.1000000000000004E-002     1.3303243707447778     
   5.1299999999999998E-002     1.1481611690762317     
   5.1600000000000007E-002    0.94062349478543661     
   5.1900000000000002E-002    0.71048116466374944     
   5.2200000000000010E-002    0.46056217764167595     
   5.2500000000000005E-002    0.19389290379793347     
   5.2800000000000000E-002    -8.6079629096700375E-002
   5.3099999999999994E-002   -0.37528526776249971     
   5.3400000000000003E-002   -0.66890064828276630     
   5.3699999999999998E-002   -0.96123377260382403     
   5.4000000000000006E-002    -1.2455734542979058     
   5.4300000000000001E-002    -1.5142721537632033     
   5.4599999999999996E-002    -1.7589293992726576     
   5.4900000000000004E-002    -1.9706037148948998     
   5.5199999999999999E-002    -2.1401340642673974     
   5.5499999999999994E-002    -2.2585544178754562     
   5.5800000000000002E-002    -2.3176832177425366     
   5.6099999999999997E-002    -2.3106992012809346     
   5.6400000000000006E-002    -2.2326440174304878     
   5.6700000000000000E-002    -2.0811450705057801     
   5.6999999999999995E-002    -1.8568579677247339     
   5.7300000000000004E-002    -1.5637493035693237     
   5.7599999999999998E-002    -1.2095352893228535     
   5.7900000000000007E-002   -0.80555382247264296     
   5.8200000000000002E-002   -0.36647342420021300     
   5.8499999999999996E-002     9.0231386303470856E-002
   5.8800000000000005E-002    0.54511606976428850     
   5.9100000000000000E-002    0.97768657586410268     
   5.9400000000000008E-002     1.3676428826000384     
   5.9700000000000003E-002     1.6962890146804155     
   6.0000000000000012E-002     1.9476527901036857     
   6.0300000000000006E-002     2.1095353365950400     
   6.0600000000000001E-002     2.1744391481241632     
   6.0900000000000010E-002     2.1401416735653025     
   6.1200000000000004E-002     2.0099216360271948     
   6.1500000000000013E-002     1.7922299826381529     
   6.1800000000000008E-002     1.4999848047606485     
   6.2100000000000002E-002     1.1499584420518134     
   6.2399999999999997E-002    0.76158501194410311     
   6.2700000000000006E-002    0.35540810382146026     
   6.3000000000000000E-002    -4.8182293097013003E-002
   6.3300000000000009E-002   -0.43007642161453036     
   6.3600000000000004E-002   -0.77340744625952962     
   6.3899999999999998E-002    -1.0646449276365986     
   6.4199999999999993E-002    -1.2945431921186545     
   6.4500000000000002E-002    -1.4579887376248521     
   6.4800000000000010E-002    -1.5538290352161499     
   6.5100000000000005E-002    -1.5850487020074526     
   6.5400000000000000E-002    -1.5583975913971808     
   6.5700000000000008E-002    -1.4835243192700731     
   6.5999999999999989E-002    -1.3717872868903807     
   6.6299999999999998E-002    -1.2354308590732446     
   6.6600000000000006E-002    -1.0870583255389981     
   6.6900000000000001E-002   -0.93834192319280585     
   6.7199999999999996E-002   -0.79881068690260926     
   6.7500000000000004E-002   -0.67529763060730896     
   6.7800000000000013E-002   -0.57146678076672153     
   6.8099999999999994E-002   -0.48760355971711755     
   6.8400000000000002E-002   -0.42040983367849905     
   6.8700000000000011E-002   -0.36325996678516204     
   6.8999999999999992E-002   -0.30699828876847479     
   6.9300000000000000E-002   -0.24093141845163224     
   6.9600000000000009E-002   -0.15379670325998263     
   6.9900000000000004E-002    -3.4881046295248082E-002
   7.0199999999999999E-002    0.12465031201163827     
   7.0500000000000007E-002    0.33047243108778690     
   7.0800000000000016E-002    0.58434027611633665     
   7.1099999999999997E-002    0.88353787958442176     
   7.1400000000000005E-002     1.2205108452475173     
   7.1700000000000000E-002     1.5828834065964950     
   7.1999999999999995E-002     1.9542689437601064     
   7.2300000000000003E-002     2.3150686987963973     
   7.2600000000000012E-002     2.6435011381953917     
   7.2900000000000006E-002     2.9170949448479053     
   7.3200000000000001E-002     3.1144034698185123     
   7.3499999999999996E-002     3.2163708793195891     
   7.3800000000000004E-002     3.2076343305872492     
   7.4099999999999999E-002     3.0777588609425157     
   7.4400000000000008E-002     2.8223215563631561     
   7.4700000000000003E-002     2.4435158488413626     
   7.5000000000000011E-002     1.9500581708811398     
   7.5299999999999992E-002     1.3568957188370754     
   7.5600000000000001E-002    0.68488028090183484     
   7.5900000000000009E-002    -4.0120464102285300E-002
   7.6200000000000004E-002   -0.78882228118328068     
   7.6499999999999999E-002    -1.5300379324629618     
   7.6800000000000007E-002    -2.2319941637958274     
   7.7099999999999988E-002    -2.8638631926319791     
   7.7399999999999997E-002    -3.3977116635013482     
   7.7700000000000005E-002    -3.8100913384977790     
   7.8000000000000014E-002    -4.0827038630390815     
   7.8299999999999995E-002    -4.2033664674058357     
   7.8600000000000003E-002    -4.1668464606721800     
   7.8900000000000012E-002    -3.9750577730098797     
   7.9199999999999993E-002    -3.6367086486123101     
   7.9500000000000001E-002    -3.1664361536968171     
   7.9800000000000010E-002    -2.5841466142986822     
   8.0100000000000018E-002    -1.9141665922629305     
   8.0399999999999999E-002    -1.1836278708301322     
   8.0700000000000008E-002   -0.42105336930180326     
   8.1000000000000003E-002    0.34485261716052718     
   8.1299999999999997E-002     1.0862774591707145     
   8.1600000000000006E-002     1.7773442840261833     
   8.1900000000000014E-002     2.3950421386345102     
   8.2199999999999995E-002     2.9197049652780964     
   8.2500000000000004E-002     3.3352195495668182     
   8.2799999999999999E-002     3.6290641757452189     
   8.3100000000000007E-002     3.7923306198714508     
   8.3400000000000002E-002     3.8197825254026760     
   8.3700000000000011E-002     3.7094657258509978     
   8.4000000000000005E-002     3.4626511751499938     
   8.4300000000000000E-002     3.0840354958199185     
   8.4599999999999995E-002     2.5819516064365100     
   8.4900000000000003E-002     1.9684647648890103     
   8.5199999999999998E-002     1.2594722839327319     
   8.5500000000000007E-002    0.47512335817072981     
   8.5800000000000001E-002   -0.36006162215591692     
   8.6100000000000010E-002    -1.2176252960001284     
   8.6399999999999991E-002    -2.0656145216693700     
   8.6699999999999999E-002    -2.8694381823572574     
   8.7000000000000008E-002    -3.5930584223372994     
   8.7300000000000003E-002    -4.2007817221739696     
   8.7599999999999997E-002    -4.6594246021270411     
   8.7900000000000006E-002    -4.9400953917474997     
   8.8200000000000014E-002    -5.0203820718507437     
   8.8499999999999995E-002    -4.8865531179169803     
   8.8800000000000004E-002    -4.5351296852183101     
   8.9100000000000013E-002    -3.9740109683568647     
   8.9399999999999993E-002    -3.2225870875243423     
   8.9700000000000002E-002    -2.3114095149071838     
   9.0000000000000011E-002    -1.2815468749753895     
   9.0299999999999991E-002   -0.18211801441711628     
   9.0600000000000000E-002    0.93247766623271022     
   9.0900000000000009E-002     2.0053991176636132     
   9.1200000000000017E-002     2.9807974349403841     
   9.1499999999999998E-002     3.8072890765812000     
   9.1800000000000007E-002     4.4410523341193500     
   9.2100000000000001E-002     4.8490027549721022     
   9.2399999999999996E-002     5.0105240740939800     
   9.2700000000000005E-002     4.9187298719766899     
   9.3000000000000013E-002     4.5810144466611060     
   9.3300000000000008E-002     4.0185144665422827     
   9.3600000000000003E-002     3.2652671953345536     
   9.3899999999999997E-002     2.3655960427051506     
   9.4200000000000006E-002     1.3713205702385316     
   9.4500000000000001E-002    0.33960708776293624     
   9.4800000000000009E-002   -0.67073213888281069     
   9.5100000000000004E-002    -1.6028126839767105     
   9.5399999999999999E-002    -2.4043773891382134     
   9.5699999999999993E-002    -3.0310366222833478     
   9.6000000000000002E-002    -3.4483201041909988     
   9.6300000000000011E-002    -3.6335520790412676     
   9.6600000000000005E-002    -3.5774920498497345     
   9.6900000000000000E-002    -3.2844037609444330     
   9.7200000000000009E-002    -2.7719324000930401     
   9.7499999999999989E-002    -2.0700394501202806     
   9.7799999999999998E-002    -1.2192038702209143     
   9.8100000000000007E-002   -0.26847541458330082     
   9.8400000000000015E-002    0.72774448002846204     
   9.8699999999999996E-002     1.7132007849677575     
   9.9000000000000005E-002     2.6322974066371700     
   9.9300000000000013E-002     3.4337065260722062     
   9.9599999999999994E-002     4.0737567529235683     
   9.9900000000000003E-002     4.5184515215613752     
  0.10020000000000001          4.7453561573109466     
  0.10049999999999999          4.7447842757351975     
  0.10080000000000000          4.5199513358749615     
  0.10110000000000001          4.0866615683925378     
  0.10140000000000000          3.4718150425777483     
  0.10170000000000000          2.7116221291058187     
  0.10200000000000001          1.8493297415809624     
  0.10230000000000002         0.93215311574545434     
  0.10260000000000000          8.6520212066350521E-003
  0.10290000000000001        -0.87399568818373718     
  0.10320000000000000         -1.6731763971348683     
  0.10350000000000001         -2.3531917205443813     
  0.10380000000000000         -2.8874174814290710     
  0.10410000000000001         -3.2599044809901923     
  0.10440000000000001         -3.4661545306107731     
  0.10470000000000000         -3.5139596058462064     
  0.10500000000000000         -3.4229883113916397     
  0.10530000000000000         -3.2225268264586822     
  0.10560000000000000         -2.9497164363411179     
  0.10590000000000001         -2.6470103860339940     
  0.10620000000000000         -2.3582808504652295     
  0.10650000000000001         -2.1245734782276475     
  0.10679999999999999         -1.9799385059037409     
  0.10710000000000000         -1.9481195279614405     
  0.10740000000000001         -2.0398918289990986     
  0.10770000000000000         -2.2502700851892099     
  0.10800000000000000         -2.5583161935097669     
  0.10830000000000001         -2.9286320713796612     
  0.10859999999999999         -3.3136421957289697     
  0.10890000000000000         -3.6578397515003935     
  0.10920000000000001         -3.9027390975168537     
  0.10950000000000001         -3.9922901592613504     
  0.10979999999999999         -3.8791022791818746     
  0.11009999999999999         -3.5293322420780493     
  0.11040000000000001         -2.9266762098042856     
  0.11070000000000001         -2.0748212642096151     
  0.11100000000000000        -0.99755948411800288     
  0.11130000000000000         0.26183765289611627     
  0.11160000000000002          1.6436194844398599     
  0.11190000000000001          3.0766916117070564     
  0.11220000000000001          4.4836429549320886     
  0.11250000000000000          5.7861008761956629     
  0.11280000000000000          6.9108996003042105     
  0.11309999999999999          7.7951153114000888     
  0.11340000000000001          8.3897868688671764     
  0.11369999999999998          8.6626666391717890     
  0.11400000000000000          8.5994990863789109     
  0.11430000000000000          8.2040212906077841     
  0.11460000000000002          7.4966816496450939     
  0.11489999999999999          6.5122471948000609     
  0.11520000000000001          5.2975812492438035     
  0.11550000000000001          3.9082582008126154     
  0.11580000000000000          2.4048128541885245     
  0.11609999999999999         0.85057386565355841     
  0.11640000000000002        -0.69126470899001580     
  0.11670000000000001         -2.1603588893745527     
  0.11700000000000001         -3.5011293430463555     
  0.11730000000000000         -4.6643912634472251     
  0.11760000000000000         -5.6086406317523014     
  0.11789999999999999         -6.3017975500015924     
  0.11820000000000001         -6.7219595218234378     
  0.11850000000000001         -6.8581042446741129     
  0.11880000000000000         -6.7110297881895908     
  0.11910000000000000         -6.2933119556711006     
  0.11940000000000002         -5.6291483035744676     
  0.11970000000000001         -4.7541163957495174     
  0.12000000000000001         -3.7134515802044215     
  0.12030000000000000         -2.5595775883549781     
  0.12060000000000000         -1.3500134728650954     
  0.12089999999999999        -0.14481761075180605     
  0.12119999999999999         0.99787898870799419     
  0.12150000000000001          2.0252871523315075     
  0.12180000000000001          2.8930164237024356     
  0.12210000000000000          3.5673430688646173     
  0.12239999999999999          4.0272762781648979     
  0.12270000000000002          4.2662382536853389     
  0.12300000000000001          4.2908590715163477     
  0.12330000000000001          4.1188287130430687     
  0.12360000000000000          3.7773884147720489     
  0.12390000000000000          3.2996752036296573     
  0.12419999999999999          2.7210214118204106     
  0.12450000000000001          2.0756334728616013     
  0.12480000000000001          1.3931865757145823     
  0.12509999999999999         0.69722426063672882     
  0.12540000000000001          4.0026678902900237E-003
  0.12570000000000003        -0.67758851919313867     
  0.12600000000000000         -1.3440962213022918     
  0.12630000000000002         -1.9954951652707664     
  0.12659999999999999         -2.6325659493863727     
  0.12690000000000001         -3.2538771034471763     
  0.12719999999999998         -3.8531590080300324     
  0.12750000000000000         -4.4172998302411797     
  0.12780000000000002         -4.9260168524343495     
  0.12809999999999999         -5.3522143133622091     
  0.12840000000000001         -5.6633753612168167     
  0.12869999999999998         -5.8245047745556295     
  0.12900000000000000         -5.8018238331734189     
  0.12930000000000003         -5.5659496848797723     
  0.12959999999999999         -5.0956948862954583     
  0.12990000000000002         -4.3815800122067090     
  0.13019999999999998         -3.4273861054421633     
  0.13050000000000000         -2.2515140126086433     
  0.13080000000000003        -0.88669436661521384     
  0.13109999999999999         0.62180145290326516     
  0.13140000000000002          2.2182257471268527     
  0.13169999999999998          3.8401476347444827     
  0.13200000000000001          5.4224023132627117     
  0.13229999999999997          6.9000215665592082     
  0.13260000000000000          8.2124092731044733     
  0.13290000000000002          9.3063920315449096     
  0.13319999999999999          10.138091026338468     
  0.13350000000000001          10.674263532140319     
  0.13380000000000003          10.892300154340477     
  0.13410000000000000          10.780880699870362     
  0.13440000000000002          10.339126834024549     
  0.13469999999999999          9.5748694951190210     
  0.13500000000000001          8.5050660670323985     
  0.13529999999999998          7.1542825723430923     
  0.13560000000000000          5.5543899712885736     
  0.13590000000000002          3.7459350241228453     
  0.13619999999999999          1.7769319975558142     
  0.13650000000000001        -0.29674776922213364     
  0.13680000000000003         -2.4100127870936094     
  0.13710000000000000         -4.4903290149116781     
  0.13740000000000002         -6.4595748053779651     
  0.13769999999999999         -8.2359763122240661     
  0.13800000000000001         -9.7379151853980801     
  0.13829999999999998         -10.888377602954753     
  0.13860000000000000         -11.621575251796578     
  0.13890000000000002         -11.888177418451024     
  0.13919999999999999         -11.659360682135796     
  0.13950000000000001         -10.932906488588184     
  0.13979999999999998         -9.7357061215649381     
  0.14010000000000000         -8.1228211459316171     
  0.14040000000000002         -6.1775219725368489     
  0.14069999999999999         -4.0068830381837248     
  0.14100000000000001         -1.7345490920537259     
  0.14130000000000004         0.50658276997225282     
  0.14160000000000000          2.5837974496796599     
  0.14189999999999997          4.3736450147638823     
  0.14219999999999999          5.7714870844283332     
  0.14250000000000002          6.6992919111270375     
  0.14279999999999998          7.1091746022276716     
  0.14310000000000000          6.9878638687118997     
  0.14339999999999997          6.3575323738558103     
  0.14369999999999999          5.2712935785040944     
  0.14400000000000002          3.8101305674185149     
  0.14429999999999998          2.0762670707207711     
  0.14460000000000001         0.18452917994755014     
  0.14490000000000003         -1.7447196951352457     
  0.14520000000000000         -3.5938019868469366     
  0.14550000000000002         -5.2553701371180832     
  0.14579999999999999         -6.6378590337548982     
  0.14610000000000001         -7.6697417714868354     
  0.14640000000000003         -8.3020797617217674     
  0.14670000000000000         -8.5103479817449017     
  0.14699999999999996         -8.2939597493685486     
  0.14729999999999999         -7.6731047647533455     
  0.14760000000000001         -6.6870064433735346     
  0.14789999999999998         -5.3912560727314895     
  0.14820000000000000         -3.8516598844255832     