  -1.4999999999999999E-002     0.0000000000000000     
  -1.4700000000000000E-002     7.8333161303726080E-037
  -1.4400000000000000E-002     4.6973934291123494E-029
  -1.4100000000000000E-002     2.3920235767897665E-025
  -1.3800000000000000E-002     4.2073726864067398E-023
  -1.3500000000000000E-002     1.0188412513647464E-021
  -1.3200000000000000E-002    -2.3589727081430798E-022
  -1.2899999999999998E-002    -2.3093860777682839E-019
  -1.2600000000000000E-002    -1.5166000658143084E-019
  -1.2299999999999998E-002     8.2877239463805958E-018
  -1.2000000000000000E-002    -1.4283907458114133E-018
  -1.1699999999999999E-002    -1.6856514082237087E-017
  -1.1399999999999999E-002     3.1599761385944508E-016
  -1.1099999999999999E-002    -5.6348077858130436E-015
  -1.0799999999999999E-002     2.3900697039260411E-015
  -1.0499999999999999E-002     1.3809736998283362E-013
  -1.0199999999999999E-002    -3.6741981136900985E-013
  -9.8999999999999991E-003    -6.4594780999645461E-013
  -9.5999999999999992E-003     4.0757229185931331E-012
  -9.2999999999999992E-003    -4.6850116849883947E-012
  -8.9999999999999993E-003    -6.8624282836264708E-012
  -8.6999999999999994E-003     2.7603175788099205E-011
  -8.3999999999999995E-003    -3.8485580337803853E-011
  -8.0999999999999996E-003     1.2975163151820740E-011
  -7.7999999999999988E-003     5.7832973027962265E-011
  -7.4999999999999997E-003    -1.0555862677718413E-010
  -7.1999999999999998E-003     7.5326793626024650E-011
  -6.8999999999999981E-003    -1.0916977128775577E-010
  -6.5999999999999982E-003     2.8544606053566532E-010
  -6.3000000000000000E-003    -2.2109531288638304E-010
  -6.0000000000000001E-003    -7.0888408249701065E-010
  -5.6999999999999985E-003     2.0361796677509533E-009
  -5.3999999999999986E-003    -7.0000904325337694E-010
  -5.1000000000000004E-003    -4.0175938159366664E-009
  -4.7999999999999987E-003     3.6890124175209690E-009
  -4.5000000000000005E-003     5.8256461227938800E-009
  -4.1999999999999989E-003    -9.0458511764992273E-009
  -3.8999999999999990E-003    -5.0989705557010466E-009
  -3.5999999999999990E-003     1.7098947191820302E-008
  -3.2999999999999991E-003    -1.0445796717750149E-009
  -2.9999999999999992E-003    -2.5869968892627023E-008
  -2.6999999999999993E-003     6.5327120387080653E-009
  -2.3999999999999994E-003     4.4723268877039403E-008
  -2.0999999999999977E-003    -1.4528682136814944E-008
  -1.7999999999999995E-003    -7.9787852410643206E-008
  -1.4999999999999979E-003     2.6478705470345015E-008
  -1.1999999999999997E-003     1.5603283492978053E-007
  -8.9999999999999976E-004    -2.1100575752766758E-008
  -5.9999999999999810E-004    -4.1833199729095286E-007
  -2.9999999999999992E-004     5.9516798436209737E-008
   0.0000000000000000          1.0956434784318876E-006
   3.0000000000000165E-004    -2.3122486334454941E-007
   5.9999999999999984E-004    -2.9652532893619453E-006
   9.0000000000000149E-004     2.7297667406882646E-007
   1.2000000000000031E-003     8.6069330411471284E-006
   1.5000000000000013E-003     8.7355579238505507E-007
   1.8000000000000030E-003    -2.5778193149194883E-005
   2.1000000000000012E-003    -1.4130424492480519E-005
   2.3999999999999994E-003     9.8233351084119289E-005
   2.7000000000000010E-003     3.0497734060218871E-004
   2.9999999999999992E-003     5.5481509991499832E-004
   3.3000000000000008E-003     8.2435754729343774E-004
   3.6000000000000025E-003     1.1570406892190922E-003
   3.9000000000000007E-003     1.6713959305062710E-003
   4.2000000000000023E-003     2.5433338661478883E-003
   4.5000000000000005E-003     3.9466912072489381E-003
   4.7999999999999987E-003     6.0456626811305220E-003
   5.1000000000000004E-003     9.0713201217706863E-003
   5.4000000000000020E-003     1.3371248474150351E-002
   5.7000000000000037E-003     1.9420740756707983E-002
   5.9999999999999984E-003     2.7823734503289232E-002
   6.3000000000000000E-003     3.9293489613929589E-002
   6.6000000000000017E-003     5.4636473683402020E-002
   6.9000000000000034E-003     7.4758193010025939E-002
   7.2000000000000015E-003    0.10061575288419555     
   7.5000000000000032E-003    0.13308933135987794     
   7.8000000000000014E-003    0.17287183987936011     
   8.0999999999999996E-003    0.22031721082112543     
   8.4000000000000012E-003    0.27518248076229634     
   8.7000000000000029E-003    0.33633669629702345     
   9.0000000000000011E-003    0.40145739229236899     
   9.2999999999999992E-003    0.46672641448906166     
   9.6000000000000009E-003    0.52651636927399592     
   9.8999999999999991E-003    0.57320063386272291     
   1.0200000000000001E-002    0.59704201483522557     
   1.0500000000000002E-002    0.58636372404306503     
   1.0800000000000004E-002    0.52792804692811734     
   1.1099999999999999E-002    0.40768825508653894     
   1.1400000000000000E-002    0.21186812087320067     
   1.1700000000000002E-002    -7.1541462158642530E-002
   1.2000000000000004E-002   -0.45105766240817025     
   1.2300000000000002E-002   -0.92978755827799742     
   1.2600000000000000E-002    -1.5035246340654964     
   1.2900000000000002E-002    -2.1590277778265823     
   1.3200000000000000E-002    -2.8727406979563535     
   1.3500000000000002E-002    -3.6102504149646681     
   1.3800000000000003E-002    -4.3266472139290988     
   1.4100000000000001E-002    -4.9682354169386418     
   1.4400000000000000E-002    -5.4753741404362497     
   1.4700000000000001E-002    -5.7865146753563375     
   1.4999999999999999E-002    -5.8430546893603603     
   1.5300000000000001E-002    -5.5949072078768509     
   1.5600000000000003E-002    -5.0061082190606561     
   1.5899999999999997E-002    -4.0599064335822916     
   1.6199999999999999E-002    -2.7630388448843357     
   1.6500000000000001E-002    -1.1477581216275918     
   1.6800000000000002E-002    0.72834131850324790     
   1.7100000000000004E-002     2.7834481680156498     
   1.7400000000000006E-002     4.9173058659657052     
   1.7700000000000000E-002     7.0170811522813494     
   1.8000000000000002E-002     8.9651650045252271     
   1.8300000000000004E-002     10.649629437653919     
   1.8600000000000005E-002     11.971245593954283     
   1.8900000000000000E-002     12.852468308218175     
   1.9200000000000002E-002     13.243548206362602     
   1.9500000000000003E-002     13.124729925252206     
   1.9799999999999998E-002     12.509001554972588     
   2.0100000000000000E-002     11.438336209089401     
   2.0400000000000001E-002     9.9796789629076823     
   2.0700000000000003E-002     8.2188156810427397     
   2.0999999999999998E-002     6.2502073269997549     
   2.1299999999999999E-002     4.1712559954190285     
   2.1600000000000001E-002     2.0727245389401916     
   2.1900000000000003E-002     3.1372213533390932E-002
   2.2200000000000004E-002    -1.8919439168191730     
   2.2500000000000006E-002    -3.6585359152646020     
   2.2800000000000001E-002    -5.2489642413541588     
   2.3100000000000002E-002    -6.6610936187022221     
   2.3400000000000004E-002    -7.9084056638342908     
   2.3699999999999999E-002    -9.0100801982984411     
   2.4000000000000000E-002    -9.9893139191606952     
   2.4300000000000002E-002    -10.865083514815025     
   2.4599999999999997E-002    -11.645627778392457     
   2.4900000000000005E-002    -12.328872468166843     
   2.5200000000000000E-002    -12.895231975648425     
   2.5499999999999995E-002    -13.311023478420221     
   2.5800000000000003E-002    -13.530226469256663     
   2.6099999999999998E-002    -13.495737792576319     
   2.6400000000000007E-002    -13.149567374647210     
   2.6700000000000002E-002    -12.435239577241672     
   2.6999999999999996E-002    -11.307549284677910     
   2.7300000000000005E-002    -9.7401274019930071     
   2.7600000000000000E-002    -7.7286704740934553     
   2.7900000000000008E-002    -5.2999366937684638     
   2.8200000000000003E-002    -2.5102729532449759     
   2.8499999999999998E-002    0.55227485422446754     
   2.8800000000000006E-002     3.7706109626596316     
   2.9100000000000001E-002     7.0061515355572599     
   2.9400000000000003E-002     10.104538725555269     
   2.9700000000000004E-002     12.908951522701390     
   3.0000000000000006E-002     15.268272128159447     
   3.0300000000000001E-002     17.050862970856294     
   3.0600000000000002E-002     18.155055694271848     
   3.0900000000000004E-002     18.516141589748322     
   3.1199999999999999E-002     18.115480138583980     
   3.1500000000000007E-002     16.979522450827027     
   3.1800000000000002E-002     15.180644775742813     
   3.2099999999999997E-002     12.831307246943265     
   3.2400000000000005E-002     10.073648342856277     
   3.2700000000000000E-002     7.0716413911213110     
   3.3000000000000002E-002     3.9941842558963234     
   3.3300000000000003E-002     1.0042754911558414     
   3.3599999999999998E-002    -1.7536223203939325     
   3.3900000000000000E-002    -4.1656440432209241     
   3.4200000000000001E-002    -6.1532801095280991     
   3.4500000000000003E-002    -7.6802395160342032     
   3.4799999999999998E-002    -8.7511099124254752     
   3.5099999999999999E-002    -9.4087417919414751     
   3.5400000000000001E-002    -9.7298553902262377     
   3.5699999999999996E-002    -9.8141754749404111     
   3.6000000000000004E-002    -9.7762583564422165     
   3.6299999999999999E-002    -9.7342747708332418     
   3.6600000000000008E-002    -9.7973975379251268     
   3.6900000000000002E-002    -10.056782662340531     
   3.7199999999999997E-002    -10.573262167363739     
   3.7500000000000006E-002    -11.368852578646166     
   3.7800000000000000E-002    -12.420350047025503     
   3.8100000000000009E-002    -13.653355579392358     
   3.8400000000000004E-002    -14.942599286991824     
   3.8699999999999998E-002    -16.113666536374772     
   3.9000000000000007E-002    -16.951585786159416     
   3.9300000000000002E-002    -17.215032611794811     
   3.9600000000000003E-002    -16.653869683816762     
   3.9900000000000005E-002    -15.033186990243639     
   4.0200000000000000E-002    -12.161398034788011     
   4.0500000000000001E-002    -7.9162212641125880     
   4.0800000000000003E-002    -2.2704128236549401     
   4.1100000000000005E-002     4.6849778563825275     
   4.1399999999999999E-002     12.731373630945937     
   4.1700000000000008E-002     21.519197312828339     
   4.2000000000000003E-002     30.580062729201270     
   4.2299999999999997E-002     39.352290992889095     
   4.2600000000000006E-002     47.215835487171120     
   4.2900000000000001E-002     53.542625378433961     
   4.3200000000000002E-002     57.747463214964981     
   4.3500000000000004E-002     59.340648676887263     
   4.3799999999999999E-002     57.981067716486017     
   4.4100000000000000E-002     53.511043634983309     
   4.4400000000000002E-002     45.985809431854577     
   4.4700000000000004E-002     35.678409692071888     
   4.4999999999999998E-002     23.067369577975640     
   4.5300000000000000E-002     8.8122550151292458     
   4.5600000000000002E-002    -6.2985695838700764     
   4.5899999999999996E-002    -21.402954024400081     
   4.6200000000000005E-002    -35.626300755085992     
   4.6500000000000000E-002    -48.153877221207161     
   4.6799999999999994E-002    -58.284473398442799     
   4.7100000000000003E-002    -65.481712332410794     
   4.7399999999999998E-002    -69.413146969132555     
   4.7700000000000006E-002    -69.960845942946293     
   4.8000000000000001E-002    -67.227073658376469     
   4.8300000000000010E-002    -61.515434242096333     
   4.8600000000000004E-002    -53.294532738260656     
   4.8899999999999999E-002    -43.162822669371231     
   4.9200000000000008E-002    -31.789293219926257     
   4.9500000000000002E-002    -19.867042460067172     
   4.9800000000000011E-002    -8.0655793248410319     
   5.0100000000000006E-002     3.0193975888386739     
   5.0400000000000000E-002     12.891007510933699     
   5.0700000000000009E-002     21.177047807039816     
   5.1000000000000004E-002     27.642879547507874     
   5.1299999999999998E-002     32.182441752729012     
   5.1600000000000007E-002     34.817821520368724     
   5.1900000000000002E-002     35.672523491112948     
   5.2200000000000010E-002     34.952003447058942     
   5.2500000000000005E-002     32.922214452402990     
   5.2800000000000000E-002     29.873840256489483     
   5.3099999999999994E-002     26.112314132390761     
   5.3400000000000003E-002     21.929275408999544     
   5.3699999999999998E-002     17.588413128328355     
   5.4000000000000006E-002     13.320727235913914     
   5.4300000000000001E-002     9.3089035844123309     
   5.4599999999999996E-002     5.6933578410908101     
   5.4900000000000004E-002     2.5680798543966059     
   5.5199999999999999E-002    -1.6634404682062363E-002
   5.5499999999999994E-002    -2.0442393514085984     
   5.5800000000000002E-002    -3.5336502146634245     
   5.6099999999999997E-002    -4.5272798944202730     
   5.6400000000000006E-002    -5.0845990455710526     
   5.6700000000000000E-002    -5.2808799894167286     
   5.6999999999999995E-002    -5.1936993642776743     
   5.7300000000000004E-002    -4.9028515770515684     
   5.7599999999999998E-002    -4.4832949520881149     
   5.7900000000000007E-002    -3.9994666407868200     
   5.8200000000000002E-002    -3.5065510068827845     
   5.8499999999999996E-002    -3.0450775399279295     
   5.8800000000000005E-002    -2.6419300803417602     
   5.9100000000000000E-002    -2.3133437405864727     
   5.9400000000000008E-002    -2.0626144190133266     
   5.9700000000000003E-002    -1.8861899169371004     
   6.0000000000000012E-002    -1.7761859696070181     
   6.0300000000000006E-002    -1.7190866282697617     
   6.0600000000000001E-002    -1.7042996699408315     
   6.0900000000000010E-002    -1.7202402167209423     
   6.1200000000000004E-002    -1.7562438061181807     
   6.1500000000000013E-002    -1.8066394130090699     
   6.1800000000000008E-002    -1.8623032362641023     
   6.2100000000000002E-002    -1.9177489064120821     
   6.2399999999999997E-002    -1.9662041438826652     
   6.2700000000000006E-002    -1.9979316962536904     
   6.3000000000000000E-002    -2.0066780818199010     
   6.3300000000000009E-002    -1.9818819543708470     
   6.3600000000000004E-002    -1.9161405360625750     
   6.3899999999999998E-002    -1.8053896240068106     
   6.4199999999999993E-002    -1.6451703147525110     
   6.4500000000000002E-002    -1.4399837116641749     
   6.4800000000000010E-002    -1.1959789877655742     
   6.5100000000000005E-002   -0.92333160973405826     
   6.5400000000000000E-002   -0.63809489566060140     
   6.5700000000000008E-002   -0.35334190331259624     
   6.5999999999999989E-002    -8.5456265082623190E-002
   6.6299999999999998E-002    0.15282546021731344     
   6.6600000000000006E-002    0.35453167412613257     
   6.6900000000000001E-002    0.51265126225348967     
   6.7199999999999996E-002    0.62983172777035668     
   6.7500000000000004E-002    0.70955562147455331     
   6.7800000000000013E-002    0.75798677923422519     
   6.8099999999999994E-002    0.78579127243480229     
   6.8400000000000002E-002    0.79831724812461691     
   6.8700000000000011E-002    0.80352192554530799     
   6.8999999999999992E-002    0.80435770178096300     
   6.9300000000000000E-002    0.80024820024789811     
   6.9600000000000009E-002    0.79194771686479526     
   6.9900000000000004E-002    0.77398138693063789     
   7.0199999999999999E-002    0.74353467881199509     
   7.0500000000000007E-002    0.69852357537347420     
   7.0800000000000016E-002    0.63646923933585797     
   7.1099999999999997E-002    0.56037020092681056     
   7.1400000000000005E-002    0.47260006660740722     
   7.1700000000000000E-002    0.37921508551773381     
   7.1999999999999995E-002    0.28771072024517441     
   7.2300000000000003E-002    0.20335985170165172     
   7.2600000000000012E-002    0.13307514279788038     
   7.2900000000000006E-002     7.9897414340683690E-002
   7.3200000000000001E-002     4.5110542704867571E-002
   7.3499999999999996E-002     2.8083808245036413E-002
   7.3800000000000004E-002     2.5492266299818520E-002
   7.4099999999999999E-002     3.2725326255222495E-002
   7.4400000000000008E-002     4.5382246568976499E-002
   7.4700000000000003E-002     5.8802452563638342E-002
   7.5000000000000011E-002     6.9842071188128865E-002
   7.5299999999999992E-002     7.7144779917697345E-002
   7.5600000000000001E-002     8.0078445859113764E-002
   7.5900000000000009E-002     8.0726884318408146E-002
   7.6200000000000004E-002     8.0816700705347758E-002
   7.6499999999999999E-002     8.2410409402526433E-002
   7.6800000000000007E-002     8.7589829390724613E-002
   7.7099999999999988E-002     9.6393457888979586E-002
   7.7399999999999997E-002    0.10800743817755790     
   7.7700000000000005E-002    0.12047412259684651     
   7.8000000000000014E-002    0.12966828131708769     
   7.8299999999999995E-002    0.13285544654992570     
   7.8600000000000003E-002    0.12640181365840747     
   7.8900000000000012E-002    0.10804123654054383     
   7.9199999999999993E-002     7.8718880329515795E-002
   7.9500000000000001E-002     3.9507293922831845E-002
   7.9800000000000010E-002    -4.1321693156499747E-003
   8.0100000000000018E-002    -4.6408616055752763E-002
   8.0399999999999999E-002    -8.0458835896744255E-002
   8.0700000000000008E-002    -9.8865101643903774E-002
   8.1000000000000003E-002    -9.7134012275645526E-002
   8.1299999999999997E-002    -7.1910795130988914E-002
   8.1600000000000006E-002    -2.4319101782652845E-002
   8.1900000000000014E-002     4.0423597625047644E-002
   8.2199999999999995E-002    0.11416281390573815     
   8.2500000000000004E-002    0.18516780155971951     
   8.2799999999999999E-002    0.24054260393836985     
   8.3100000000000007E-002    0.26841455663811042     
   8.3400000000000002E-002    0.25888335792083600     
   8.3700000000000011E-002    0.20679597743715222     
   8.4000000000000005E-002    0.11253632854358264     
   8.4300000000000000E-002    -1.7363558543884161E-002
   8.4599999999999995E-002   -0.16985606891109931     
   8.4900000000000003E-002   -0.32770177513495458     
   8.5199999999999998E-002   -0.47109424931542571     
   8.5500000000000007E-002   -0.58061200319035133     
   8.5800000000000001E-002   -0.63994771244396509     
   8.6100000000000010E-002   -0.63896960052550456     
   8.6399999999999991E-002   -0.57564073823701678     
   8.6699999999999999E-002   -0.45703515377558779     
   8.7000000000000008E-002   -0.29899850342213735     
   8.7300000000000003E-002   -0.12397256960823386     
   8.7599999999999997E-002     4.0119022879428839E-002
   8.7900000000000006E-002    0.16620354955560185     
   8.8200000000000014E-002    0.23032946116868017     
   8.8499999999999995E-002    0.21590501877930693     
   8.8800000000000004E-002    0.11848497438665860     
   8.9100000000000013E-002    -5.6193638818641964E-002
   8.9399999999999993E-002   -0.28677686500018218     
   8.9700000000000002E-002   -0.54168760483199785     
   9.0000000000000011E-002   -0.78230887642730573     
   9.0299999999999991E-002   -0.96384024960466241     
   9.0600000000000000E-002    -1.0467850036231714     
   9.0900000000000009E-002   -0.99713767523338070     
   9.1200000000000017E-002   -0.79457367645187904     
   9.1499999999999998E-002   -0.43726153467906165     
   9.1800000000000007E-002     6.0400755959734403E-002
   9.2100000000000001E-002    0.66196678853291502     
   9.2399999999999996E-002     1.3166198629443866     
   9.2700000000000005E-002     1.9618426485421179     
   9.3000000000000013E-002     2.5279891448630161     
   9.3300000000000008E-002     2.9503200042704347     
   9.3600000000000003E-002     3.1716530341311597     
   9.3899999999999997E-002     3.1524386447392851     
   9.4200000000000006E-002     2.8749313410182546     
   9.4500000000000001E-002     2.3451638282801754     
   9.4800000000000009E-002     1.5948742684283843     
   9.5100000000000004E-002    0.67747897348056652     
   9.5399999999999999E-002   -0.33682429532257346     
   9.5699999999999993E-002    -1.3671692603659686     
   9.6000000000000002E-002    -2.3309283270592904     
   9.6300000000000011E-002    -3.1521816280335169     
   9.6600000000000005E-002    -3.7666518723855655     
   9.6900000000000000E-002    -4.1312818560743390     
   9.7200000000000009E-002    -4.2241063140978152     
   9.7499999999999989E-002    -4.0464553838247079     
   9.7799999999999998E-002    -3.6233174779568791     
   9.8100000000000007E-002    -2.9961571643588889     
   9.8400000000000015E-002    -2.2213704505609209     
   9.8699999999999996E-002    -1.3621804605462886     
   9.9000000000000005E-002   -0.48250384799673984     
   9.9300000000000013E-002    0.35665823518385559     
   9.9599999999999994E-002     1.1048033395472601     
   9.9900000000000003E-002     1.7227981246716666     
  0.10020000000000001          2.1838336141289489     
  0.10049999999999999          2.4783392084927591     
  0.10080000000000000          2.6059317699884601     
  0.10110000000000001          2.5795428838882444     
  0.10140000000000000          2.4212808662856471     
  0.10170000000000000          2.1560070540764165     
  0.10200000000000001          1.8165097229293088     
  0.10230000000000002          1.4323216640006107     
  0.10260000000000000          1.0342695648405611     
  0.10290000000000001         0.65087675115915700     
  0.10320000000000000         0.30293925453924464     
  0.10350000000000001          1.1100652975745844E-002
  0.10380000000000000        -0.21368664545231308     
  0.10410000000000001        -0.36575682606707383     
  0.10440000000000001        -0.44328756879282999     
  0.10470000000000000        -0.45485697943960141     
  0.10500000000000000        -0.40932567650381702     
  0.10530000000000000        -0.32219751359642984     
  0.10560000000000000        -0.21243686997232075     
  0.10590000000000001         -9.5315179668715388E-002
  0.10620000000000000          8.8803223896536682E-003
  0.10650000000000001          8.7678400731353273E-002
  0.10679999999999999         0.13025196674458148     
  0.10710000000000000         0.12928036922952360     
  0.10740000000000001          8.7570106458038546E-002
  0.10770000000000000          6.3530535600165505E-003
  0.10800000000000000        -0.10364927031463103     
  0.10830000000000001        -0.23039844100169332     
  0.10859999999999999        -0.36293398556219275     
  0.10890000000000000        -0.48503940345221730     
  0.10920000000000001        -0.58795290048303694     
  0.10950000000000001        -0.66196380749401718     
  0.10979999999999999        -0.70099888845222458     
  0.11009999999999999        -0.70563314840493119     
  0.11040000000000001        -0.67425380622538511     
  0.11070000000000001        -0.61386887696973158     
  0.11100000000000000        -0.52926747506521465     
  0.11130000000000000        -0.42629651860719447     
  0.11160000000000002        -0.31443150577662632     
  0.11190000000000001        -0.19625044317523391     
  0.11220000000000001         -7.9382932667084752E-002
  0.11250000000000000          3.3605205575325273E-002
  0.11280000000000000         0.14130330448140171     
  0.11309999999999999         0.23961396669871549     
  0.11340000000000001         0.32999333645809575     
  0.11369999999999998         0.40974771673403326     
  0.11400000000000000         0.47821324581581687     
  0.11430000000000000         0.53532432840339261     
  0.11460000000000002         0.57787369892253637     
  0.11489999999999999         0.60701440842978049     
  0.11520000000000001         0.62120847858404871     
  0.11550000000000001         0.61955212450078645     
  0.11580000000000000         0.60501443147044620     
  0.11609999999999999         0.57708077381458645     
  0.11640000000000002         0.53900741245410833     
  0.11670000000000001         0.49331270318148901     
  0.11700000000000001         0.44087208977831494     
  0.11730000000000000         0.38524438597765487     
  0.11760000000000000         0.32525254987747293     
  0.11789999999999999         0.26173578475610265     
  0.11820000000000001         0.19410886221457885     
  0.11850000000000001         0.11912432814407027     
  0.11880000000000000          3.6776344251378781E-002
  0.11910000000000000         -5.5649637167584663E-002
  0.11940000000000002        -0.15828933239963491     
  0.11970000000000001        -0.26958716101038721     
  0.12000000000000001        -0.38801234871146817     
  0.12030000000000000        -0.50844561692049728     
  0.12060000000000000        -0.62601506069028168     
  0.12089999999999999        -0.73501633664925181     
  0.12119999999999999        -0.82879065262100760     
  0.12150000000000001        -0.90236388173590432     
  0.12180000000000001        -0.95207564314799153     
  0.12210000000000000        -0.97535930155617989     
  0.12239999999999999        -0.97247234888858725     
  0.12270000000000002        -0.94510743809415887     
  0.12300000000000001        -0.89642701290313132     
  0.12330000000000001        -0.83149883885057563     
  0.12360000000000000        -0.75393889168105255     
  0.12390000000000000        -0.66839013462709418     
  0.12419999999999999        -0.57840327587392215     
  0.12450000000000001        -0.48475016607392979     
  0.12480000000000001        -0.38921968904925769     
  0.12509999999999999        -0.29041712610059367     
  0.12540000000000001        -0.18711514299423412     
  0.12570000000000003         -7.9274765128359875E-002
  0.12600000000000000          3.5566356821361694E-002
  0.12630000000000002         0.15573928607422352     
  0.12659999999999999         0.27984275467837083     
  0.12690000000000001         0.40559850894833127     
  0.12719999999999998         0.52698801532290396     
  0.12750000000000000         0.64050368882055453     
  0.12780000000000002         0.74005560406601367     
  0.12809999999999999         0.82078032008720780     
  0.12840000000000001         0.88062672127092700     
  0.12869999999999998         0.91621999324621994     
  0.12900000000000000         0.92892138631190169     
  0.12930000000000003         0.92042349355458242     
  0.12959999999999999         0.89283476989228361     
  0.12990000000000002         0.85173552082625514     
  0.13019999999999998         0.80016361658669333     
  0.13050000000000000         0.74156343079772502     
  0.13080000000000003         0.67922054981086477     
  0.13109999999999999         0.61299287673980418     
  0.13140000000000002         0.54389708752413823     
  0.13169999999999998         0.47051974757758908     
  0.13200000000000001         0.39087152229994021     
  0.13229999999999997         0.30509877037598992     
  0.13260000000000000         0.21132312642569687     
  0.13290000000000002         0.11049637219014029     
  0.13319999999999999          5.5878277507024430E-003
  0.13350000000000001        -0.10157643099593762     
  0.13380000000000003        -0.20568154532886879     
  0.13410000000000000        -0.30262833567003239     
  0.13440000000000002        -0.38910606163216371     
  0.13469999999999999        -0.46058076244185381     
  0.13500000000000001        -0.51706480538397515     
  0.13529999999999998        -0.55725860092180979     
  0.13560000000000000        -0.58190273697556416     
  0.13590000000000002        -0.59477459758774898     
  0.13619999999999999        -0.59635102078923363     
  0.13650000000000001        -0.58964132540441416     
  0.13680000000000003        -0.57598578149765800     
  0.13710000000000000        -0.55416231549715500     
  0.13740000000000002        -0.52431463370239495     
  0.13769999999999999        -0.48292665852935984     
  0.13800000000000001        -0.42685832799279305     
  0.13829999999999998        -0.35540359474605865     
  0.13860000000000000        -0.26542823868747545     
  0.13890000000000002        -0.15906460063968872     
  0.13919999999999999         -3.9666641194603121E-002
  0.13950000000000001          8.9180054345168069E-002
  0.13979999999999998         0.21700993241131047     
  0.14010000000000000         0.33755549660978174     
  0.14040000000000002         0.44175764591999456     
  0.14069999999999999         0.52003198402743211     
  0.14100000000000001         0.56988250571547017     
  0.14130000000000004         0.58583425742675843     
  0.14160000000000000         0.57001077326072214     
  0.14189999999999997         0.52725481119106810     
  0.14219999999999999         0.46110429539620496     
  0.14250000000000002         0.38339965742680421     
  0.14279999999999998         0.30086072564285693     
  0.14310000000000000         0.22124908299274457     
  0.14339999999999997         0.15407347196528162     
  0.14369999999999999          9.9240508516225026E-002
  0.14400000000000002          6.0959657598081619E-002
  0.14429999999999998          3.7654897968601581E-002
  0.14460000000000001          2.3257550092418203E-002
  0.14490000000000003          1.7045274703901412E-002
  0.14520000000000000          9.7621985369228496E-003
  0.14550000000000002         -1.6652832133928891E-003
  0.14579999999999999         -1.8992878259743537E-002
  0.14610000000000001         -4.8086203236893756E-002
  0.14640000000000003         -8.3743669406948495E-002
  0.14670000000000000        -0.12673269283440750     
  0.14699999999999996        -0.17404404334702411     
  0.14729999999999999        -0.21786099785889115     
  0.14760000000000001        -0.25934770753899394     
  0.14789999999999998        -0.29094162606195872     
  0.14820000000000000        -0.31159719825642640     