  -1.4999999999999999E-002     0.0000000000000000     
  -1.4700000000000000E-002     0.0000000000000000     
  -1.4400000000000000E-002     0.0000000000000000     
  -1.4100000000000000E-002     0.0000000000000000     
  -1.3800000000000000E-002     0.0000000000000000     
  -1.3500000000000000E-002     0.0000000000000000     
  -1.3200000000000000E-002     0.0000000000000000     
  -1.2899999999999998E-002     0.0000000000000000     
  -1.2600000000000000E-002     0.0000000000000000     
  -1.2299999999999998E-002     0.0000000000000000     
  -1.2000000000000000E-002     0.0000000000000000     
  -1.1699999999999999E-002     0.0000000000000000     
  -1.1399999999999999E-002     0.0000000000000000     
  -1.1099999999999999E-002     0.0000000000000000     
  -1.0799999999999999E-002     0.0000000000000000     
  -1.0499999999999999E-002     0.0000000000000000     
  -1.0199999999999999E-002     0.0000000000000000     
  -9.8999999999999991E-003     0.0000000000000000     
  -9.5999999999999992E-003     0.0000000000000000     
  -9.2999999999999992E-003     0.0000000000000000     
  -8.9999999999999993E-003     0.0000000000000000     
  -8.6999999999999994E-003     0.0000000000000000     
  -8.3999999999999995E-003     0.0000000000000000     
  -8.0999999999999996E-003     0.0000000000000000     
  -7.7999999999999988E-003    -6.4460340728015049E-044
  -7.4999999999999997E-003    -5.8180150963543940E-037
  -7.1999999999999998E-003     1.1589727261518506E-036
  -6.8999999999999981E-003     5.3145555007083164E-035
  -6.5999999999999982E-003    -3.5291492780929168E-034
  -6.3000000000000000E-003     4.0147257007287838E-033
  -6.0000000000000001E-003    -4.4183908406547001E-032
  -5.6999999999999985E-003     3.8103720178144801E-031
  -5.3999999999999986E-003    -2.3140663975439089E-030
  -5.1000000000000004E-003     9.6541228481650308E-030
  -4.7999999999999987E-003    -2.3707042795160426E-029
  -4.5000000000000005E-003    -7.3608125223182660E-030
  -4.1999999999999989E-003     3.9530072747062505E-028
  -3.8999999999999990E-003    -2.1867931523687963E-027
  -3.5999999999999990E-003     7.4023534994189442E-027
  -3.2999999999999991E-003    -1.6074348654535074E-026
  -2.9999999999999992E-003     1.2005258394178209E-026
  -2.6999999999999993E-003     7.4670444129431085E-026
  -2.3999999999999994E-003    -4.2712516208560675E-025
  -2.0999999999999977E-003     1.3646470711912165E-024
  -1.7999999999999995E-003    -3.1400948788195848E-024
  -1.4999999999999979E-003     5.1199556110309253E-024
  -1.1999999999999997E-003    -3.6711570899265552E-024
  -8.9999999999999976E-004    -1.2448096005654747E-023
  -5.9999999999999810E-004     7.1743786887424907E-023
  -2.9999999999999992E-004    -2.4053035936446424E-022
   0.0000000000000000          6.6677895701448530E-022
   3.0000000000000165E-004    -1.6702680092127554E-021
   5.9999999999999984E-004     3.9160980503214668E-021
   9.0000000000000149E-004    -8.7245359571795351E-021
   1.2000000000000031E-003     1.8585217638241015E-020
   1.5000000000000013E-003    -3.7949678727723852E-020
   1.8000000000000030E-003     7.4344336363298516E-020
   2.1000000000000012E-003    -1.3970175487848881E-019
   2.3999999999999994E-003     2.5140648069571081E-019
   2.7000000000000010E-003    -4.3169962919764932E-019
   2.9999999999999992E-003     7.0267450648518039E-019
   3.3000000000000008E-003    -1.0724045534410204E-018
   3.6000000000000025E-003     1.5067997693415508E-018
   3.9000000000000007E-003    -1.8828973713635933E-018
   4.2000000000000023E-003     1.9207759419230382E-018
   4.5000000000000005E-003    -1.0802591770372896E-018
   4.7999999999999987E-003    -1.6478352198110976E-018
   5.1000000000000004E-003     8.2679183412229426E-018
   5.4000000000000020E-003    -2.3038321919688564E-017
   5.7000000000000037E-003     5.4938572860435204E-017
   5.9999999999999984E-003    -1.2140352372819119E-016
   6.3000000000000000E-003     2.5256938366552112E-016
   6.6000000000000017E-003    -4.9552733737481850E-016
   6.9000000000000034E-003     9.2228890233568761E-016
   7.2000000000000015E-003    -1.6554539422014824E-015
   7.5000000000000032E-003     2.9397502180343030E-015
   7.8000000000000014E-003    -5.2922029821034090E-015
   8.0999999999999996E-003     9.7115045451012062E-015
   8.4000000000000012E-003    -1.7728633900218288E-014
   8.7000000000000029E-003     3.0804547143227802E-014
   9.0000000000000011E-003    -4.9077295822164731E-014
   9.2999999999999992E-003     7.2429334360359178E-014
   9.6000000000000009E-003    -1.0722461466307669E-013
   9.8999999999999991E-003     1.2319636031307619E-013
   1.0200000000000001E-002     4.4653433305569044E-013
   1.0500000000000002E-002    -4.9914848945753621E-012
   1.0800000000000004E-002     2.4464209348414528E-011
   1.1099999999999999E-002    -7.1333105388463483E-011
   1.1400000000000000E-002     8.8083035511096168E-011
   1.1700000000000002E-002     2.2316685259199006E-010
   1.2000000000000004E-002    -1.2522742680085253E-009
   1.2300000000000002E-002     1.8230813008917357E-009
   1.2600000000000000E-002     3.0691200319345267E-009
   1.2900000000000002E-002    -1.4021142782592586E-008
   1.3200000000000000E-002     3.7808909144213390E-009
   1.3500000000000002E-002     5.3121321364794475E-008
   1.3800000000000003E-002    -4.6020440030198133E-008
   1.4100000000000001E-002    -1.8178820423329075E-007
   1.4400000000000000E-002     1.2050893194918035E-007
   1.4700000000000001E-002     5.5910132011110086E-007
   1.4999999999999999E-002    -8.5280298551263126E-008
   1.5300000000000001E-002    -1.4946881586872070E-006
   1.5600000000000003E-002    -5.0301200333929124E-007
   1.5899999999999997E-002     4.9249554639674033E-006
   1.6199999999999999E-002     1.1507450016857273E-005
   1.6500000000000001E-002     1.4746825229054669E-005
   1.6800000000000002E-002     1.6619395416033708E-005
   1.7100000000000004E-002     2.4638985763460114E-005
   1.7400000000000006E-002     4.3735732063928473E-005
   1.7700000000000000E-002     7.3668977054836492E-005
   1.8000000000000002E-002     1.1537634941906360E-004
   1.8300000000000004E-002     1.7602292413891531E-004
   1.8600000000000005E-002     2.6640119876414733E-004
   1.8900000000000000E-002     3.9756223166605294E-004
   1.9200000000000002E-002     5.8306896214683948E-004
   1.9500000000000003E-002     8.4403095053201937E-004
   1.9799999999999998E-002     1.2102939098614185E-003
   2.0100000000000000E-002     1.7154512849483464E-003
   2.0400000000000001E-002     2.3942372193782382E-003
   2.0700000000000003E-002     3.2892579754303188E-003
   2.0999999999999998E-002     4.4574116553017535E-003
   2.1299999999999999E-002     5.9663898079178601E-003
   2.1600000000000001E-002     7.8851680463099989E-003
   2.1900000000000003E-002     1.0278775972440762E-002
   2.2200000000000004E-002     1.3209863193430104E-002
   2.2500000000000006E-002     1.6735139806214803E-002
   2.2800000000000001E-002     2.0897654337374338E-002
   2.3100000000000002E-002     2.5717326850357384E-002
   2.3400000000000004E-002     3.1176059893246566E-002
   2.3699999999999999E-002     3.7206142599513735E-002
   2.4000000000000000E-002     4.3687395249033950E-002
   2.4300000000000002E-002     5.0439476545629074E-002
   2.4599999999999997E-002     5.7209543595434308E-002
   2.4900000000000005E-002     6.3664682117854018E-002
   2.5200000000000000E-002     6.9399058997811430E-002
   2.5499999999999995E-002     7.3951364088426563E-002
   2.5800000000000003E-002     7.6794036675374808E-002
   2.6099999999999998E-002     7.7342392446616504E-002
   2.6400000000000007E-002     7.4996026359370874E-002
   2.6700000000000002E-002     6.9171997523767778E-002
   2.6999999999999996E-002     5.9349815801786970E-002
   2.7300000000000005E-002     4.5089785156285429E-002
   2.7600000000000000E-002     2.6107962067070136E-002
   2.7900000000000008E-002     2.3107159791261765E-003
   2.8200000000000003E-002    -2.6155920840153515E-002
   2.8499999999999998E-002    -5.8847887318771726E-002
   2.8800000000000006E-002    -9.5025235605619665E-002
   2.9100000000000001E-002   -0.13360571303400021     
   2.9400000000000003E-002   -0.17315589872804701     
   2.9700000000000004E-002   -0.21198099424405406     
   3.0000000000000006E-002   -0.24818882032684345     
   3.0300000000000001E-002   -0.27974825928985936     
   3.0600000000000002E-002   -0.30461069947620251     
   3.0900000000000004E-002   -0.32090610471828984     
   3.1199999999999999E-002   -0.32713300411903057     
   3.1500000000000007E-002   -0.32229865241352224     
   3.1800000000000002E-002   -0.30606395865291897     
   3.2099999999999997E-002   -0.27881879670643650     
   3.2400000000000005E-002   -0.24178340763628112     
   3.2700000000000000E-002   -0.19691412007593076     
   3.3000000000000002E-002   -0.14678117565594254     
   3.3300000000000003E-002    -9.4385079574326874E-002
   3.3599999999999998E-002    -4.2852270535989889E-002
   3.3900000000000000E-002     4.8590189156030132E-003
   3.4200000000000001E-002     4.6392861095390509E-002
   3.4500000000000003E-002     8.0165785863220623E-002
   3.4799999999999998E-002    0.10562840777590919     
   3.5099999999999999E-002    0.12335436927564825     
   3.5400000000000001E-002    0.13503308192806654     
   3.5699999999999996E-002    0.14330008419754584     
   3.6000000000000004E-002    0.15138709515004856     
   3.6299999999999999E-002    0.16281084836478710     
   3.6600000000000008E-002    0.18084678295943285     
   3.6900000000000002E-002    0.20802477342444547     
   3.7199999999999997E-002    0.24590875629387499     
   3.7500000000000006E-002    0.29470420373430994     
   3.7800000000000000E-002    0.35310009678103937     
   3.8100000000000009E-002    0.41838777695503826     
   3.8400000000000004E-002    0.48644385468231099     
   3.8699999999999998E-002    0.55226732155531555     
   3.9000000000000007E-002    0.61033112833948011     
   3.9300000000000002E-002    0.65508700649996943     
   3.9600000000000003E-002    0.68141217522194142     
   3.9900000000000005E-002    0.68492360689299681     
   4.0200000000000000E-002    0.66252323080269215     
   4.0500000000000001E-002    0.61275681257563996     
   4.0800000000000003E-002    0.53580179495820346     
   4.1100000000000005E-002    0.43363991284114561     
   4.1399999999999999E-002    0.31013262290365617     
   4.1700000000000008E-002    0.17067474118046660     
   4.2000000000000003E-002     2.1918670970465542E-002
   4.2299999999999997E-002   -0.12840438498757079     
   4.2600000000000006E-002   -0.27201498780710553     
   4.2900000000000001E-002   -0.40081964996938058     
   4.3200000000000002E-002   -0.50741535519168757     
   4.3500000000000004E-002   -0.58591498206898718     
   4.3799999999999999E-002   -0.63242688315998352     
   4.4100000000000000E-002   -0.64572963933289751     
   4.4400000000000002E-002   -0.62768863670043296     
   4.4700000000000004E-002   -0.58316779228819249     
   4.4999999999999998E-002   -0.52018029406899868     
   4.5300000000000000E-002   -0.44907452096304140     
   4.5600000000000002E-002   -0.38168381244351396     
   4.5899999999999996E-002   -0.33048249641936145     
   4.6200000000000005E-002   -0.30687192812643765     
   4.6500000000000000E-002   -0.32011389468568746     
   4.6799999999999994E-002   -0.37613333658969084     
   4.7100000000000003E-002   -0.47616541170214888     
   4.7399999999999998E-002   -0.61655719047803226     
   4.7700000000000006E-002   -0.78839688532486552     
   4.8000000000000001E-002   -0.97795745805376888     
   4.8300000000000010E-002    -1.1679559466999996     
   4.8600000000000004E-002    -1.3385963978439861     
   4.8899999999999999E-002    -1.4691809802798774     
   4.9200000000000008E-002    -1.5403511789317383     
   4.9500000000000002E-002    -1.5357635199795416     
   4.9800000000000011E-002    -1.4435324800580382     
   5.0100000000000006E-002    -1.2573602328030051     
   5.0400000000000000E-002   -0.97766460691064483     
   5.0700000000000009E-002   -0.61154630370383078     
   5.1000000000000004E-002   -0.17256800214801055     
   5.1299999999999998E-002    0.32025924774993453     
   5.1600000000000007E-002    0.84364758411329310     
   5.1900000000000002E-002     1.3714442480572859     
   5.2200000000000010E-002     1.8764348028700699     
   5.2500000000000005E-002     2.3317770729115592     
   5.2800000000000000E-002     2.7129873786411376     
   5.3099999999999994E-002     2.9993671738393850     
   5.3400000000000003E-002     3.1752049135459122     
   5.3699999999999998E-002     3.2306222016144792     
   5.4000000000000006E-002     3.1622876157870077     
   5.4300000000000001E-002     2.9739223934669221     
   5.4599999999999996E-002     2.6762045873566263     
   5.4900000000000004E-002     2.2859992120400960     
   5.5199999999999999E-002     1.8255100699710574     
   5.5499999999999994E-002     1.3213025927939330     
   5.5800000000000002E-002    0.80235023960717766     
   5.6099999999999997E-002    0.29787838861116483     
   5.6400000000000006E-002   -0.16448120158944604     
   5.6700000000000000E-002   -0.56146883254983770     
   5.6999999999999995E-002   -0.87595520297332041     
   5.7300000000000004E-002    -1.0984788808881432     
   5.7599999999999998E-002    -1.2291826792237917     
   5.7900000000000007E-002    -1.2771805061496488     
   5.8200000000000002E-002    -1.2606986276290080     
   5.8499999999999996E-002    -1.2055245161020214     
   5.8800000000000005E-002    -1.1417753257001522     
   5.9100000000000000E-002    -1.1017422300311712     
   5.9400000000000008E-002    -1.1157823510078364     
   5.9700000000000003E-002    -1.2081839851109404     
   6.0000000000000012E-002    -1.3945574689110534     
   6.0300000000000006E-002    -1.6780725769971625     
   6.0600000000000001E-002    -2.0484929264393581     
   6.0900000000000010E-002    -2.4825904670129293     
   6.1200000000000004E-002    -2.9443109444634739     
   6.1500000000000013E-002    -3.3881617089922447     
   6.1800000000000008E-002    -3.7634087168548187     
   6.2100000000000002E-002    -4.0191369644648498     
   6.2399999999999997E-002    -4.1098323444783960     
   6.2700000000000006E-002    -4.0007391496012010     
   6.3000000000000000E-002    -3.6710660878818038     
   6.3300000000000009E-002    -3.1189732832295487     
   6.3600000000000004E-002    -2.3624832733014718     
   6.3899999999999998E-002    -1.4376488822719589     
   6.4199999999999993E-002   -0.39729127066543402     
   6.4500000000000002E-002    0.69377916457526656     
   6.4800000000000010E-002     1.7643016118759922     
   6.5100000000000005E-002     2.7429028454179152     
   6.5400000000000000E-002     3.5648847634527865     
   6.5700000000000008E-002     4.1780511001448692     
   6.5999999999999989E-002     4.5471736022899822     
   6.6299999999999998E-002     4.6578517871086271     
   6.6600000000000006E-002     4.5164080387307264     
   6.6900000000000001E-002     4.1502061351336881     
   6.7199999999999996E-002     3.6052215240797110     
   6.7500000000000004E-002     2.9404256124542543     
   6.7800000000000013E-002     2.2228440641157303     
   6.8099999999999994E-002     1.5223026499226229     
   6.8400000000000002E-002    0.90477954197068100     
   6.8700000000000011E-002    0.42757960171073273     
   6.8999999999999992E-002    0.13472244079869344     
   6.9300000000000000E-002     5.2576664560898385E-002
   6.9600000000000009E-002    0.19055667842479818     
   6.9900000000000004E-002    0.53932660727536397     
   7.0199999999999999E-002     1.0718093722139748     
   7.0500000000000007E-002     1.7468736098338209     
   7.0800000000000016E-002     2.5112499323799491     
   7.1099999999999997E-002     3.3044628690945674     
   7.1400000000000005E-002     4.0633630843244797     
   7.1700000000000000E-002     4.7246842983826323     
   7.1999999999999995E-002     5.2307244441280449     
   7.2300000000000003E-002     5.5326835273698673     
   7.2600000000000012E-002     5.5922643699616179     
   7.2900000000000006E-002     5.3853704812640641     
   7.3200000000000001E-002     4.9025042176885067     
   7.3499999999999996E-002     4.1487419874126861     
   7.3800000000000004E-002     3.1446400018012635     
   7.4099999999999999E-002     1.9240845747504884     
   7.4400000000000008E-002    0.53188934010865885     
   7.4700000000000003E-002   -0.97838812665743335     
   7.5000000000000011E-002    -2.5482695284135617     
   7.5299999999999992E-002    -4.1166041349023947     
   7.5600000000000001E-002    -5.6244276335995540     
   7.5900000000000009E-002    -7.0186237020386288     
   7.6200000000000004E-002    -8.2533043929485466     
   7.6499999999999999E-002    -9.2937526230237566     
   7.6800000000000007E-002    -10.116976734591919     
   7.7099999999999988E-002    -10.710874600602052     
   7.7399999999999997E-002    -11.075816245730154     
   7.7700000000000005E-002    -11.220960757196327     
   7.8000000000000014E-002    -11.161166379966197     
   7.8299999999999995E-002    -10.915628668820652     
   7.8600000000000003E-002    -10.502726833594835     
   7.8900000000000012E-002    -9.9382327380244586     
   7.9199999999999993E-002    -9.2327207208608506     
   7.9500000000000001E-002    -8.3896230541220262     
   7.9800000000000010E-002    -7.4061650207235923     
   8.0100000000000018E-002    -6.2756971248211659     
   8.0399999999999999E-002    -4.9879339886499201     
   8.0700000000000008E-002    -3.5347844006732494     
   8.1000000000000003E-002    -1.9146871962994605     
   8.1299999999999997E-002   -0.13427837106346255     
   8.1600000000000006E-002     1.7861649604841403     
   8.1900000000000014E-002     3.8110589124005210     
   8.2199999999999995E-002     5.8898119825895403     
   8.2500000000000004E-002     7.9565921494655294     
   8.2799999999999999E-002     9.9362040967884813     
   8.3100000000000007E-002     11.745722978159646     
   8.3400000000000002E-002     13.300021437843203     
   8.3700000000000011E-002     14.523254707500051     
   8.4000000000000005E-002     15.347228396355415     
   8.4300000000000000E-002     15.720308668574088     
   8.4599999999999995E-002     15.614302048783468     
   8.4900000000000003E-002     15.020289775545983     
   8.5199999999999998E-002     13.953579275914871     
   8.5500000000000007E-002     12.453492449839969     
   8.5800000000000001E-002     10.576683276458583     
   8.6100000000000010E-002     8.3984910747962331     
   8.6399999999999991E-002     6.0065623313919829     
   8.6699999999999999E-002     3.4953198674071384     
   8.7000000000000008E-002    0.96604365912913637     
   8.7300000000000003E-002    -1.4819755612686245     
   8.7599999999999997E-002    -3.7532588976786183     
   8.7900000000000006E-002    -5.7581880219650463     
   8.8200000000000014E-002    -7.4199097742472659     
   8.8499999999999995E-002    -8.6753610069745459     
   8.8800000000000004E-002    -9.4781116072392102     
   8.9100000000000013E-002    -9.8044560899924598     
   8.9399999999999993E-002    -9.6521466445902604     
   8.9700000000000002E-002    -9.0441372586884956     
   9.0000000000000011E-002    -8.0295307163978844     
   9.0299999999999991E-002    -6.6790314814572040     
   9.0600000000000000E-002    -5.0865535899265222     
   9.0900000000000009E-002    -3.3623766064848608     
   9.1200000000000017E-002    -1.6233927564298218     
   9.1499999999999998E-002     9.0945968100592262E-003
   9.1800000000000007E-002     1.4208055734995286     
   9.2100000000000001E-002     2.5156394867208727     
   9.2399999999999996E-002     3.2188653769258262     
   9.2700000000000005E-002     3.4866421165202128     
   9.3000000000000013E-002     3.3097302684000027     
   9.3300000000000008E-002     2.7129422932566856     
   9.3600000000000003E-002     1.7560736913937263     
   9.3899999999999997E-002    0.52739185275015921     
   9.4200000000000006E-002   -0.86294036215051639     
   9.4500000000000001E-002    -2.2905306758392832     
   9.4800000000000009E-002    -3.6304539436354482     
   9.5100000000000004E-002    -4.7643277627389908     
   9.5399999999999999E-002    -5.5899456575151545     
   9.5699999999999993E-002    -6.0346307233723708     
   9.6000000000000002E-002    -6.0558962873120432     
   9.6300000000000011E-002    -5.6456251473872126     
   9.6600000000000005E-002    -4.8345394430786737     
   9.6900000000000000E-002    -3.6853811705288333     
   9.7200000000000009E-002    -2.2884349189732593     
   9.7499999999999989E-002   -0.75459483705141206     
   9.7799999999999998E-002    0.79569530630427565     
   9.8100000000000007E-002     2.2400768838022134     
   9.8400000000000015E-002     3.4677772180443021     
   9.8699999999999996E-002     4.3881145092593474     
   9.9000000000000005E-002     4.9352337253980032     
   9.9300000000000013E-002     5.0771052329144171     
   9.9599999999999994E-002     4.8163034722420672     
   9.9900000000000003E-002     4.1873137838619616     
  0.10020000000000001          3.2561862222047964     
  0.10049999999999999          2.1118430533556127     
  0.10080000000000000         0.85723592952807071     
  0.10110000000000001        -0.39642840313516914     
  0.10140000000000000         -1.5434158571947585     
  0.10170000000000000         -2.4913513562924074     
  0.10200000000000001         -3.1663155696456831     
  0.10230000000000002         -3.5212507458394144     
  0.10260000000000000         -3.5385465723347118     
  0.10290000000000001         -3.2281017131372538     
  0.10320000000000000         -2.6274091615393242     
  0.10350000000000001         -1.7948351024737235     
  0.10380000000000000        -0.80472852824133667     
  0.10410000000000001         0.25957008946827881     
  0.10440000000000001          1.3160321765725680     
  0.10470000000000000          2.2875182913594818     
  0.10500000000000000          3.1099164829678183     
  0.10530000000000000          3.7378158785425595     
  0.10560000000000000          4.1428525363876059     
  0.10590000000000001          4.3172113370155438     
  0.10620000000000000          4.2744070411549799     
  0.10650000000000001          4.0414381739782987     
  0.10679999999999999          3.6577890027662385     
  0.10710000000000000          3.1710421581662200     
  0.10740000000000001          2.6305619723091844     
  0.10770000000000000          2.0839444247143586     
  0.10800000000000000          1.5717939882161993     
  0.10830000000000001          1.1266153402036829     
  0.10859999999999999         0.77054558408318241     
  0.10890000000000000         0.51219872144948153     
  0.10920000000000001         0.35109776375541418     
  0.10950000000000001         0.27807622937411935     
  0.10979999999999999         0.27376099822416050     
  0.11009999999999999         0.31564660709474973     
  0.11040000000000001         0.37949515506980830     
  0.11070000000000001         0.43915653581721537     
  0.11100000000000000         0.46986126586146393     
  0.11130000000000000         0.45181851879545926     
  0.11160000000000002         0.36890333322446850     
  0.11190000000000001         0.20823951312298131     
  0.11220000000000001         -3.6651365243472955E-002
  0.11250000000000000        -0.36677931278464898     
  0.11280000000000000        -0.77990881642140653     
  0.11309999999999999         -1.2691976993128462     
  0.11340000000000001         -1.8213759132654668     
  0.11369999999999998         -2.4210138443769202     
  0.11400000000000000         -3.0505191846044557     
  0.11430000000000000         -3.6880880809632504     
  0.11460000000000002         -4.3099621250507525     
  0.11489999999999999         -4.8942196844896841     
  0.11520000000000001         -5.4175679813397659     
  0.11550000000000001         -5.8586838121331084     
  0.11580000000000000         -6.2001607128909235     
  0.11609999999999999         -6.4273330790007064     
  0.11640000000000002         -6.5286757542430776     
  0.11670000000000001         -6.4962193568719702     
  0.11700000000000001         -6.3258607010191570     
  0.11730000000000000         -6.0157048337277956     
  0.11760000000000000         -5.5637762183620412     
  0.11789999999999999         -4.9723021614634240     
  0.11820000000000001         -4.2456185440916894     
  0.11850000000000001         -3.3882171748866523     
  0.11880000000000000         -2.4107379620013094     
  0.11910000000000000         -1.3275446738237482     
  0.11940000000000002        -0.15897164492096483     
  0.11970000000000001          1.0675069894618601     
  0.12000000000000001          2.3194510148671630     
  0.12030000000000000          3.5600827881064459     
  0.12060000000000000          4.7499538133870027     
  0.12089999999999999          5.8518166746387665     
  0.12119999999999999          6.8324899465707798     
  0.12150000000000001          7.6683945104296276     
  0.12180000000000001          8.3470801476194634     
  0.12210000000000000          8.8661793605753960     
  0.12239999999999999          9.2359093350965935     
  0.12270000000000002          9.4753359230130645     
  0.12300000000000001          9.6072128347213592     
  0.12330000000000001          9.6546447335274337     
  0.12360000000000000          9.6345402628946051     
  0.12390000000000000          9.5535827734363643     
  0.12419999999999999          9.4077935394190106     
  0.12450000000000001          9.1784166556216409     
  0.12480000000000001          8.8360122059674318     
  0.12509999999999999          8.3448135996511876     
  0.12540000000000001          7.6672551398802824     
  0.12570000000000003          6.7730452779336012     
  0.12600000000000000          5.6448977174359731     
  0.12630000000000002          4.2821854183181163     
  0.12659999999999999          2.7063619943037716     
  0.12690000000000001         0.96011479187138649     
  0.12719999999999998        -0.89589160931678358     
  0.12750000000000000         -2.7879052399282154     
  0.12780000000000002         -4.6398814964454420     
  0.12809999999999999         -6.3804271415836755     
  0.12840000000000001         -7.9522726116460758     
  0.12869999999999998         -9.3206164263935705     
  0.12900000000000000         -10.478141514246433     
  0.12930000000000003         -11.444734357514315     
  0.12959999999999999         -12.265409318476811     
  0.12990000000000002         -13.000950714229239     
  0.13019999999999998         -13.718763267568471     
  0.13050000000000000         -14.479271760280932     
  0.13080000000000003         -15.319564569877691     
  0.13109999999999999         -16.242806933202129     
  0.13140000000000002         -17.209189626222130     
  0.13169999999999998         -18.128308154409567     
  0.13200000000000001         -18.864540520823454     
  0.13229999999999997         -19.243948013206023     
  0.13260000000000000         -19.068189308834668     
  0.13290000000000002         -18.139392294018343     
  0.13319999999999999         -16.279950433264521     
  0.13350000000000001         -13.360625636473968     
  0.13380000000000003         -9.3247248507154801     
  0.13410000000000000         -4.2015630791997411     
  0.13440000000000002          1.8769014448263417     
  0.13469999999999999          8.6766368396428533     
  0.13500000000000001          15.873542901176117     
  0.13529999999999998          23.068164865599428     
  0.13560000000000000          29.818030351376507     
  0.13590000000000002          35.669525203362490     
  0.13619999999999999          40.193686789885092     
  0.13650000000000001          43.028887594181342     
  0.13680000000000003          43.907931006274119     
  0.13710000000000000          42.684809511423246     
  0.13740000000000002          39.352137853141606     
  0.13769999999999999          34.040203175745162     
  0.13800000000000001          27.012158507335343     
  0.13829999999999998          18.647037823034108     
  0.13860000000000000          9.4059320864838725     
  0.13890000000000002        -0.19798186709919191     
  0.13919999999999999         -9.6340587497138053     
  0.13950000000000001         -18.394936269663038     
  0.13979999999999998         -26.027734582701203     
  0.14010000000000000         -32.161582189024884     
  0.14040000000000002         -36.529333955783386     
  0.14069999999999999         -38.975432257502803     
  0.14100000000000001         -39.462432013135981     
  0.14130000000000004         -38.066985718708160     
  0.14160000000000000         -34.964535074585889     
  0.14189999999999997         -30.415124127070353     
  0.14219999999999999         -24.740640788605081     
  0.14250000000000002         -18.301234385448161     
  0.14279999999999998         -11.476524459374001     
  0.14310000000000000         -4.6363215420665398     
  0.14339999999999997          1.8798068648460502     
  0.14369999999999999          7.7707668578106892     
  0.14400000000000002          12.796855158420172     
  0.14429999999999998          16.787234253220465     
  0.14460000000000001          19.637930750661326     
  0.14490000000000003          21.317797633998605     
  0.14520000000000000          21.861699307516076     
  0.14550000000000002          21.359908647406744     
  0.14579999999999999          19.950998314444298     
  0.14610000000000001          17.804373259900352     
  0.14640000000000003          15.109828946898885     
  0.14670000000000000          12.064712033119713     
  0.14699999999999996          8.8564194989239589     
  0.14729999999999999          5.6594436851208672     
  0.14760000000000001          2.6221631900670972     
  0.14789999999999998        -0.13720686301701485     
  0.14820000000000000         -2.5288683972149260     