  -1.4999999999999999E-002     0.0000000000000000     
  -1.4700000000000000E-002     0.0000000000000000     
  -1.4400000000000000E-002     0.0000000000000000     
  -1.4100000000000000E-002     0.0000000000000000     
  -1.3800000000000000E-002     0.0000000000000000     
  -1.3500000000000000E-002     0.0000000000000000     
  -1.3200000000000000E-002    -4.0596850099204419E-044
  -1.2899999999999998E-002    -4.3575802872117833E-035
  -1.2600000000000000E-002     1.0153625487776452E-033
  -1.2299999999999998E-002    -1.0655005407439949E-032
  -1.2000000000000000E-002     1.6169178818997758E-031
  -1.1699999999999999E-002     3.4291495660906978E-031
  -1.1399999999999999E-002    -5.0612542669530709E-029
  -1.1099999999999999E-002     5.1903342289647216E-028
  -1.0799999999999999E-002     2.4387833899966781E-027
  -1.0499999999999999E-002    -1.1447794994937808E-025
  -1.0199999999999999E-002     1.3884256559249564E-024
  -9.8999999999999991E-003    -9.7927815163823677E-024
  -9.5999999999999992E-003     4.5928330503664512E-023
  -9.2999999999999992E-003    -1.4665529839628231E-022
  -8.9999999999999993E-003     2.4929280924009240E-022
  -8.6999999999999994E-003     5.5866049906227666E-022
  -8.3999999999999995E-003    -6.7183999958118962E-021
  -8.0999999999999996E-003     3.1043201571149162E-020
  -7.7999999999999988E-003    -9.6698571564124841E-020
  -7.4999999999999997E-003     2.3273145443650186E-019
  -7.1999999999999998E-003    -4.7349359980425575E-019
  -6.8999999999999981E-003     8.6611229568858074E-019
  -6.5999999999999982E-003    -1.5462895714411124E-018
  -6.3000000000000000E-003     2.9271775570992695E-018
  -6.0000000000000001E-003    -4.1808437092005107E-018
  -5.6999999999999985E-003    -5.7988231707283230E-018
  -5.3999999999999986E-003     6.6685116870987542E-017
  -5.1000000000000004E-003    -2.4967307224966856E-016
  -4.7999999999999987E-003     5.6685618955430503E-016
  -4.5000000000000005E-003    -6.4362027751474218E-016
  -4.1999999999999989E-003    -8.6729802650452870E-016
  -3.8999999999999990E-003     6.3882046381685094E-015
  -3.5999999999999990E-003    -1.7105882918308662E-014
  -3.2999999999999991E-003     2.6753520821951478E-014
  -2.9999999999999992E-003    -1.4883551793134667E-014
  -2.6999999999999993E-003    -4.7795672495121276E-014
  -2.3999999999999994E-003     1.6647271059479825E-013
  -2.0999999999999977E-003    -2.7070109455344084E-013
  -1.7999999999999995E-003     2.0319672989785128E-013
  -1.4999999999999979E-003     1.8088717537314596E-013
  -1.1999999999999997E-003    -8.2969095737910105E-013
  -8.9999999999999976E-004     1.4048635856692324E-012
  -5.9999999999999810E-004    -1.4860895063925559E-012
  -2.9999999999999992E-004     9.7730887693248007E-013
   0.0000000000000000         -1.8885441162623625E-013
   3.0000000000000165E-004    -8.6187117024838579E-013
   5.9999999999999984E-004     3.3066463551602711E-012
   9.0000000000000149E-004    -8.3999691891638077E-012
   1.2000000000000031E-003     1.3618746204166050E-011
   1.5000000000000013E-003    -1.0791140965276614E-011
   1.8000000000000030E-003    -4.9394513442520095E-012
   2.1000000000000012E-003     2.0252386824129940E-011
   2.3999999999999994E-003    -1.5580449743383246E-011
   2.7000000000000010E-003     2.7669308317165485E-011
   2.9999999999999992E-003    -1.8471401579410492E-010
   3.3000000000000008E-003     5.2795078905455182E-010
   3.6000000000000025E-003    -5.9999620453786003E-010
   3.9000000000000007E-003    -7.8948231710548405E-010
   4.2000000000000023E-003     4.9913044906282861E-009
   4.5000000000000005E-003    -1.0543038576734213E-008
   4.7999999999999987E-003     4.6064386265193625E-009
   5.1000000000000004E-003     3.9906818145563945E-008
   5.4000000000000020E-003    -1.0193690715146204E-007
   5.7000000000000037E-003    -7.4152007941648678E-009
   5.9999999999999984E-003     4.0703392908588811E-007
   6.3000000000000000E-003    -3.2865459452283793E-007
   6.6000000000000017E-003    -1.2384138085236715E-006
   6.9000000000000034E-003     1.0499059753531304E-006
   7.2000000000000015E-003     3.5395482705288494E-006
   7.5000000000000032E-003    -1.6420441988205275E-006
   7.8000000000000014E-003    -1.0117053004663203E-005
   8.0999999999999996E-003     1.0797775164280593E-006
   8.4000000000000012E-003     4.5643182758514387E-005
   8.7000000000000029E-003     1.0220935357013495E-004
   9.0000000000000011E-003     1.4784423631269346E-004
   9.2999999999999992E-003     2.0634818240515904E-004
   9.6000000000000009E-003     3.3217761836701586E-004
   9.8999999999999991E-003     5.5702646649154349E-004
   1.0200000000000001E-002     8.8141879672678234E-004
   1.0500000000000002E-002     1.3346966343295303E-003
   1.0800000000000004E-002     2.0177494463537891E-003
   1.1099999999999999E-002     3.0586001992061948E-003
   1.1400000000000000E-002     4.5696729207829788E-003
   1.1700000000000002E-002     6.6955996880774951E-003
   1.2000000000000004E-002     9.6814221763500598E-003
   1.2300000000000002E-002     1.3856160343701719E-002
   1.2600000000000000E-002     1.9568836180278767E-002
   1.2900000000000002E-002     2.7207640787165210E-002
   1.3200000000000000E-002     3.7270910910830957E-002
   1.3500000000000002E-002     5.0343260079654444E-002
   1.3800000000000003E-002     6.6999077780180660E-002
   1.4100000000000001E-002     8.7772719687612785E-002
   1.4400000000000000E-002    0.11317604817077069     
   1.4700000000000001E-002    0.14363107158710256     
   1.4999999999999999E-002    0.17929792529977168     
   1.5300000000000001E-002    0.21992287239464309     
   1.5600000000000003E-002    0.26481879057536739     
   1.5899999999999997E-002    0.31277269553849735     
   1.6199999999999999E-002    0.36183015100221494     
   1.6500000000000001E-002    0.40916682070117416     
   1.6800000000000002E-002    0.45115832499502079     
   1.7100000000000004E-002    0.48345879975524791     
   1.7400000000000006E-002    0.50097461074364569     
   1.7700000000000000E-002    0.49799140093405209     
   1.8000000000000002E-002    0.46858199486392327     
   1.8300000000000004E-002    0.40707867600241077     
   1.8600000000000005E-002    0.30851053585960453     
   1.8900000000000000E-002    0.16906284702092689     
   1.9200000000000002E-002    -1.3503154309734833E-002
   1.9500000000000003E-002   -0.23920800782579918     
   1.9799999999999998E-002   -0.50546757865057745     
   2.0100000000000000E-002   -0.80684720673481902     
   2.0400000000000001E-002    -1.1350411190120195     
   2.0700000000000003E-002    -1.4790948757359266     
   2.0999999999999998E-002    -1.8255608343454186     
   2.1299999999999999E-002    -2.1592107229234379     
   2.1600000000000001E-002    -2.4637821287709047     
   2.1900000000000003E-002    -2.7225814590766770     
   2.2200000000000004E-002    -2.9194048326863080     
   2.2500000000000006E-002    -3.0393942412208235     
   2.2800000000000001E-002    -3.0696095153512446     
   2.3100000000000002E-002    -2.9996207950100726     
   2.3400000000000004E-002    -2.8218306329709666     
   2.3699999999999999E-002    -2.5317639118722615     
   2.4000000000000000E-002    -2.1281396082912911     
   2.4300000000000002E-002    -1.6132960122433613     
   2.4599999999999997E-002   -0.99317570686988266     
   2.4900000000000005E-002   -0.27747729208234567     
   2.5200000000000000E-002    0.51978042767042043     
   2.5499999999999995E-002     1.3800447012013310     
   2.5800000000000003E-002     2.2797775638289712     
   2.6099999999999998E-002     3.1905813945201178     
   2.6400000000000007E-002     4.0792008531479302     
   2.6700000000000002E-002     4.9080959792292456     
   2.6999999999999996E-002     5.6368991678308937     
   2.7300000000000005E-002     6.2242314423727834     
   2.7600000000000000E-002     6.6302106181988636     
   2.7900000000000008E-002     6.8193681155532326     
   2.8200000000000003E-002     6.7637798724938047     
   2.8499999999999998E-002     6.4462897641572168     
   2.8800000000000006E-002     5.8630850003430153     
   2.9100000000000001E-002     5.0257584462534259     
   2.9400000000000003E-002     3.9620498659449681     
   2.9700000000000004E-002     2.7150467432655860     
   3.0000000000000006E-002     1.3412471309211940     
   3.0300000000000001E-002    -9.2368800417166816E-002
   3.0600000000000002E-002    -1.5128672698319681     
   3.0900000000000004E-002    -2.8465493812112173     
   3.1199999999999999E-002    -4.0241028423197909     
   3.1500000000000007E-002    -4.9856936470459470     
   3.1800000000000002E-002    -5.6851994805844672     
   3.2099999999999997E-002    -6.0927636595445023     
   3.2400000000000005E-002    -6.1964452270147170     
   3.2700000000000000E-002    -6.0030262376980366     
   3.3000000000000002E-002    -5.5354497120917872     
   3.3300000000000003E-002    -4.8297669251204223     
   3.3599999999999998E-002    -3.9324566270523884     
   3.3900000000000000E-002    -2.8956523804560153     
   3.4200000000000001E-002    -1.7730316277451352     
   3.4500000000000003E-002   -0.61660967607203931     
   3.4799999999999998E-002    0.52715636001428778     
   3.5099999999999999E-002     1.6175051863804908     
   3.5400000000000001E-002     2.6206192120150908     
   3.5699999999999996E-002     3.5105773887495357     
   3.6000000000000004E-002     4.2670609691584644     
   3.6299999999999999E-002     4.8742244157244246     
   3.6600000000000008E-002     5.3199799065215956     
   3.6900000000000002E-002     5.5941936986177012     
   3.7199999999999997E-002     5.6877644017721671     
   3.7500000000000006E-002     5.5931389160033831     
   3.7800000000000000E-002     5.3038785100028338     
   3.8100000000000009E-002     4.8158943058875918     
   3.8400000000000004E-002     4.1295134144752961     
   3.8699999999999998E-002     3.2496353382332157     
   3.9000000000000007E-002     2.1877244350913254     
   3.9300000000000002E-002    0.96330390864298243     
   3.9600000000000003E-002   -0.39825760958980344     
   3.9900000000000005E-002    -1.8632648387093367     
   4.0200000000000000E-002    -3.3919087302853792     
   4.0500000000000001E-002    -4.9409619687579793     
   4.0800000000000003E-002    -6.4638149135661100     
   4.1100000000000005E-002    -7.9140779842377080     
   4.1399999999999999E-002    -9.2468932011012654     
   4.1700000000000008E-002    -10.420084316858434     
   4.2000000000000003E-002    -11.397390725475953     
   4.2299999999999997E-002    -12.147716920849961     
   4.2600000000000006E-002    -12.645019963705529     
   4.2900000000000001E-002    -12.870089037009835     
   4.3200000000000002E-002    -12.808608534126204     
   4.3500000000000004E-002    -12.450767052286071     
   4.3799999999999999E-002    -11.792036544250946     
   4.4100000000000000E-002    -10.831274507057310     
   4.4400000000000002E-002    -9.5718550394638644     
   4.4700000000000004E-002    -8.0233873629387347     
   4.4999999999999998E-002    -6.2006133748979630     
   4.5300000000000000E-002    -4.1258900625220667     
   4.5600000000000002E-002    -1.8309522506458638     
   4.5899999999999996E-002    0.64366997366536283     
   4.6200000000000005E-002     3.2454569295722857     
   4.6500000000000000E-002     5.9110218167352171     
   4.6799999999999994E-002     8.5678722706157870     
   4.7100000000000003E-002     11.133282047817682     
   4.7399999999999998E-002     13.519054866712455     
   4.7700000000000006E-002     15.635164820997950     
   4.8000000000000001E-002     17.391852079990276     
   4.8300000000000010E-002     18.708040970735400     
   4.8600000000000004E-002     19.513123350271286     
   4.8899999999999999E-002     19.752690188191714     
   4.9200000000000008E-002     19.395783305667120     
   4.9500000000000002E-002     18.433377127373760     
   4.9800000000000011E-002     16.883597186814377     
   5.0100000000000006E-002     14.794887278373471     
   5.0400000000000000E-002     12.239568342580382     
   5.0700000000000009E-002     9.3166661091898657     
   5.1000000000000004E-002     6.1473992639861743     
   5.1299999999999998E-002     2.8664356869843353     
   5.1600000000000007E-002   -0.37987345627554148     
   5.1900000000000002E-002    -3.4444185900534330     
   5.2200000000000010E-002    -6.1880057536083015     
   5.2500000000000005E-002    -8.4834408329300004     
   5.2800000000000000E-002    -10.229212342328037     
   5.3099999999999994E-002    -11.354010232228999     
   5.3400000000000003E-002    -11.819530170162240     
   5.3699999999999998E-002    -11.630115186602957     
   5.4000000000000006E-002    -10.828695885118968     
   5.4300000000000001E-002    -9.4932818749040493     
   5.4599999999999996E-002    -7.7389826045096823     
   5.4900000000000004E-002    -5.7039764305944978     
   5.5199999999999999E-002    -3.5407573166027237     
   5.5499999999999994E-002    -1.4092044797779979     
   5.5800000000000002E-002    0.54092802122063832     
   5.6099999999999997E-002     2.1773605420795801     
   5.6400000000000006E-002     3.3944905722615561     
   5.6700000000000000E-002     4.1254190436834426     
   5.6999999999999995E-002     4.3397225504465000     
   5.7300000000000004E-002     4.0481871489307046     
   5.7599999999999998E-002     3.3020969162358833     
   5.7900000000000007E-002     2.1809236848476883     
   5.8200000000000002E-002    0.79105632934429615     
   5.8499999999999996E-002   -0.74571711619255598     
   5.8800000000000005E-002    -2.3073216794163898     
   5.9100000000000000E-002    -3.7746343687371127     
   5.9400000000000008E-002    -5.0441578490934180     
   5.9700000000000003E-002    -6.0367874509878918     
   6.0000000000000012E-002    -6.6971273289229725     
   6.0300000000000006E-002    -7.0006446859263409     
   6.0600000000000001E-002    -6.9508328316264816     
   6.0900000000000010E-002    -6.5746850447561149     
   6.1200000000000004E-002    -5.9222620795213183     
   6.1500000000000013E-002    -5.0568297431963192     
   6.1800000000000008E-002    -4.0496384820507130     
   6.2100000000000002E-002    -2.9768823507130930     
   6.2399999999999997E-002    -1.9089751832944319     
   6.2700000000000006E-002   -0.90761446785463229     
   6.3000000000000000E-002    -2.6283566198707031E-002
   6.3300000000000009E-002    0.69697507213153487     
   6.3600000000000004E-002     1.2391414410063566     
   6.3899999999999998E-002     1.5895652584645330     
   6.4199999999999993E-002     1.7530802250759512     
   6.4500000000000002E-002     1.7431693920406017     
   6.4800000000000010E-002     1.5811973328406062     
   6.5100000000000005E-002     1.2982149698031060     
   6.5400000000000000E-002    0.92364578080548088     
   6.5700000000000008E-002    0.48750309030907979     
   6.5999999999999989E-002     2.0757619086226906E-002
   6.6299999999999998E-002   -0.45432817251877383     
   6.6600000000000006E-002   -0.91787047894112506     
   6.6900000000000001E-002    -1.3545343348296628     
   6.7199999999999996E-002    -1.7561914247151906     
   6.7500000000000004E-002    -2.1152874565274686     
   6.7800000000000013E-002    -2.4256199714651632     
   6.8099999999999994E-002    -2.6809750663750802     
   6.8400000000000002E-002    -2.8714373911752502     
   6.8700000000000011E-002    -2.9865117613892962     
   6.8999999999999992E-002    -3.0117383306270198     
   6.9300000000000000E-002    -2.9302709220589196     
   6.9600000000000009E-002    -2.7308857444532442     
   6.9900000000000004E-002    -2.4046933629027927     
   7.0199999999999999E-002    -1.9493480973073118     
   7.0500000000000007E-002    -1.3760935281300217     
   7.0800000000000016E-002   -0.70374588600163779     
   7.1099999999999997E-002     4.0821467560917035E-002
   7.1400000000000005E-002    0.82210191694273782     
   7.1700000000000000E-002     1.6076965424543936     
   7.1999999999999995E-002     2.3720864095285017     
   7.2300000000000003E-002     3.1018298987609190     
   7.2600000000000012E-002     3.8051475626390134     
   7.2900000000000006E-002     4.5104042949542524     
   7.3200000000000001E-002     5.2675149260427023     
   7.3499999999999996E-002     6.1448886502253952     
   7.3800000000000004E-002     7.2146456460541009     
   7.4099999999999999E-002     8.5456802880935037     
   7.4400000000000008E-002     10.187170212587199     
   7.4700000000000003E-002     12.148270686717197     
   7.5000000000000011E-002     14.394888805329458     
   7.5299999999999992E-002     16.834651678463686     
   7.5600000000000001E-002     19.311137656838575     
   7.5900000000000009E-002     21.618994927431352     
   7.6200000000000004E-002     23.507664659477005     
   7.6499999999999999E-002     24.702221647030392     
   7.6800000000000007E-002     24.932362188506335     
   7.7099999999999988E-002     23.955027149159481     
   7.7399999999999997E-002     21.587448678907943     
   7.7700000000000005E-002     17.732521760436693     
   7.8000000000000014E-002     12.393627170571405     
   7.8299999999999995E-002     5.6947358847178338     
   7.8600000000000003E-002    -2.1220943173903675     
   7.8900000000000012E-002    -10.709666884540701     
   7.9199999999999993E-002    -19.625867022507009     
   7.9500000000000001E-002    -28.368879927873085     
   7.9800000000000010E-002    -36.414522365853571     
   8.0100000000000018E-002    -43.248346206911798     
   8.0399999999999999E-002    -48.413190529534461     
   8.0700000000000008E-002    -51.544679284622298     
   8.1000000000000003E-002    -52.397062053641754     
   8.1299999999999997E-002    -50.869367609321429     
   8.1600000000000006E-002    -47.012072009669545     
   8.1900000000000014E-002    -41.024264278205344     
   8.2199999999999995E-002    -33.240672619883910     
   8.2500000000000004E-002    -24.102363736356644     
   8.2799999999999999E-002    -14.126925247286650     
   8.3100000000000007E-002    -3.8702567321073458     
   8.3400000000000002E-002     6.1191489359310394     
   8.3700000000000011E-002     15.333734391264976     
   8.4000000000000005E-002     23.336694403321616     
   8.4300000000000000E-002     29.794238676582811     
   8.4599999999999995E-002     34.487611484801810     
   8.4900000000000003E-002     37.315442956865915     
   8.5199999999999998E-002     38.296030266645808     
   8.5500000000000007E-002     37.550970677958325     
   8.5800000000000001E-002     35.285853455987066     
   8.6100000000000010E-002     31.771684200948989     
   8.6399999999999991E-002     27.317110041385188     
   8.6699999999999999E-002     22.245737444525702     
   8.7000000000000008E-002     16.873327957741800     
   8.7300000000000003E-002     11.493061080101141     
   8.7599999999999997E-002     6.3592579028203140     
   8.7900000000000006E-002     1.6798030932265304     
   8.8200000000000014E-002    -2.3905447727198763     
   8.8499999999999995E-002    -5.7486611888566550     
   8.8800000000000004E-002    -8.3393323369820536     
   8.9100000000000013E-002    -10.159026987107447     
   8.9399999999999993E-002    -11.238338522649505     
   8.9700000000000002E-002    -11.642499207864057     
   9.0000000000000011E-002    -11.464831783848842     
   9.0299999999999991E-002    -10.809723523657240     
   9.0600000000000000E-002    -9.7954805771220208     
   9.0900000000000009E-002    -8.5389614186122120     
   9.1200000000000017E-002    -7.1509591567556354     
   9.1499999999999998E-002    -5.7353160456223486     
   9.1800000000000007E-002    -4.3735054348575542     
   9.2100000000000001E-002    -3.1312860308291643     
   9.2399999999999996E-002    -2.0566939340594046     
   9.2700000000000005E-002    -1.1737437411955949     
   9.3000000000000013E-002   -0.49009727701901057     
   9.3300000000000008E-002    -5.0961189536202582E-004
   9.3600000000000003E-002    0.31326275685562333     
   9.3899999999999997E-002    0.47698248502188412     
   9.4200000000000006E-002    0.51612012988286149     
   9.4500000000000001E-002    0.46114057553729831     
   9.4800000000000009E-002    0.33961266804496881     
   9.5100000000000004E-002    0.17447319875065520     
   9.5399999999999999E-002    -1.0602148661143370E-002
   9.5699999999999993E-002   -0.19779230999272654     
   9.6000000000000002E-002   -0.36850405138564679     
   9.6300000000000011E-002   -0.50520148081924654     
   9.6600000000000005E-002   -0.59652657395371278     
   9.6900000000000000E-002   -0.62802982410958441     
   9.7200000000000009E-002   -0.58941727068530281     
   9.7499999999999989E-002   -0.47748179606973062     
   9.7799999999999998E-002   -0.28975657342580508     
   9.8100000000000007E-002    -3.2058446163858167E-002
   9.8400000000000015E-002    0.28131061959213322     
   9.8699999999999996E-002    0.63569012697925120     
   9.9000000000000005E-002     1.0071951507281882     
   9.9300000000000013E-002     1.3698130033543288     
   9.9599999999999994E-002     1.7019918365798914     
   9.9900000000000003E-002     1.9767798617236731     
  0.10020000000000001          2.1778882020545676     
  0.10049999999999999          2.2952132729541090     
  0.10080000000000000          2.3179405275426497     
  0.10110000000000001          2.2514834960910504     
  0.10140000000000000          2.1042709896873455     
  0.10170000000000000          1.8854839122564384     
  0.10200000000000001          1.6144310674446241     
  0.10230000000000002          1.3071266747334551     
  0.10260000000000000         0.98026367143757509     
  0.10290000000000001         0.65108055528996034     
  0.10320000000000000         0.33131688072454268     
  0.10350000000000001          3.2918876259821629E-002
  0.10380000000000000        -0.23493987444525813     
  0.10410000000000001        -0.46959499339257660     
  0.10440000000000001        -0.66554502799985249     
  0.10470000000000000        -0.81947235480286362     
  0.10500000000000000        -0.93686894499790363     
  0.10530000000000000         -1.0160806525208610     
  0.10560000000000000         -1.0602530539348518     
  0.10590000000000001         -1.0786177169183255     
  0.10620000000000000         -1.0737159470443665     
  0.10650000000000001         -1.0560801227884453     
  0.10679999999999999         -1.0340454770027621     
  0.10710000000000000         -1.0114749874441793     
  0.10740000000000001        -0.99886991779260825     
  0.10770000000000000        -0.99840756586653601     
  0.10800000000000000         -1.0108433010712383     
  0.10830000000000001         -1.0379939312214126     
  0.10859999999999999         -1.0728894685492747     
  0.10890000000000000         -1.1097237053792119     
  0.10920000000000001         -1.1431155338534140     
  0.10950000000000001         -1.1621838891468672     
  0.10979999999999999         -1.1593964136038510     
  0.11009999999999999         -1.1316418634176977     
  0.11040000000000001         -1.0716406060048038     
  0.11070000000000001        -0.98040079377730305     
  0.11100000000000000        -0.86142998075149491     
  0.11130000000000000        -0.71621834386900896     
  0.11160000000000002        -0.55652063252785122     
  0.11190000000000001        -0.38981541170602030     
  0.11220000000000001        -0.22439334500341176     
  0.11250000000000000         -7.4660083631910873E-002
  0.11280000000000000          5.5074940631870961E-002
  0.11309999999999999         0.15811586115833071     
  0.11340000000000001         0.22644364870032149     
  0.11369999999999998         0.26392866923004282     
  0.11400000000000000         0.27112241497432005     
  0.11430000000000000         0.25177784729398889     
  0.11460000000000002         0.21764405336495574     
  0.11489999999999999         0.17521926646790625     
  0.11520000000000001         0.13412121758428272     
  0.11550000000000001         0.10883187478265202     
  0.11580000000000000         0.10305802348486585     
  0.11609999999999999         0.12463253379799555     
  0.11640000000000002         0.17872092326744288     
  0.11670000000000001         0.25964453378922869     
  0.11700000000000001         0.36793356299392482     
  0.11730000000000000         0.49473865933548544     
  0.11760000000000000         0.62797435697998050     
  0.11789999999999999         0.76276079198826885     
  0.11820000000000001         0.88494776277950205     
  0.11850000000000001         0.98696410766046405     
  0.11880000000000000          1.0681188270743593     
  0.11910000000000000          1.1203680359612067     
  0.11940000000000002          1.1482303596833652     
  0.11970000000000001          1.1594899243260186     
  0.12000000000000001          1.1554856888159744     
  0.12030000000000000          1.1464113570005630     
  0.12060000000000000          1.1400470039410666     
  0.12089999999999999          1.1349007278735994     
  0.12119999999999999          1.1360568046786796     
  0.12150000000000001          1.1381899198181147     
  0.12180000000000001          1.1311759895322882     
  0.12210000000000000          1.1109324534920988     
  0.12239999999999999          1.0609006682779227     
  0.12270000000000002         0.97383354432332270     
  0.12300000000000001         0.84762685765701773     
  0.12330000000000001         0.67375368810208802     
  0.12360000000000000         0.46198073012459479     
  0.12390000000000000         0.22427285281117279     
  0.12419999999999999         -2.9586428065326475E-002
  0.12450000000000001        -0.27641860366474008     
  0.12480000000000001        -0.49959770198188358     
  0.12509999999999999        -0.68513611993377976     
  0.12540000000000001        -0.81962490076900607     
  0.12570000000000003        -0.90345427409167467     
  0.12600000000000000        -0.94304836614558529     
  0.12630000000000002        -0.94850855266437428     
  0.12659999999999999        -0.94384828709230373     
  0.12690000000000001        -0.95063097561997767     
  0.12719999999999998        -0.98764465436512738     
  0.12750000000000000         -1.0794171653005493     
  0.12780000000000002         -1.2312417580005439     
  0.12809999999999999         -1.4417606976322399     
  0.12840000000000001         -1.7043309273985277     
  0.12869999999999998         -1.9904684652205844     
  0.12900000000000000         -2.2711718400557870     
  0.12930000000000003         -2.5109083434403741     
  0.12959999999999999         -2.6650046589718372     
  0.12990000000000002         -2.7038494404069526     
  0.13019999999999998         -2.5979245644321600     
  0.13050000000000000         -2.3268073374096816     
  0.13080000000000003         -1.8914715795433064     
  0.13109999999999999         -1.2989825872306013     
  0.13140000000000002        -0.57247161015603965     
  0.13169999999999998         0.24738480692121595     
  0.13200000000000001          1.1210591156974246     
  0.13229999999999997          1.9969144009089606     
  0.13260000000000000          2.8201725234446204     
  0.13290000000000002          3.5474659794687304     
  0.13319999999999999          4.1308030200089716     
  0.13350000000000001          4.5359891774557495     
  0.13380000000000003          4.7434180992324508     
  0.13410000000000000          4.7366279377698088     
  0.13440000000000002          4.5187920430091344     
  0.13469999999999999          4.1052044878650742     
  0.13500000000000001          3.5163273086229334     
  0.13529999999999998          2.7884501936808364     
  0.13560000000000000          1.9615454466149338     
  0.13590000000000002          1.0781997505518528     
  0.13619999999999999         0.18710620773292319     
  0.13650000000000001        -0.66882319150999536     
  0.13680000000000003         -1.4513692194017458     
  0.13710000000000000         -2.1231371606930760     
  0.13740000000000002         -2.6628505406414442     
  0.13769999999999999         -3.0548633781544998     
  0.13800000000000001         -3.2870666326976412     
  0.13829999999999998         -3.3698243565973844     
  0.13860000000000000         -3.3116707423877694     
  0.13890000000000002         -3.1264226225461536     
  0.13919999999999999         -2.8422739444478373     
  0.13950000000000001         -2.4790618494656163     
  0.13979999999999998         -2.0641412914241841     
  0.14010000000000000         -1.6245811223914122     
  0.14040000000000002         -1.1778581410784685     
  0.14069999999999999        -0.74894985182887031     
  0.14100000000000001        -0.35375272453546369     
  0.14130000000000004         -3.2221338916254205E-003
  0.14160000000000000         0.28788294408924126     
  0.14189999999999997         0.51545607755803080     
  0.14219999999999999         0.67731631078824883     
  0.14250000000000002         0.76930481980539323     
  0.14279999999999998         0.79657227927069663     
  0.14310000000000000         0.76739431657444246     
  0.14339999999999997         0.68769193940256068     
  0.14369999999999999         0.57237262568358982     
  0.14400000000000002         0.43358121018588602     
  0.14429999999999998         0.28356701439547943     
  0.14460000000000001         0.14017010951182723     
  0.14490000000000003          1.0642530070663183E-002
  0.14520000000000000         -9.6786863901480280E-002
  0.14550000000000002        -0.17399939059606118     
  0.14579999999999999        -0.22522791966865752     
  0.14610000000000001        -0.25130445057861778     
  0.14640000000000003        -0.25800115652856076     
  0.14670000000000000        -0.25726918466925991     
  0.14699999999999996        -0.25350521308109802     
  0.14729999999999999        -0.25564353042606902     
  0.14760000000000001        -0.26985452841847973     
  0.14789999999999998        -0.29407901662425295     
  0.14820000000000000        -0.32888422215097507     