  -1.4999999999999999E-002     0.0000000000000000     
  -1.4700000000000000E-002     0.0000000000000000     
  -1.4400000000000000E-002     0.0000000000000000     
  -1.4100000000000000E-002     0.0000000000000000     
  -1.3800000000000000E-002     0.0000000000000000     
  -1.3500000000000000E-002     0.0000000000000000     
  -1.3200000000000000E-002     0.0000000000000000     
  -1.2899999999999998E-002     0.0000000000000000     
  -1.2600000000000000E-002     0.0000000000000000     
  -1.2299999999999998E-002     0.0000000000000000     
  -1.2000000000000000E-002     0.0000000000000000     
  -1.1699999999999999E-002     0.0000000000000000     
  -1.1399999999999999E-002     0.0000000000000000     
  -1.1099999999999999E-002     0.0000000000000000     
  -1.0799999999999999E-002     0.0000000000000000     
  -1.0499999999999999E-002     0.0000000000000000     
  -1.0199999999999999E-002     0.0000000000000000     
  -9.8999999999999991E-003     3.0688436835741499E-045
  -9.5999999999999992E-003    -2.1486651379543692E-043
  -9.2999999999999992E-003     7.8537061338317296E-036
  -8.9999999999999993E-003    -2.1043044995722802E-034
  -8.6999999999999994E-003     1.7232499436436615E-033
  -8.3999999999999995E-003    -9.6073245739365315E-033
  -8.0999999999999996E-003     2.6023153682460965E-032
  -7.7999999999999988E-003     7.1414840341072226E-034
  -7.4999999999999997E-003    -3.1141555993714823E-031
  -7.1999999999999998E-003     1.0862403145668390E-030
  -6.8999999999999981E-003     3.1912961119800622E-031
  -6.5999999999999982E-003    -1.8496021232885757E-029
  -6.3000000000000000E-003     1.1306952055399291E-028
  -6.0000000000000001E-003    -6.6387678730765657E-028
  -5.6999999999999985E-003     4.3915179112909247E-027
  -5.3999999999999986E-003    -2.6422944791803136E-026
  -5.1000000000000004E-003     1.2913000901389055E-025
  -4.7999999999999987E-003    -5.0460881899584173E-025
  -4.5000000000000005E-003     1.5854129346262550E-024
  -4.1999999999999989E-003    -4.0050535240844009E-024
  -3.8999999999999990E-003     8.0107967824789696E-024
  -3.5999999999999990E-003    -1.2177215998961157E-023
  -3.2999999999999991E-003     1.3166534689710212E-023
  -2.9999999999999992E-003    -1.2814665309457674E-023
  -2.6999999999999993E-003     4.4406268496361258E-023
  -2.3999999999999994E-003    -2.3197228305100550E-022
  -2.0999999999999977E-003     9.0025705619354391E-022
  -1.7999999999999995E-003    -2.8197086685867694E-021
  -1.4999999999999979E-003     7.9878214161536330E-021
  -1.1999999999999997E-003    -2.2200934590578756E-020
  -8.9999999999999976E-004     6.1980397574150227E-020
  -5.9999999999999810E-004    -1.6848866618115009E-019
  -2.9999999999999992E-004     4.2514179623945539E-019
   0.0000000000000000         -9.5737468997725295E-019
   3.0000000000000165E-004     1.8645458033206289E-018
   5.9999999999999984E-004    -3.0249074572870252E-018
   9.0000000000000149E-004     3.7914433664897692E-018
   1.2000000000000031E-003    -2.8209063444132900E-018
   1.5000000000000013E-003    -1.4069841845852520E-018
   1.8000000000000030E-003     8.7005248735528671E-018
   2.1000000000000012E-003    -1.3678755088709044E-017
   2.3999999999999994E-003     1.5681476268246755E-018
   2.7000000000000010E-003     5.4980078439104999E-017
   2.9999999999999992E-003    -1.9684889255460126E-016
   3.3000000000000008E-003     4.7713933483574380E-016
   3.6000000000000025E-003    -9.5221394321239802E-016
   3.9000000000000007E-003     1.6355239387727496E-015
   4.2000000000000023E-003    -2.3516140194325720E-015
   4.5000000000000005E-003     2.4881739416715296E-015
   4.7999999999999987E-003    -9.9249056916423459E-016
   5.1000000000000004E-003    -2.5266540681422722E-015
   5.4000000000000020E-003     5.3135208214421153E-015
   5.7000000000000037E-003    -8.9723959942507170E-016
   5.9999999999999984E-003    -1.1682830712721023E-014
   6.3000000000000000E-003     6.3226834278645312E-015
   6.6000000000000017E-003     7.8639556211536609E-014
   6.9000000000000034E-003    -2.6422001189797939E-013
   7.2000000000000015E-003     2.7231525845807633E-013
   7.5000000000000032E-003     8.4288090371280114E-013
   7.8000000000000014E-003    -4.2216770825527242E-012
   8.0999999999999996E-003     7.4080385024029616E-012
   8.4000000000000012E-003     2.9240402433674363E-012
   8.7000000000000029E-003    -4.7510345189345815E-011
   9.0000000000000011E-003     1.1327119627510739E-010
   9.2999999999999992E-003    -9.5033713684233642E-011
   9.6000000000000009E-003    -1.6287112652368390E-010
   9.8999999999999991E-003     7.0159059196205742E-010
   1.0200000000000001E-002    -1.3020852141597473E-009
   1.0500000000000002E-002     7.1200147453166241E-010
   1.0800000000000004E-002     5.0722197070898209E-009
   1.1099999999999999E-002    -1.3760156261553662E-008
   1.1400000000000000E-002    -7.7620051715124310E-009
   1.1700000000000002E-002     6.9345435210230301E-008
   1.2000000000000004E-002     3.1724530815568509E-009
   1.2300000000000002E-002    -3.0813754239070986E-007
   1.2600000000000000E-002    -1.0658377301947884E-007
   1.2900000000000002E-002     1.0001342141663452E-006
   1.3200000000000000E-002     8.0806807355675926E-007
   1.3500000000000002E-002    -2.3641408874384638E-006
   1.3800000000000003E-002    -3.3809905667840228E-006
   1.4100000000000001E-002     5.5733339090634976E-006
   1.4400000000000000E-002     2.2554302250108491E-005
   1.4700000000000001E-002     3.7960123231402156E-005
   1.4999999999999999E-002     5.3039978933178150E-005
   1.5300000000000001E-002     8.4665223046250567E-005
   1.5600000000000003E-002     1.4655281287310058E-004
   1.5899999999999997E-002     2.3834761358459717E-004
   1.6199999999999999E-002     3.6297568229769043E-004
   1.6500000000000001E-002     5.4845881132711751E-004
   1.6800000000000002E-002     8.4170375697440478E-004
   1.7100000000000004E-002     1.2821541826884132E-003
   1.7400000000000006E-002     1.9028678507039510E-003
   1.7700000000000000E-002     2.7741902895231348E-003
   1.8000000000000002E-002     4.0231541239396495E-003
   1.8300000000000004E-002     5.7847898292447270E-003
   1.8600000000000005E-002     8.1716493693081791E-003
   1.8900000000000000E-002     1.1335091288737546E-002
   1.9200000000000002E-002     1.5518203809493467E-002
   1.9500000000000003E-002     2.0997102645497423E-002
   1.9799999999999998E-002     2.8008039187799837E-002
   2.0100000000000000E-002     3.6777528783446194E-002
   2.0400000000000001E-002     4.7562735667833818E-002
   2.0700000000000003E-002     6.0584007033631017E-002
   2.0999999999999998E-002     7.5933350109159178E-002
   2.1299999999999999E-002     9.3570289630687323E-002
   2.1600000000000001E-002    0.11333291704405363     
   2.1900000000000003E-002    0.13485470105157241     
   2.2200000000000004E-002    0.15744799034437240     
   2.2500000000000006E-002    0.18008003763137434     
   2.2800000000000001E-002    0.20141274847629489     
   2.3100000000000002E-002    0.21981075027476446     
   2.3400000000000004E-002    0.23332124588960218     
   2.3699999999999999E-002    0.23972172716805809     
   2.4000000000000000E-002    0.23668259130153441     
   2.4300000000000002E-002    0.22193446595688199     
   2.4599999999999997E-002    0.19337528902743648     
   2.4900000000000005E-002    0.14923235876366742     
   2.5200000000000000E-002     8.8342587349977852E-002
   2.5499999999999995E-002     1.0402574045409983E-002
   2.5800000000000003E-002    -8.3951504088842846E-002
   2.6099999999999998E-002   -0.19310482505451715     
   2.6400000000000007E-002   -0.31436785041009135     
   2.6700000000000002E-002   -0.44391025911851284     
   2.6999999999999996E-002   -0.57690040936584142     
   2.7300000000000005E-002   -0.70782856707462305     
   2.7600000000000000E-002   -0.83078949151660886     
   2.7900000000000008E-002   -0.93967406425834221     
   2.8200000000000003E-002    -1.0284426062670564     
   2.8499999999999998E-002    -1.0915489053396956     
   2.8800000000000006E-002    -1.1243014202428647     
   2.9100000000000001E-002    -1.1229731916992285     
   2.9400000000000003E-002    -1.0849145547827579     
   2.9700000000000004E-002    -1.0086951171838503     
   3.0000000000000006E-002   -0.89416217175833601     
   3.0300000000000001E-002   -0.74236088592404514     
   3.0600000000000002E-002   -0.55543958988717645     
   3.0900000000000004E-002   -0.33667266481166425     
   3.1199999999999999E-002    -9.0379525206758307E-002
   3.1500000000000007E-002    0.17816074982371385     
   3.1800000000000002E-002    0.46261497304420612     
   3.2099999999999997E-002    0.75559352452103745     
   3.2400000000000005E-002     1.0487781588753555     
   3.2700000000000000E-002     1.3329189803613095     
   3.3000000000000002E-002     1.5978816497711019     
   3.3300000000000003E-002     1.8330025386906783     
   3.3599999999999998E-002     2.0274760404687542     
   3.3900000000000000E-002     2.1706425798770344     
   3.4200000000000001E-002     2.2525267238315876     
   3.4500000000000003E-002     2.2646009552659119     
   3.4799999999999998E-002     2.2003576392832613     
   3.5099999999999999E-002     2.0557164805101009     
   3.5400000000000001E-002     1.8294734652666871     
   3.5699999999999996E-002     1.5238377801557974     
   3.6000000000000004E-002     1.1445964400744224     
   3.6299999999999999E-002    0.70104514684235197     
   3.6600000000000008E-002    0.20589530594640587     
   3.6900000000000002E-002   -0.32497649178612742     
   3.7199999999999997E-002   -0.87300024092178596     
   3.7500000000000006E-002    -1.4173744574111209     
   3.7800000000000000E-002    -1.9356758148778999     
   3.8100000000000009E-002    -2.4048304022469957     
   3.8400000000000004E-002    -2.8019303669543092     
   3.8699999999999998E-002    -3.1051737609538099     
   3.9000000000000007E-002    -3.2949492260105697     
   3.9300000000000002E-002    -3.3550633725048482     
   3.9600000000000003E-002    -3.2739970068850854     
   3.9900000000000005E-002    -3.0458065923319824     
   4.0200000000000000E-002    -2.6711709062993552     
   4.0500000000000001E-002    -2.1582946469202224     
   4.0800000000000003E-002    -1.5232097941171547     
   4.1100000000000005E-002   -0.78964054551051932     
   4.1399999999999999E-002     1.1652584215384707E-002
   4.1700000000000008E-002    0.84394499496229880     
   4.2000000000000003E-002     1.6662321825749040     
   4.2299999999999997E-002     2.4355620759635670     
   4.2600000000000006E-002     3.1095878406534605     
   4.2900000000000001E-002     3.6492737992469633     
   4.3200000000000002E-002     4.0217923363159667     
   4.3500000000000004E-002     4.2029928419832512     
   4.3799999999999999E-002     4.1794642710449068     
   4.4100000000000000E-002     3.9500572071746700     
   4.4400000000000002E-002     3.5264794325495554     
   4.4700000000000004E-002     2.9329728707224363     
   4.4999999999999998E-002     2.2050983671810465     
   4.5300000000000000E-002     1.3876544144018366     
   4.5600000000000002E-002    0.53182024166161668     
   4.5899999999999996E-002   -0.30850563858864044     
   4.6200000000000005E-002    -1.0808223234425844     
   4.6500000000000000E-002    -1.7376918475607002     
   4.6799999999999994E-002    -2.2401449329493901     
   4.7100000000000003E-002    -2.5608920699184248     
   4.7399999999999998E-002    -2.6866821920711432     
   4.7700000000000006E-002    -2.6194171639802422     
   4.8000000000000001E-002    -2.3760599900686850     
   4.8300000000000010E-002    -1.9874049324151351     
   4.8600000000000004E-002    -1.4958481778818358     
   4.8899999999999999E-002   -0.95204193144892046     
   4.9200000000000008E-002   -0.41080613372583286     
   4.9500000000000002E-002     7.3065351613049417E-002
   4.9800000000000011E-002    0.44945658225054536     
   5.0100000000000006E-002    0.67707822907551052     
   5.0400000000000000E-002    0.72706382238057865     
   5.0700000000000009E-002    0.58594399378509487     
   5.1000000000000004E-002    0.25699708772771845     
   5.1299999999999998E-002   -0.23945916318866595     
   5.1600000000000007E-002   -0.86687429764975199     
   5.1900000000000002E-002    -1.5749039091888393     
   5.2200000000000010E-002    -2.3029369595947506     
   5.2500000000000005E-002    -2.9847320665182817     
   5.2800000000000000E-002    -3.5536796100491408     
   5.3099999999999994E-002    -3.9485103078656238     
   5.3400000000000003E-002    -4.1189488349272549     
   5.3699999999999998E-002    -4.0307802182058596     
   5.4000000000000006E-002    -3.6698199828240918     
   5.4300000000000001E-002    -3.0445934999968127     
   5.4599999999999996E-002    -2.1869639815863167     
   5.4900000000000004E-002    -1.1506499934306980     
   5.5199999999999999E-002    -8.0173918426967462E-003
   5.5499999999999994E-002     1.1551477726909349     
   5.5800000000000002E-002     2.2467202722838935     
   5.6099999999999997E-002     3.1764060826783265     
   5.6400000000000006E-002     3.8640414879984561     
   5.6700000000000000E-002     4.2473157936960799     
   5.6999999999999995E-002     4.2885898593782876     
   5.7300000000000004E-002     3.9797417179065975     
   5.7599999999999998E-002     3.3441261376814437     
   5.7900000000000007E-002     2.4357558932674013     
   5.8200000000000002E-002     1.3355762367349917     
   5.8499999999999996E-002    0.14524285827331920     
   5.8800000000000005E-002    -1.0217414137135745     
   5.9100000000000000E-002    -2.0499284340595598     
   5.9400000000000008E-002    -2.8320825046572140     
   5.9700000000000003E-002    -3.2791747916959295     
   6.0000000000000012E-002    -3.3286597582493709     
   6.0300000000000006E-002    -2.9503219029920813     
   6.0600000000000001E-002    -2.1489787116187622     
   6.0900000000000010E-002   -0.96422578738759823     
   6.1200000000000004E-002    0.53243764251282977     
   6.1500000000000013E-002     2.2440833409373835     
   6.1800000000000008E-002     4.0567945551346929     
   6.2100000000000002E-002     5.8486703711090557     
   6.2399999999999997E-002     7.4995812056390676     
   6.2700000000000006E-002     8.9001005621261555     
   6.3000000000000000E-002     9.9590357196983650     
   6.3300000000000009E-002     10.609351957894143     
   6.3600000000000004E-002     10.810854765692218     
   6.3899999999999998E-002     10.551024306508690     
   6.4199999999999993E-002     9.8435200568910783     
   6.4500000000000002E-002     8.7245778250226191     
   6.4800000000000010E-002     7.2479257130915657     
   6.5100000000000005E-002     5.4791541011203346     
   6.5400000000000000E-002     3.4904914191351737     
   6.5700000000000008E-002     1.3560183711315077     
   6.5999999999999989E-002   -0.85315968332379188     
   6.6299999999999998E-002    -3.0716718280452877     
   6.6600000000000006E-002    -5.2407482418223141     
   6.6900000000000001E-002    -7.3088729884596724     
   6.7199999999999996E-002    -9.2312934705038572     
   6.7500000000000004E-002    -10.968806997962369     
   6.7800000000000013E-002    -12.486108547627193     
   6.8099999999999994E-002    -13.750096083918763     
   6.8400000000000002E-002    -14.729341269667922     
   6.8700000000000011E-002    -15.394497638669318     
   6.8999999999999992E-002    -15.718791738000904     
   6.9300000000000000E-002    -15.678691653833043     
   6.9600000000000009E-002    -15.256524847347496     
   6.9900000000000004E-002    -14.443751164814506     
   7.0199999999999999E-002    -13.242506836389838     
   7.0500000000000007E-002    -11.667405013282739     
   7.0800000000000016E-002    -9.7476929789178843     
   7.1099999999999997E-002    -7.5282554142253488     
   7.1400000000000005E-002    -5.0683674686310338     
   7.1700000000000000E-002    -2.4396982429292096     
   7.1999999999999995E-002    0.27563059367182552     
   7.2300000000000003E-002     2.9888712428579143     
   7.2600000000000012E-002     5.6091474243964026     
   7.2900000000000006E-002     8.0482052238961117     
   7.3200000000000001E-002     10.225156609138772     
   7.3499999999999996E-002     12.070447728526554     
   7.3800000000000004E-002     13.528704436879599     
   7.4099999999999999E-002     14.561965728069339     
   7.4400000000000008E-002     15.150774738466948     
   7.4700000000000003E-002     15.293242238917406     
   7.5000000000000011E-002     15.004818706490379     
   7.5299999999999992E-002     14.315735616392100     
   7.5600000000000001E-002     13.268193056486501     
   7.5900000000000009E-002     11.913139169249316     
   7.6200000000000004E-002     10.307518801321013     
   7.6499999999999999E-002     8.5124348193683197     
   7.6800000000000007E-002     6.5895270089226319     
   7.7099999999999988E-002     4.5996498049139678     
   7.7399999999999997E-002     2.6030608805427686     
   7.7700000000000005E-002    0.65801614665099073     
   7.8000000000000014E-002    -1.1798409574460873     
   7.8299999999999995E-002    -2.8575914016219581     
   7.8600000000000003E-002    -4.3255519728549796     
   7.8900000000000012E-002    -5.5385183897684005     
   7.9199999999999993E-002    -6.4581660584584517     
   7.9500000000000001E-002    -7.0547241285892826     
   7.9800000000000010E-002    -7.3094457482914068     
   8.0100000000000018E-002    -7.2173637059610973     
   8.0399999999999999E-002    -6.7888062955881461     
   8.0700000000000008E-002    -6.0509093672262022     
   8.1000000000000003E-002    -5.0476878524753186     
   8.1299999999999997E-002    -3.8389697948840009     
   8.1600000000000006E-002    -2.4973948984036940     
   8.1900000000000014E-002    -1.1044799055145416     
   8.2199999999999995E-002    0.25400147808962226     
   8.2500000000000004E-002     1.4940013400897307     
   8.2799999999999999E-002     2.5393486415380173     
   8.3100000000000007E-002     3.3268106048718940     
   8.3400000000000002E-002     3.8103394254954193     
   8.3700000000000011E-002     3.9642764981164502     
   8.4000000000000005E-002     3.7854510960603864     
   8.4300000000000000E-002     3.2925955303820014     
   8.4599999999999995E-002     2.5238005082662913     
   8.4900000000000003E-002     1.5333920878475522     
   8.5199999999999998E-002    0.38741334806127770     
   8.5500000000000007E-002   -0.84234716225418549     
   8.5800000000000001E-002    -2.0834548997822075     
   8.6100000000000010E-002    -3.2681100596855091     
   8.6399999999999991E-002    -4.3377632995594730     
   8.6699999999999999E-002    -5.2461576027280801     
   8.7000000000000008E-002    -5.9615806779095504     
   8.7300000000000003E-002    -6.4671186364200244     
   8.7599999999999997E-002    -6.7601808237099776     
   8.7900000000000006E-002    -6.8504408364123233     
   8.8200000000000014E-002    -6.7566736614407210     
   8.8499999999999995E-002    -6.5045097728560437     
   8.8800000000000004E-002    -6.1227420281600651     
   8.9100000000000013E-002    -5.6404160080636281     
   8.9399999999999993E-002    -5.0847843851868149     
   8.9700000000000002E-002    -4.4788183112079203     
   9.0000000000000011E-002    -3.8405825218962031     
   9.0299999999999991E-002    -3.1832584638464509     
   9.0600000000000000E-002    -2.5153617324037891     
   9.0900000000000009E-002    -1.8416052662046467     
   9.1200000000000017E-002    -1.1638376435449338     
   9.1499999999999998E-002   -0.48269165736947584     
   9.1800000000000007E-002    0.20109347501458347     
   9.2100000000000001E-002    0.88680720579898031     
   9.2399999999999996E-002     1.5722532221841441     
   9.2700000000000005E-002     2.2527880534336941     
   9.3000000000000013E-002     2.9224419361915346     
   9.3300000000000008E-002     3.5745265136817106     
   9.3600000000000003E-002     4.2004765984915391     
   9.3899999999999997E-002     4.7911400170055822     
   9.4200000000000006E-002     5.3381222899769014     
   9.4500000000000001E-002     5.8335680026835108     
   9.4800000000000009E-002     6.2693876135648514     
   9.5100000000000004E-002     6.6386102409267709     
   9.5399999999999999E-002     6.9359253498064026     
   9.5699999999999993E-002     7.1559318060790789     
   9.6000000000000002E-002     7.2932523173415307     
   9.6300000000000011E-002     7.3433249824526934     
   9.6600000000000005E-002     7.3012517299845880     
   9.6900000000000000E-002     7.1619242033281312     
   9.7200000000000009E-002     6.9211195324300974     
   9.7499999999999989E-002     6.5757559186101160     
   9.7799999999999998E-002     6.1242683823576174     
   9.8100000000000007E-002     5.5684126381137897     
   9.8400000000000015E-002     4.9136742206015089     
   9.8699999999999996E-002     4.1693180759060438     
   9.9000000000000005E-002     3.3493660774736638     
   9.9300000000000013E-002     2.4722365371115025     
   9.9599999999999994E-002     1.5585965305687441     
   9.9900000000000003E-002    0.62940799773271761     
  0.10020000000000001        -0.29514898556350144     
  0.10049999999999999         -1.1979465781449314     
  0.10080000000000000         -2.0682265888886842     
  0.10110000000000001         -2.9017581906425747     
  0.10140000000000000         -3.7004403870880589     
  0.10170000000000000         -4.4722156156217459     
  0.10200000000000001         -5.2282046714395918     
  0.10230000000000002         -5.9786185444967774     
  0.10260000000000000         -6.7296770978537372     
  0.10290000000000001         -7.4800633067975957     
  0.10320000000000000         -8.2173088335313658     
  0.10350000000000001         -8.9165647411026772     
  0.10380000000000000         -9.5419414057686502     
  0.10410000000000001         -10.048837389583326     
  0.10440000000000001         -10.388324434753722     
  0.10470000000000000         -10.513646753654298     
  0.10500000000000000         -10.387099881157551     
  0.10530000000000000         -9.9854809230391517     
  0.10560000000000000         -9.3044087002941644     
  0.10590000000000001         -8.3616597014790948     
  0.10620000000000000         -7.1951644131035053     
  0.10650000000000001         -5.8590495714136983     
  0.10679999999999999         -4.4176796055653433     
  0.10710000000000000         -2.9358001758683976     
  0.10740000000000001         -1.4696306178431038     
  0.10770000000000000         -5.8541547474885443E-002
  0.10800000000000000          1.2820951250091672     
  0.10830000000000001          2.5633719347367032     
  0.10859999999999999          3.8220484561693766     
  0.10890000000000000          5.1150484311765743     
  0.10920000000000001          6.5089631160597374     
  0.10950000000000001          8.0675887855172128     
  0.10979999999999999          9.8374394671523060     
  0.11009999999999999          11.833072517474694     
  0.11040000000000001          14.024821987079060     
  0.11070000000000001          16.330464938552563     
  0.11100000000000000          18.614448016891277     
  0.11130000000000000          20.691941519271168     
  0.11160000000000002          22.339343163672581     
  0.11190000000000001          23.314259472049667     
  0.11220000000000001          23.377966706601125     
  0.11250000000000000          22.321139093875093     
  0.11280000000000000          19.990784400313494     
  0.11309999999999999          16.313982791525259     
  0.11340000000000001          11.315958005432332     
  0.11369999999999998          5.1306960377214743     
  0.11400000000000000         -1.9981030918073712     
  0.11430000000000000         -9.7273512476180457     
  0.11460000000000002         -17.634339939008271     
  0.11489999999999999         -25.244181820436282     
  0.11520000000000001         -32.066283009907117     
  0.11550000000000001         -37.633333584215904     
  0.11580000000000000         -41.537881940430232     
  0.11609999999999999         -43.467615021126775     
  0.11640000000000002         -43.232267186948846     
  0.11670000000000001         -40.782602148592716     
  0.11700000000000001         -36.214715944827880     
  0.11730000000000000         -29.763744599393267     
  0.11760000000000000         -21.788897156727273     
  0.11789999999999999         -12.744826380622881     
  0.11820000000000001         -3.1487949413358152     
  0.11850000000000001          6.4571122580512528     
  0.11880000000000000          15.545373397936089     
  0.11910000000000000          23.637082112261805     
  0.11940000000000002          30.331738126595255     
  0.11970000000000001          35.330679272899509     
  0.12000000000000001          38.450575026653873     
  0.12030000000000000          39.628709862133867     
  0.12060000000000000          38.916906440146455     
  0.12089999999999999          36.471582600012830     
  0.12119999999999999          32.536703478322679     
  0.12150000000000001          27.419928208511909     
  0.12180000000000001          21.469679776763765     
  0.12210000000000000          15.051810520031143     
  0.12239999999999999          8.5255714420341508     
  0.12270000000000002          2.2233306610217749     
  0.12300000000000001         -3.5660651066947602     
  0.12330000000000001         -8.6091828649285649     
  0.12360000000000000         -12.736806227842036     
  0.12390000000000000         -15.847039391290149     
  0.12419999999999999         -17.904007990127798     
  0.12450000000000001         -18.933564226118623     
  0.12480000000000001         -19.014649440093731     
  0.12509999999999999         -18.268960097633666     
  0.12540000000000001         -16.849055470950962     
  0.12570000000000003         -14.924703884526023     
  0.12600000000000000         -12.670831133402451     
  0.12630000000000002         -10.256868895209776     
  0.12659999999999999         -7.8362066160462112     
  0.12690000000000001         -5.5379613016379778     
  0.12719999999999998         -3.4632143185563136     
  0.12750000000000000         -1.6845974994052877     
  0.12780000000000002        -0.24370046029715606     
  0.12809999999999999         0.84736120101353818     
  0.12840000000000001          1.5987354128062117     
  0.12869999999999998          2.0396841200702145     
  0.12900000000000000          2.2149396526080620     
  0.12930000000000003          2.1787245914085607     
  0.12959999999999999          1.9889460382843067     
  0.12990000000000002          1.7031786204972534     
  0.13019999999999998          1.3767056436527791     
  0.13050000000000000          1.0585600322129620     
  0.13080000000000003         0.78855196522608351     
  0.13109999999999999         0.59752881196844976     
  0.13140000000000002         0.50538904566179310     
  0.13169999999999998         0.52028521032473285     
  0.13200000000000001         0.64041957006242312     
  0.13229999999999997         0.85425284455542039     
  0.13260000000000000          1.1414148489684741     
  0.13290000000000002          1.4759128924822738     
  0.13319999999999999          1.8280605846634344     
  0.13350000000000001          2.1670772535496381     
  0.13380000000000003          2.4643380078744110     
  0.13410000000000000          2.6951448295543559     
  0.13440000000000002          2.8406049543505865     
  0.13469999999999999          2.8895012654938252     
  0.13500000000000001          2.8389789391499844     
  0.13529999999999998          2.6941074694665517     
  0.13560000000000000          2.4652606870971119     
  0.13590000000000002          2.1682676779637333     
  0.13619999999999999          1.8238437971808616     
  0.13650000000000001          1.4522120657304938     
  0.13680000000000003          1.0729077862427183     
  0.13710000000000000         0.70470332175255457     
  0.13740000000000002         0.36218452449055993     
  0.13769999999999999          5.5547726112526119E-002
  0.13800000000000001        -0.20908364619134540     
  0.13829999999999998        -0.42923895385705874     
  0.13860000000000000        -0.60572001720222057     
  0.13890000000000002        -0.74312958118391126     
  0.13919999999999999        -0.84732189463932428     
  0.13950000000000001        -0.92495241211539214     
  0.13979999999999998        -0.98350837087247267     
  0.14010000000000000         -1.0294315427717715     
  0.14040000000000002         -1.0681211548492020     
  0.14069999999999999         -1.1032071895558473     
  0.14100000000000001         -1.1361578285874854     
  0.14130000000000004         -1.1675154741631522     
  0.14160000000000000         -1.1956923778002608     
  0.14189999999999997         -1.2168733655560671     
  0.14219999999999999         -1.2265674659766301     
  0.14250000000000002         -1.2203554714920624     
  0.14279999999999998         -1.1935013162822878     
  0.14310000000000000         -1.1413052933753414     
  0.14339999999999997         -1.0607256584662472     
  0.14369999999999999        -0.94991061436358259     
  0.14400000000000002        -0.80786327334452135     
  0.14429999999999998        -0.63581840513208110     
  0.14460000000000001        -0.43658890182522325     
  0.14490000000000003        -0.21413885969267368     
  0.14520000000000000          2.6129666638418033E-002
  0.14550000000000002         0.27761741855040561     
  0.14579999999999999         0.53204612679955721     
  0.14610000000000001         0.78105406064824690     
  0.14640000000000003          1.0154901488619963     
  0.14670000000000000          1.2248599210999314     
  0.14699999999999996          1.3997644999833680     
  0.14729999999999999          1.5312035844670999     
  0.14760000000000001          1.6114384654796490     
  0.14789999999999998          1.6348680949522947     
  0.14820000000000000          1.5978530136857398     