  -1.4999999999999999E-002     0.0000000000000000     
  -1.4700000000000000E-002     0.0000000000000000     
  -1.4400000000000000E-002     0.0000000000000000     
  -1.4100000000000000E-002     5.3857027846029359E-042
  -1.3800000000000000E-002     4.4614040356517210E-035
  -1.3500000000000000E-002     5.7276592960938892E-033
  -1.3200000000000000E-002     2.3035728750455478E-031
  -1.2899999999999998E-002    -1.6459556761427830E-029
  -1.2600000000000000E-002     5.6274313583929896E-030
  -1.2299999999999998E-002     1.1823861337369960E-027
  -1.2000000000000000E-002     1.0813046418176245E-026
  -1.1699999999999999E-002    -1.1614842900438120E-025
  -1.1399999999999999E-002    -1.3773829855406398E-024
  -1.1099999999999999E-002     2.8649934972179213E-023
  -1.0799999999999999E-002    -1.7257243840817901E-022
  -1.0499999999999999E-002    -3.9013308537799508E-022
  -1.0199999999999999E-002     1.1883858599150001E-020
  -9.8999999999999991E-003    -7.1713304495743222E-020
  -9.5999999999999992E-003     1.7072084215292622E-019
  -9.2999999999999992E-003     1.9567750683479455E-019
  -8.9999999999999993E-003    -2.7421235627649043E-018
  -8.6999999999999994E-003     1.0117583004574447E-017
  -8.3999999999999995E-003    -2.3845657851609715E-017
  -8.0999999999999996E-003     4.0379412744253717E-017
  -7.7999999999999988E-003    -4.2145905388426878E-017
  -7.4999999999999997E-003    -8.2295621736479156E-018
  -7.1999999999999998E-003     1.5121718175846832E-016
  -6.8999999999999981E-003    -4.1571537407142732E-016
  -6.5999999999999982E-003     7.4760713633344813E-016
  -6.3000000000000000E-003    -8.1635478125251634E-016
  -6.0000000000000001E-003     8.0474093834920873E-016
  -5.6999999999999985E-003    -4.1190172379697593E-015
  -5.3999999999999986E-003     1.6045672284652482E-014
  -5.1000000000000004E-003    -2.7222273135936837E-014
  -4.7999999999999987E-003    -1.0839861978817653E-014
  -4.5000000000000005E-003     1.6017910341600301E-013
  -4.1999999999999989E-003    -3.3695455276649980E-013
  -3.8999999999999990E-003     1.3888072608525180E-013
  -3.5999999999999990E-003     8.1160211087604605E-013
  -3.2999999999999991E-003    -1.8287591495279980E-012
  -2.9999999999999992E-003     8.9620742729209203E-013
  -2.6999999999999993E-003     2.9175671585809512E-012
  -2.3999999999999994E-003    -6.0946490958200241E-012
  -2.0999999999999977E-003     2.2828794682872530E-012
  -1.7999999999999995E-003     9.2882276883990720E-012
  -1.4999999999999979E-003    -1.8480976406317128E-011
  -1.1999999999999997E-003     1.2107261450152174E-011
  -8.9999999999999976E-004     1.2579317234978719E-011
  -5.9999999999999810E-004    -4.1942071093405519E-011
  -2.9999999999999992E-004     5.1126760655274205E-011
   0.0000000000000000         -2.7328000999796905E-011
   3.0000000000000165E-004    -6.1084075777285147E-012
   5.9999999999999984E-004     2.4457415812041811E-011
   9.0000000000000149E-004    -7.2595448231000057E-011
   1.2000000000000031E-003     2.5006948118495066E-010
   1.5000000000000013E-003    -6.0148782572990612E-010
   1.8000000000000030E-003     8.7510395170624988E-010
   2.1000000000000012E-003     8.0480712622739577E-011
   2.3999999999999994E-003    -4.3662643418357066E-009
   2.7000000000000010E-003     1.1516206112666345E-008
   2.9999999999999992E-003    -1.0565319046917443E-008
   3.3000000000000008E-003    -2.3200273135869253E-008
   3.6000000000000025E-003     9.8618036967930398E-008
   3.9000000000000007E-003    -1.0894404986694442E-007
   4.2000000000000023E-003    -2.1052239256205427E-007
   4.5000000000000005E-003     7.4859823729703961E-007
   4.7999999999999987E-003    -1.0978218747000435E-007
   5.1000000000000004E-003    -2.5078413060477473E-006
   5.4000000000000020E-003     1.4797779541200158E-006
   5.7000000000000037E-003     6.7823309221173374E-006
   5.9999999999999984E-003    -3.3962382552495335E-006
   6.3000000000000000E-003    -1.9274271134428235E-005
   6.6000000000000017E-003    -1.4550873248489083E-006
   6.9000000000000034E-003     7.5365193544762798E-005
   7.2000000000000015E-003     1.9980335392084386E-004
   7.5000000000000032E-003     3.5231254042303035E-004
   7.8000000000000014E-003     5.3492103227964396E-004
   8.0999999999999996E-003     7.7630559022977752E-004
   8.4000000000000012E-003     1.1521093136446291E-003
   8.7000000000000029E-003     1.7801802022220643E-003
   9.0000000000000011E-003     2.7739255248955090E-003
   9.2999999999999992E-003     4.2556974119447727E-003
   9.6000000000000009E-003     6.4059549658065859E-003
   9.8999999999999991E-003     9.4800540354160173E-003
   1.0200000000000001E-002     1.3833639128868033E-002
   1.0500000000000002E-002     1.9936254655584879E-002
   1.0800000000000004E-002     2.8344726583084900E-002
   1.1099999999999999E-002     3.9693014733438808E-002
   1.1400000000000000E-002     5.4727145904232929E-002
   1.1700000000000002E-002     7.4311891911122863E-002
   1.2000000000000004E-002     9.9330314662702285E-002
   1.2300000000000002E-002    0.13058608755122036     
   1.2600000000000000E-002    0.16875121514134689     
   1.2900000000000002E-002    0.21421972915962623     
   1.3200000000000000E-002    0.26689852386254476     
   1.3500000000000002E-002    0.32599143296099886     
   1.3800000000000003E-002    0.38976914216605890     
   1.4100000000000001E-002    0.45533698295879732     
   1.4400000000000000E-002    0.51844691353393613     
   1.4700000000000001E-002    0.57332222898899732     
   1.4999999999999999E-002    0.61264612752331171     
   1.5300000000000001E-002    0.62764790382763191     
   1.5600000000000003E-002    0.60844605333418644     
   1.5899999999999997E-002    0.54463122374230866     
   1.6199999999999999E-002    0.42600022149687400     
   1.6500000000000001E-002    0.24367026054810198     
   1.6800000000000002E-002    -8.8028272888570208E-003
   1.7100000000000004E-002   -0.33431164426225335     
   1.7400000000000006E-002   -0.73073449566817938     
   1.7700000000000000E-002    -1.1899015649796985     
   1.8000000000000002E-002    -1.6968545912107857     
   1.8300000000000004E-002    -2.2294960282861189     
   1.8600000000000005E-002    -2.7591099686222380     
   1.8900000000000000E-002    -3.2514106784726442     
   1.9200000000000002E-002    -3.6683216209781717     
   1.9500000000000003E-002    -3.9706171842284457     
   1.9799999999999998E-002    -4.1207668767372274     
   2.0100000000000000E-002    -4.0864169028814779     
   2.0400000000000001E-002    -3.8437165313739126     
   2.0700000000000003E-002    -3.3804378283553200     
   2.0999999999999998E-002    -2.6981661409096551     
   2.1299999999999999E-002    -1.8138324655753539     
   2.1600000000000001E-002   -0.75992792159504896     
   2.1900000000000003E-002    0.41720439549600064     
   2.2200000000000004E-002     1.6590640866139281     
   2.2500000000000006E-002     2.8988206142918744     
   2.2800000000000001E-002     4.0665262772475703     
   2.3100000000000002E-002     5.0930239888486000     
   2.3400000000000004E-002     5.9157014237876755     
   2.3699999999999999E-002     6.4837267295677501     
   2.4000000000000000E-002     6.7606672830186554     
   2.4300000000000002E-002     6.7289336114968421     
   2.4599999999999997E-002     6.3905552321327557     
   2.4900000000000005E-002     5.7667271259473925     
   2.5200000000000000E-002     4.8982488844435297     
   2.5499999999999995E-002     3.8408402011668157     
   2.5800000000000003E-002     2.6624731070661869     
   2.6099999999999998E-002     1.4392497821742181     
   2.6400000000000007E-002    0.24853145232879237     
   2.6700000000000002E-002   -0.83419721180567352     
   2.6999999999999996E-002    -1.7417734654649248     
   2.7300000000000005E-002    -2.4200618026326444     
   2.7600000000000000E-002    -2.8298653068247441     
   2.7900000000000008E-002    -2.9520495701411398     
   2.8200000000000003E-002    -2.7872490673317691     
   2.8499999999999998E-002    -2.3563166684070800     
   2.8800000000000006E-002    -1.6999952852281228     
   2.9100000000000001E-002   -0.87408679957110680     
   2.9400000000000003E-002     5.2603479593389735E-002
   2.9700000000000004E-002     1.0035762467530154     
   3.0000000000000006E-002     1.9012851323389883     
   3.0300000000000001E-002     2.6708205230765856     
   3.0600000000000002E-002     3.2471150418636250     
   3.0900000000000004E-002     3.5790415384280352     
   3.1199999999999999E-002     3.6321054416984531     
   3.1500000000000007E-002     3.3922620304337414     
   3.1800000000000002E-002     2.8649698410391302     
   3.2099999999999997E-002     2.0745855011527468     
   3.2400000000000005E-002     1.0624410703536731     
   3.2700000000000000E-002   -0.11841640204575810     
   3.3000000000000002E-002    -1.4065786193793310     
   3.3300000000000003E-002    -2.7378957416958056     
   3.3599999999999998E-002    -4.0507993302335210     
   3.3900000000000000E-002    -5.2892231359554298     
   3.4200000000000001E-002    -6.4071050039014983     
   3.4500000000000003E-002    -7.3695109653629007     
   3.4799999999999998E-002    -8.1532809231833419     
   3.5099999999999999E-002    -8.7465785607834157     
   3.5400000000000001E-002    -9.1462609476554100     
   3.5699999999999996E-002    -9.3560682124010519     
   3.6000000000000004E-002    -9.3831629211305536     
   3.6299999999999999E-002    -9.2350533748475847     
   3.6600000000000008E-002    -8.9176600191873945     
   3.6900000000000002E-002    -8.4328590170922642     
   3.7199999999999997E-002    -7.7780541238452745     
   3.7500000000000006E-002    -6.9474488571932138     
   3.7800000000000000E-002    -5.9325370714009331     
   3.8100000000000009E-002    -4.7252109358289323     
   3.8400000000000004E-002    -3.3212306655450976     
   3.8699999999999998E-002    -1.7225964665306792     
   3.9000000000000007E-002     5.7679233940192920E-002
   3.9300000000000002E-002     1.9951368564336538     
   3.9600000000000003E-002     4.0505715777133737     
   3.9900000000000005E-002     6.1706586754986663     
   4.0200000000000000E-002     8.2896014450226208     
   4.0500000000000001E-002     10.330166621434671     
   4.0800000000000003E-002     12.209907063511459     
   4.1100000000000005E-002     13.842884511171157     
   4.1399999999999999E-002     15.147586815677684     
   4.1700000000000008E-002     16.051565971621265     
   4.2000000000000003E-002     16.495060290987446     
   4.2299999999999997E-002     16.438273681455936     
   4.2600000000000006E-002     15.861922485519798     
   4.2900000000000001E-002     14.770218417063361     
   4.3200000000000002E-002     13.192754939759444     
   4.3500000000000004E-002     11.181354135720895     
   4.3799999999999999E-002     8.8104424095177549     
   4.4100000000000000E-002     6.1723731592300828     
   4.4400000000000002E-002     3.3731427882451488     
   4.4700000000000004E-002    0.52857331425896614     
   4.4999999999999998E-002    -2.2423731315901381     
   4.5300000000000000E-002    -4.8231965351717179     
   4.5600000000000002E-002    -7.1060520808285990     
   4.5899999999999996E-002    -8.9977840613063762     
   4.6200000000000005E-002    -10.425936819112277     
   4.6500000000000000E-002    -11.343348342660050     
   4.6799999999999994E-002    -11.731300204615550     
   4.7100000000000003E-002    -11.603262472812666     
   4.7399999999999998E-002    -11.003225187976810     
   4.7700000000000006E-002    -10.005053565518049     
   4.8000000000000001E-002    -8.7071491586175398     
   4.8300000000000010E-002    -7.2265862305549025     
   4.8600000000000004E-002    -5.6905359525784238     
   4.8899999999999999E-002    -4.2260610676425090     
   4.9200000000000008E-002    -2.9510145727588886     
   4.9500000000000002E-002    -1.9633135200850029     
   4.9800000000000011E-002    -1.3327832680382019     
   5.0100000000000006E-002    -1.0949920233533299     
   5.0400000000000000E-002    -1.2491344629742518     
   5.0700000000000009E-002    -1.7564596403205435     
   5.1000000000000004E-002    -2.5452257239992715     
   5.1299999999999998E-002    -3.5182906794816757     
   5.1600000000000007E-002    -4.5595595961838837     
   5.1900000000000002E-002    -5.5489665468565725     
   5.2200000000000010E-002    -6.3708423121793114     
   5.2500000000000005E-002    -6.9248578775013971     
   5.2800000000000000E-002    -7.1377025228676132     
   5.3099999999999994E-002    -6.9635611359935226     
   5.3400000000000003E-002    -6.3929474903282930     
   5.3699999999999998E-002    -5.4480544530297408     
   5.4000000000000006E-002    -4.1781084703174418     
   5.4300000000000001E-002    -2.6573815158728085     
   5.4599999999999996E-002   -0.96925728613674456     
   5.4900000000000004E-002    0.79737786467497007     
   5.5199999999999999E-002     2.5579293795600146     
   5.5499999999999994E-002     4.2443585296672364     
   5.5800000000000002E-002     5.8031646434503941     
   5.6099999999999997E-002     7.2035904232888619     
   5.6400000000000006E-002     8.4356188852254235     
   5.6700000000000000E-002     9.5033260403224222     
   5.6999999999999995E-002     10.425576894774798     
   5.7300000000000004E-002     11.223651196862070     
   5.7599999999999998E-002     11.916713842553696     
   5.7900000000000007E-002     12.519372354656209     
   5.8200000000000002E-002     13.031123004772230     
   5.8499999999999996E-002     13.440435303392308     
   5.8800000000000005E-002     13.726029654300074     
   5.9100000000000000E-002     13.855431985735972     
   5.9400000000000008E-002     13.797619155022861     
   5.9700000000000003E-002     13.524587272989809     
   6.0000000000000012E-002     13.016479520961923     
   6.0300000000000006E-002     12.270732785811276     
   6.0600000000000001E-002     11.295021898953056     
   6.0900000000000010E-002     10.110591986484952     
   6.1200000000000004E-002     8.7467414495783604     
   6.1500000000000013E-002     7.2268889007296284     
   6.1800000000000008E-002     5.5682062017691649     
   6.2100000000000002E-002     3.7663244398486526     
   6.2399999999999997E-002     1.7919880312995158     
   6.2700000000000006E-002   -0.40658653773514808     
   6.3000000000000000E-002    -2.9065063076544453     
   6.3300000000000009E-002    -5.7921159899863497     
   6.3600000000000004E-002    -9.1420333842025308     
   6.3899999999999998E-002    -13.011848314326061     
   6.4199999999999993E-002    -17.405809278002277     
   6.4500000000000002E-002    -22.264280635290977     
   6.4800000000000010E-002    -27.444846818204944     
   6.5100000000000005E-002    -32.715236529970014     
   6.5400000000000000E-002    -37.760779916975366     
   6.5700000000000008E-002    -42.194335146967184     
   6.5999999999999989E-002    -45.585911263924729     
   6.6299999999999998E-002    -47.497371965519989     
   6.6600000000000006E-002    -47.522924175835925     
   6.6900000000000001E-002    -45.335565184415017     
   6.7199999999999996E-002    -40.726094752606414     
   6.7500000000000004E-002    -33.640069181223318     
   6.7800000000000013E-002    -24.198834676526296     
   6.8099999999999994E-002    -12.709890480417741     
   6.8400000000000002E-002    0.34390583111337847     
   6.8700000000000011E-002     14.325595665139414     
   6.8999999999999992E-002     28.485834384982549     
   6.9300000000000000E-002     42.016891387756417     
   6.9600000000000009E-002     54.103660177027770     
   6.9900000000000004E-002     63.995621879625674     
   7.0199999999999999E-002     71.059194328676952     
   7.0500000000000007E-002     74.825444226837462     
   7.0800000000000016E-002     75.035967587969964     
   7.1099999999999997E-002     71.654272365195922     
   7.1400000000000005E-002     64.873812029451955     
   7.1700000000000000E-002     55.103782286139136     
   7.1999999999999995E-002     42.931557685100451     
   7.2300000000000003E-002     29.084254069235421     
   7.2600000000000012E-002     14.369848750998358     
   7.2900000000000006E-002   -0.38177913447598844     
   7.3200000000000001E-002    -14.374444177258244     
   7.3499999999999996E-002    -26.901976740310719     
   7.3800000000000004E-002    -37.389212612478325     
   7.4099999999999999E-002    -45.420142285832590     
   7.4400000000000008E-002    -50.759183111317483     
   7.4700000000000003E-002    -53.347915459159609     
   7.5000000000000011E-002    -53.293495890999438     
   7.5299999999999992E-002    -50.849730307119295     
   7.5600000000000001E-002    -46.379921353712831     
   7.5900000000000009E-002    -40.324162371566338     
   7.6200000000000004E-002    -33.164524791540259     
   7.6499999999999999E-002    -25.383801919712280     
   7.6800000000000007E-002    -17.442168911349750     
   7.7099999999999988E-002    -9.7491980046577211     
   7.7399999999999997E-002    -2.6446403854622877     
   7.7700000000000005E-002     3.6056905618247583     
   7.8000000000000014E-002     8.8204218524949418     
   7.8299999999999995E-002     12.896166665478445     
   7.8600000000000003E-002     15.802308154160890     
   7.8900000000000012E-002     17.573894601397910     
   7.9199999999999993E-002     18.297962914197370     
   7.9500000000000001E-002     18.103267847790491     
   7.9800000000000010E-002     17.146006499643121     
   8.0100000000000018E-002     15.600666917766866     
   8.0399999999999999E-002     13.645031198511116     
   8.0700000000000008E-002     11.453283974631349     
   8.1000000000000003E-002     9.1852029589385946     
   8.1299999999999997E-002     6.9767702041491333     
   8.1600000000000006E-002     4.9411243284209929     
   8.1900000000000014E-002     3.1558308875236758     
   8.2199999999999995E-002     1.6711557826790076     
   8.2500000000000004E-002    0.50839628189305697     
   8.2799999999999999E-002   -0.34237841181340140     
   8.3100000000000007E-002   -0.90452579283504653     
   8.3400000000000002E-002    -1.2217903125192784     
   8.3700000000000011E-002    -1.3448209142248333     
   8.4000000000000005E-002    -1.3219714649581913     
   8.4300000000000000E-002    -1.2061916355548079     
   8.4599999999999995E-002    -1.0366903847645808     
   8.4900000000000003E-002   -0.84697126581544713     
   8.5199999999999998E-002   -0.66417091547024576     
   8.5500000000000007E-002   -0.50091312573866997     
   8.5800000000000001E-002   -0.36993363161242387     
   8.6100000000000010E-002   -0.27588855330775452     
   8.6399999999999991E-002   -0.21814034834332197     
   8.6699999999999999E-002   -0.19953891449495914     
   8.7000000000000008E-002   -0.21629973950228565     
   8.7300000000000003E-002   -0.26504217714837242     
   8.7599999999999997E-002   -0.34335178564894914     
   8.7900000000000006E-002   -0.44167000191327355     
   8.8200000000000014E-002   -0.55186337320006607     
   8.8499999999999995E-002   -0.66430419869486657     
   8.8800000000000004E-002   -0.76458346193852800     
   8.9100000000000013E-002   -0.84336128346091144     
   8.9399999999999993E-002   -0.89031580615027406     
   8.9700000000000002E-002   -0.89667616021642982     
   9.0000000000000011E-002   -0.86409235887967195     
   9.0299999999999991E-002   -0.79144743510190718     
   9.0600000000000000E-002   -0.68623213640051017     
   9.0900000000000009E-002   -0.56185356033899136     
   9.1200000000000017E-002   -0.42594002212780069     
   9.1499999999999998E-002   -0.29489407685665142     
   9.1800000000000007E-002   -0.17877276865781219     
   9.2100000000000001E-002    -8.2717607547813862E-002
   9.2399999999999996E-002    -1.5117410296675106E-002
   9.2700000000000005E-002     2.8054634785843989E-002
   9.3000000000000013E-002     4.8643390554648336E-002
   9.3300000000000008E-002     5.0092348201111803E-002
   9.3600000000000003E-002     4.2335899377042602E-002
   9.3899999999999997E-002     2.7415726867086272E-002
   9.4200000000000006E-002     9.6176535348989345E-003
   9.4500000000000001E-002    -7.5262776079930913E-003
   9.4800000000000009E-002    -2.8319300599475739E-002
   9.5100000000000004E-002    -5.2840144662034350E-002
   9.5399999999999999E-002    -8.3656905244237217E-002
   9.5699999999999993E-002   -0.12616912394642119     
   9.6000000000000002E-002   -0.17752853596332624     
   9.6300000000000011E-002   -0.23826628265782929     
   9.6600000000000005E-002   -0.30625297969456811     
   9.6900000000000000E-002   -0.37228926727723072     
   9.7200000000000009E-002   -0.43400030243485188     
   9.7499999999999989E-002   -0.48326833954362713     
   9.7799999999999998E-002   -0.51309852172780779     
   9.8100000000000007E-002   -0.52525826771319228     
   9.8400000000000015E-002   -0.51467098786381582     
   9.8699999999999996E-002   -0.48618852929598644     
   9.9000000000000005E-002   -0.44602032060188335     
   9.9300000000000013E-002   -0.39583182746524392     
   9.9599999999999994E-002   -0.34712859138141672     
   9.9900000000000003E-002   -0.30217158745803074     
  0.10020000000000001        -0.26408435363574856     
  0.10049999999999999        -0.23744563656558315     
  0.10080000000000000        -0.21555628479818711     
  0.10110000000000001        -0.19702127987899171     
  0.10140000000000000        -0.17468195219160687     
  0.10170000000000000        -0.13909141838882258     
  0.10200000000000001         -8.6404716210395485E-002
  0.10230000000000002         -8.8647285276232460E-003
  0.10260000000000000          9.5936160294850081E-002
  0.10290000000000001         0.22691020048410093     
  0.10320000000000000         0.38197982909145300     
  0.10350000000000001         0.55375345620866678     
  0.10380000000000000         0.73296336958799246     
  0.10410000000000001         0.90988488878365814     
  0.10440000000000001          1.0740743320318695     
  0.10470000000000000          1.2151852045232570     
  0.10500000000000000          1.3275919876180553     
  0.10530000000000000          1.4055414421447414     
  0.10560000000000000          1.4473456057998981     
  0.10590000000000001          1.4567427402334419     
  0.10620000000000000          1.4348715591147445     
  0.10650000000000001          1.3893161244818473     
  0.10679999999999999          1.3259308057082364     
  0.10710000000000000          1.2472784163916752     
  0.10740000000000001          1.1594832013106304     
  0.10770000000000000          1.0603591306540641     
  0.10800000000000000         0.94669499702098436     
  0.10830000000000001         0.81560033926953102     
  0.10859999999999999         0.65613335239760695     
  0.10890000000000000         0.46239536968598227     
  0.10920000000000001         0.22845179999459189     
  0.10950000000000001         -5.2112529212110070E-002
  0.10979999999999999        -0.37452039709350865     
  0.11009999999999999        -0.73275108460456695     
  0.11040000000000001         -1.1139655305720564     
  0.11070000000000001         -1.4944120041383147     
  0.11100000000000000         -1.8526441349558720     
  0.11130000000000000         -2.1596669289832366     
  0.11160000000000002         -2.3862702137299108     
  0.11190000000000001         -2.5145135779513463     
  0.11220000000000001         -2.5248252812051382     
  0.11250000000000000         -2.4134024464507911     
  0.11280000000000000         -2.1907361259646132     
  0.11309999999999999         -1.8705490455771097     
  0.11340000000000001         -1.4896323186307849     
  0.11369999999999998         -1.0854474727823744     
  0.11400000000000000        -0.69807771000837637     
  0.11430000000000000        -0.37601144240274409     
  0.11460000000000002        -0.14778876294295329     
  0.11489999999999999         -3.9591037611463542E-002
  0.11520000000000001         -6.0475103647952722E-002
  0.11550000000000001        -0.19405076150377232     
  0.11580000000000000        -0.41899814167286453     
  0.11609999999999999        -0.68919606240669529     
  0.11640000000000002        -0.95076140932833830     
  0.11670000000000001         -1.1528316392411460     
  0.11700000000000001         -1.2377768067881527     
  0.11730000000000000         -1.1674811080381819     
  0.11760000000000000        -0.91913772231959334     
  0.11789999999999999        -0.48478409115566445     
  0.11820000000000001         0.11214681077706556     
  0.11850000000000001         0.83354848353118816     
  0.11880000000000000          1.6243668074764037     
  0.11910000000000000          2.4120307756928767     
  0.11940000000000002          3.1282845665505969     
  0.11970000000000001          3.7040128955396052     
  0.12000000000000001          4.0790269672687414     
  0.12030000000000000          4.2177484403688030     
  0.12060000000000000          4.0965007130746267     
  0.12089999999999999          3.7177341968658446     
  0.12119999999999999          3.1097237373305520     
  0.12150000000000001          2.3092690340123920     
  0.12180000000000001          1.3775211010889026     
  0.12210000000000000         0.38035720708377829     
  0.12239999999999999        -0.61762948971699738     
  0.12270000000000002         -1.5437300212949427     
  0.12300000000000001         -2.3437932609616530     
  0.12330000000000001         -2.9698746016677582     
  0.12360000000000000         -3.3849444908933579     
  0.12390000000000000         -3.5768881986023588     
  0.12419999999999999         -3.5387556198884216     
  0.12450000000000001         -3.2847833420629451     
  0.12480000000000001         -2.8438701901294281     
  0.12509999999999999         -2.2482618258032230     
  0.12540000000000001         -1.5468899630990272     
  0.12570000000000003        -0.78775142761094918     
  0.12600000000000000         -1.9614974548085806E-002
  0.12630000000000002         0.70557758315307817     
  0.12659999999999999          1.3475924994671122     
  0.12690000000000001          1.8712027100967106     
  0.12719999999999998          2.2497425805501057     
  0.12750000000000000          2.4725990901615922     
  0.12780000000000002          2.5367484916096941     
  0.12809999999999999          2.4509842435912468     
  0.12840000000000001          2.2367366876837993     
  0.12869999999999998          1.9179863972019739     
  0.12900000000000000          1.5264540471812473     
  0.12930000000000003          1.0966650264509494     
  0.12959999999999999         0.65714451787743022     
  0.12990000000000002         0.23837765588194415     
  0.13019999999999998        -0.13713631830146722     
  0.13050000000000000        -0.45507671827239365     
  0.13080000000000003        -0.70273001789740008     
  0.13109999999999999        -0.87924102865178133     
  0.13140000000000002        -0.98670461349212113     
  0.13169999999999998         -1.0289818617911770     
  0.13200000000000001         -1.0188519269728644     
  0.13229999999999997        -0.96481100390488983     
  0.13260000000000000        -0.87791254673102459     
  0.13290000000000002        -0.77169412497043954     
  0.13319999999999999        -0.65253717358321406     
  0.13350000000000001        -0.53037710188689124     
  0.13380000000000003        -0.41240736029303560     
  0.13410000000000000        -0.30045836647082663     
  0.13440000000000002        -0.20014309216813497     
  0.13469999999999999        -0.11106897382565975     
  0.13500000000000001         -3.0799020358460244E-002
  0.13529999999999998          3.9663292597426708E-002
  0.13560000000000000         0.10692026583091621     
  0.13590000000000002         0.17406000060195714     
  0.13619999999999999         0.24218486603311745     
  0.13650000000000001         0.31808592507709671     
  0.13680000000000003         0.39867811544158965     
  0.13710000000000000         0.48385179992214389     
  0.13740000000000002         0.57219781845651885     
  0.13769999999999999         0.65248599873197555     
  0.13800000000000001         0.72185753444929279     
  0.13829999999999998         0.76922085127825979     
  0.13860000000000000         0.78353230149635489     
  0.13890000000000002         0.76185799723288095     
  0.13919999999999999         0.69422470458820018     
  0.13950000000000001         0.58025905299190650     
  0.13979999999999998         0.42222210320415904     
  0.14010000000000000         0.22083983119839140     
  0.14040000000000002         -1.2251555449804219E-002
  0.14069999999999999        -0.26935393717852357     
  0.14100000000000001        -0.54004253178896644     
  0.14130000000000004        -0.80961646725607272     
  0.14160000000000000         -1.0701844200041941     
  0.14189999999999997         -1.3098967473363659     
  0.14219999999999999         -1.5192007463796329     
  0.14250000000000002         -1.6935984102479109     
  0.14279999999999998         -1.8244139544995557     
  0.14310000000000000         -1.9075503246232772     
  0.14339999999999997         -1.9403102866761315     
  0.14369999999999999         -1.9177679053300443     
  0.14400000000000002         -1.8397670707302738     
  0.14429999999999998         -1.7061039645335749     
  0.14460000000000001         -1.5167234639124310     
  0.14490000000000003         -1.2775498798882525     
  0.14520000000000000        -0.99400346085544888     
  0.14550000000000002        -0.67511338245543095     
  0.14579999999999999        -0.33460903850496504     
  0.14610000000000001          1.6624027926294166E-002
  0.14640000000000003         0.36274521147623828     
  0.14670000000000000         0.68952179116172130     
  0.14699999999999996         0.98615531928292777     
  0.14729999999999999          1.2397910504502545     
  0.14760000000000001          1.4446454782464664     
  0.14789999999999998          1.5967569990985564     
  0.14820000000000000          1.6938215446670331     