  -1.4999999999999999E-002     0.0000000000000000     
  -1.4700000000000000E-002    -6.9623612637675630E-017
  -1.4400000000000000E-002    -7.6343172285465023E-014
  -1.4100000000000000E-002    -1.1948085902494690E-012
  -1.3800000000000000E-002     1.1289330941091075E-011
  -1.3500000000000000E-002     4.5551555156094074E-011
  -1.3200000000000000E-002    -1.3478181519605596E-010
  -1.2899999999999998E-002    -4.6137579326802989E-010
  -1.2600000000000000E-002    -4.9932487159453205E-010
  -1.2299999999999998E-002     2.5481622344906951E-009
  -1.2000000000000000E-002     8.3586123805926946E-009
  -1.1699999999999999E-002     6.9316535034116399E-010
  -1.1399999999999999E-002    -4.2975968436789781E-008
  -1.1099999999999999E-002    -6.3429626919744836E-008
  -1.0799999999999999E-002     1.3611470731783328E-007
  -1.0499999999999999E-002     2.5137727553975743E-007
  -1.0199999999999999E-002    -2.4010828106576799E-007
  -9.8999999999999991E-003    -4.1075643372403967E-007
  -9.5999999999999992E-003     1.7788321400668461E-007
  -9.2999999999999992E-003     9.1070463903171213E-008
  -8.9999999999999993E-003    -9.9810490709956807E-008
  -8.6999999999999994E-003     6.4411711395896203E-007
  -8.3999999999999995E-003     7.8727899184047362E-007
  -8.0999999999999996E-003    -3.9629995136589372E-007
  -7.7999999999999988E-003    -1.6474797459185986E-006
  -7.4999999999999997E-003    -1.9142199309859395E-006
  -7.1999999999999998E-003    -6.6658239118612858E-007
  -6.8999999999999981E-003     3.8322871633988770E-006
  -6.5999999999999982E-003     6.3169136883827464E-006
  -6.3000000000000000E-003    -1.1784609294488989E-006
  -6.0000000000000001E-003    -8.8962667749821650E-006
  -5.6999999999999985E-003    -5.6012377847110101E-006
  -5.3999999999999986E-003     4.6625217759971210E-006
  -5.1000000000000004E-003     1.2056368557313550E-005
  -4.7999999999999987E-003    -1.8891852689477113E-006
  -4.5000000000000005E-003    -3.2359061803646246E-005
  -4.1999999999999989E-003    -8.9428256515632627E-006
  -3.8999999999999990E-003     1.3521601710688271E-004
  -3.5999999999999990E-003     3.7066388607579160E-004
  -3.2999999999999991E-003     6.3294111063981506E-004
  -2.9999999999999992E-003     9.2907747179798810E-004
  -2.6999999999999993E-003     1.3243447380193952E-003
  -2.3999999999999994E-003     1.9195265508246365E-003
  -2.0999999999999977E-003     2.8849704089595053E-003
  -1.7999999999999995E-003     4.4242630782299177E-003
  -1.4999999999999979E-003     6.7430675977733718E-003
  -1.1999999999999997E-003     1.0134656515669239E-002
  -8.9999999999999976E-004     1.4971217520508858E-002
  -5.9999999999999810E-004     2.1677673964381330E-002
  -2.9999999999999992E-004     3.0870080796006911E-002
   0.0000000000000000          4.3348065034784250E-002
   3.0000000000000165E-004     5.9956827996652973E-002
   5.9999999999999984E-004     8.1572679037266421E-002
   9.0000000000000149E-004    0.10911810806572542     
   1.2000000000000031E-003    0.14343706841819975     
   1.5000000000000013E-003    0.18500603217916564     
   1.8000000000000030E-003    0.23375008379332657     
   2.1000000000000012E-003    0.28897597661929547     
   2.3999999999999994E-003    0.34908347508198129     
   2.7000000000000010E-003    0.41102754193807556     
   2.9999999999999992E-003    0.47000881136346556     
   3.3000000000000008E-003    0.51932751289603696     
   3.6000000000000025E-003    0.55002140296345736     
   3.9000000000000007E-003    0.55083030013007772     
   4.2000000000000023E-003    0.50898343266665713     
   4.5000000000000005E-003    0.41069764394353830     
   4.7999999999999987E-003    0.24166851966459033     
   5.1000000000000004E-003    -1.1414437855144864E-002
   5.4000000000000020E-003   -0.35891434380053622     
   5.7000000000000037E-003   -0.80666192050173346     
   5.9999999999999984E-003    -1.3538927482913363     
   6.3000000000000000E-003    -1.9903430273379195     
   6.6000000000000017E-003    -2.6947409337543298     
   6.9000000000000034E-003    -3.4344591246170784     
   7.2000000000000015E-003    -4.1656288210251562     
   7.5000000000000032E-003    -4.8337210724165427     
   7.8000000000000014E-003    -5.3759550227257256     
   8.0999999999999996E-003    -5.7255138657739302     
   8.4000000000000012E-003    -5.8161882856773728     
   8.7000000000000029E-003    -5.5897974731798330     
   9.0000000000000011E-003    -5.0025949561434961     
   9.2999999999999992E-003    -4.0311899633034241     
   9.6000000000000009E-003    -2.6783784274474529     
   9.8999999999999991E-003   -0.97687620350615456     
   1.0200000000000001E-002     1.0081524431506050     
   1.0500000000000002E-002     3.1807742562865959     
   1.0800000000000004E-002     5.4171154682213487     
   1.1099999999999999E-002     7.5743310461315669     
   1.1400000000000000E-002     9.4992549358395877     
   1.1700000000000002E-002     11.040337322043321     
   1.2000000000000004E-002     12.060850871487578     
   1.2300000000000002E-002     12.450446882178271     
   1.2600000000000000E-002     12.137927842757003     
   1.2900000000000002E-002     11.098976009841493     
   1.3200000000000000E-002     9.3624047432745243     
   1.3500000000000002E-002     7.0133485465585510     
   1.3800000000000003E-002     4.1896605629231267     
   1.4100000000000001E-002     1.0761418915909853     
   1.4400000000000000E-002    -2.1068831913084178     
   1.4700000000000001E-002    -5.1168669364413342     
   1.4999999999999999E-002    -7.7048543332989441     
   1.5300000000000001E-002    -9.6345461050724062     
   1.5600000000000003E-002    -10.697872926477899     
   1.5899999999999997E-002    -10.734326163113902     
   1.6199999999999999E-002    -9.6471784414464228     
   1.6500000000000001E-002    -7.4147227013101933     
   1.6800000000000002E-002    -4.1003491948813116     
   1.7100000000000004E-002    0.14495943147108267     
   1.7400000000000006E-002     5.0817587743693391     
   1.7700000000000000E-002     10.391886064982552     
   1.8000000000000002E-002     15.692560541281656     
   1.8300000000000004E-002     20.555082707011934     
   1.8600000000000005E-002     24.533012814072990     
   1.8900000000000000E-002     27.192339397255953     
   1.9200000000000002E-002     28.147636881375831     
   1.9500000000000003E-002     27.096037369562421     
   1.9799999999999998E-002     23.849779548139562     
   2.0100000000000000E-002     18.364534721994193     
   2.0400000000000001E-002     10.756953469524698     
   2.0700000000000003E-002     1.3136884755061948     
   2.0999999999999998E-002    -9.5141755227451235     
   2.1299999999999999E-002    -21.130905470045494     
   2.1600000000000001E-002    -32.830986565666649     
   2.1900000000000003E-002    -43.846772004336167     
   2.2200000000000004E-002    -53.401112569142356     
   2.2500000000000006E-002    -60.771325289147100     
   2.2800000000000001E-002    -65.343804649774640     
   2.3100000000000002E-002    -66.672257760566467     
   2.3400000000000004E-002    -64.515534711679621     
   2.3699999999999999E-002    -58.867482393452860     
   2.4000000000000000E-002    -49.959340128602292     
   2.4300000000000002E-002    -38.249665056027951     
   2.4599999999999997E-002    -24.394352422918399     
   2.4900000000000005E-002    -9.1902333810313461     
   2.5200000000000000E-002     6.4734632292998757     
   2.5499999999999995E-002     21.693262577636116     
   2.5800000000000003E-002     35.612072739720276     
   2.6099999999999998E-002     47.479924217464323     
   2.6400000000000007E-002     56.710671595458656     
   2.6700000000000002E-002     62.906945484261328     
   2.6999999999999996E-002     65.893349914391365     
   2.7300000000000005E-002     65.700234623543054     
   2.7600000000000000E-002     62.558629130332136     
   2.7900000000000008E-002     56.866269042456217     
   2.8200000000000003E-002     49.140698169335252     
   2.8499999999999998E-002     39.985168935032938     
   2.8800000000000006E-002     30.022285727404519     
   2.9100000000000001E-002     19.863708561644771     
   2.9400000000000003E-002     10.058543093772437     
   2.9700000000000004E-002     1.0672201928479483     
   3.0000000000000006E-002    -6.7527836660856089     
   3.0300000000000001E-002    -13.172294103283331     
   3.0600000000000002E-002    -18.068672659157539     
   3.0900000000000004E-002    -21.436781415523914     
   3.1199999999999999E-002    -23.359913338842649     
   3.1500000000000007E-002    -23.990683030119420     
   3.1800000000000002E-002    -23.535826104689711     
   3.2099999999999997E-002    -22.222336131383017     
   3.2400000000000005E-002    -20.291450753940349     
   3.2700000000000000E-002    -17.968601420051197     
   3.3000000000000002E-002    -15.460544723735792     
   3.3300000000000003E-002    -12.939762204119281     
   3.3599999999999998E-002    -10.542592096467281     
   3.3900000000000000E-002    -8.3700304174581710     
   3.4200000000000001E-002    -6.4822544947561820     
   3.4500000000000003E-002    -4.9144472781534398     
   3.4799999999999998E-002    -3.6647932118319710     
   3.5099999999999999E-002    -2.7182807438248204     
   3.5400000000000001E-002    -2.0379054030280157     
   3.5699999999999996E-002    -1.5753721685208086     
   3.6000000000000004E-002    -1.2843085033932766     
   3.6299999999999999E-002    -1.1053020511904308     
   3.6600000000000008E-002   -0.99703349574592126     
   3.6900000000000002E-002   -0.91052445167750784     
   3.7199999999999997E-002   -0.81358966077541806     
   3.7500000000000006E-002   -0.68552777245103558     
   3.7800000000000000E-002   -0.50601783840965842     
   3.8100000000000009E-002   -0.28170446026701351     
   3.8400000000000004E-002    -1.0591729333001884E-002
   3.8699999999999998E-002    0.28899689817651314     
   3.9000000000000007E-002    0.59922637854298033     
   3.9300000000000002E-002    0.90446378854273357     
   3.9600000000000003E-002     1.1761561831926555     
   3.9900000000000005E-002     1.4063474099230948     
   4.0200000000000000E-002     1.5753696090025144     
   4.0500000000000001E-002     1.6795603116551883     
   4.0800000000000003E-002     1.7182637474425266     
   4.1100000000000005E-002     1.6896975020782665     
   4.1399999999999999E-002     1.6089426204145305     
   4.1700000000000008E-002     1.4806482686436495     
   4.2000000000000003E-002     1.3224372733320229     
   4.2299999999999997E-002     1.1462938643965330     
   4.2600000000000006E-002    0.96389489081127033     
   4.2900000000000001E-002    0.78985070054222073     
   4.3200000000000002E-002    0.63064246635978061     
   4.3500000000000004E-002    0.49887176976963477     
   4.3799999999999999E-002    0.39820462590169475     
   4.4100000000000000E-002    0.33530289494759247     
   4.4400000000000002E-002    0.31173140843934904     
   4.4700000000000004E-002    0.32969896429308715     
   4.4999999999999998E-002    0.38737859077170206     
   4.5300000000000000E-002    0.47917934297882925     
   4.5600000000000002E-002    0.60116382584472938     
   4.5899999999999996E-002    0.73910852546839656     
   4.6200000000000005E-002    0.88639923125815856     
   4.6500000000000000E-002     1.0268084013932957     
   4.6799999999999994E-002     1.1469472826896141     
   4.7100000000000003E-002     1.2368443143374648     
   4.7399999999999998E-002     1.2811747879990016     
   4.7700000000000006E-002     1.2807624359302283     
   4.8000000000000001E-002     1.2279027657402102     
   4.8300000000000010E-002     1.1290893439580107     
   4.8600000000000004E-002    0.99170635257465356     
   4.8899999999999999E-002    0.82321200373116299     
   4.9200000000000008E-002    0.64334318097532051     
   4.9500000000000002E-002    0.45980590453617703     
   4.9800000000000011E-002    0.29094257771249699     
   5.0100000000000006E-002    0.14550109208441941     
   5.0400000000000000E-002     2.9896797188039014E-002
   5.0700000000000009E-002    -4.7547855309290524E-002
   5.1000000000000004E-002    -9.3329872638056782E-002
   5.1299999999999998E-002   -0.10439805284003087     
   5.1600000000000007E-002    -9.1090525139637904E-002
   5.1900000000000002E-002    -5.8667107039358062E-002
   5.2200000000000010E-002    -1.2803135076751534E-002
   5.2500000000000005E-002     3.5502028429952079E-002
   5.2800000000000000E-002     8.4989103109221600E-002
   5.3099999999999994E-002    0.12581938099469508     
   5.3400000000000003E-002    0.15799524840465229     
   5.3699999999999998E-002    0.17706779321918792     
   5.4000000000000006E-002    0.18020160857127676     
   5.4300000000000001E-002    0.16837096099028595     
   5.4599999999999996E-002    0.13547816379279407     
   5.4900000000000004E-002     8.4249292824308902E-002
   5.5199999999999999E-002     1.0995808319953070E-002
   5.5499999999999994E-002    -8.0793905177194411E-002
   5.5800000000000002E-002   -0.18960874438879843     
   5.6099999999999997E-002   -0.31177247504287997     
   5.6400000000000006E-002   -0.43879888719363591     
   5.6700000000000000E-002   -0.56703217269846840     
   5.6999999999999995E-002   -0.68286784157253444     
   5.7300000000000004E-002   -0.77992315822569780     
   5.7599999999999998E-002   -0.84773500510520872     
   5.7900000000000007E-002   -0.88031496327878944     
   5.8200000000000002E-002   -0.87575079478728923     
   5.8499999999999996E-002   -0.82974202721884249     
   5.8800000000000005E-002   -0.75100071093040566     
   5.9100000000000000E-002   -0.64102083942471733     
   5.9400000000000008E-002   -0.51237839497933613     
   5.9700000000000003E-002   -0.37644612395683308     
   6.0000000000000012E-002   -0.24357367333395497     
   6.0300000000000006E-002   -0.12738685745771391     
   6.0600000000000001E-002    -3.3026106331328686E-002
   6.0900000000000010E-002     2.9884043052682344E-002
   6.1200000000000004E-002     6.3434425253115073E-002
   6.1500000000000013E-002     6.8290584585491740E-002
   6.1800000000000008E-002     4.8642409743449480E-002
   6.2100000000000002E-002     1.5419907316983715E-002
   6.2399999999999997E-002    -2.5199260107569330E-002
   6.2700000000000006E-002    -6.1082661898722385E-002
   6.3000000000000000E-002    -8.7867340147086345E-002
   6.3300000000000009E-002    -9.9507464378225496E-002
   6.3600000000000004E-002    -9.7186234840085900E-002
   6.3899999999999998E-002    -8.5706578599517108E-002
   6.4199999999999993E-002    -6.8387686186942742E-002
   6.4500000000000002E-002    -5.7301605662184979E-002
   6.4800000000000010E-002    -5.8073941308311006E-002
   6.5100000000000005E-002    -7.9918233241782641E-002
   6.5400000000000000E-002   -0.12452120052818125     
   6.5700000000000008E-002   -0.18898855823280303     
   6.5999999999999989E-002   -0.26759606069997433     
   6.6299999999999998E-002   -0.34103694603494494     
   6.6600000000000006E-002   -0.39521325221557169     
   6.6900000000000001E-002   -0.40689401049457719     
   6.7199999999999996E-002   -0.35836731120707399     
   6.7500000000000004E-002   -0.23629311184406157     
   6.7800000000000013E-002    -3.1469924017490762E-002
   6.8099999999999994E-002    0.24821999555731153     
   6.8400000000000002E-002    0.59150808066330363     
   6.8700000000000011E-002    0.96588575845408209     
   6.8999999999999992E-002     1.3344670652522685     
   6.9300000000000000E-002     1.6547564503829708     
   6.9600000000000009E-002     1.8775761482860769     
   6.9900000000000004E-002     1.9661441283941310     
   7.0199999999999999E-002     1.8847667461688709     
   7.0500000000000007E-002     1.6190313574909332     
   7.0800000000000016E-002     1.1702524829624650     
   7.1099999999999997E-002    0.55934473774469640     
   7.1400000000000005E-002   -0.16838504737168439     
   7.1700000000000000E-002   -0.95770282427632158     
   7.1999999999999995E-002    -1.7353954621501624     
   7.2300000000000003E-002    -2.4283896005028951     
   7.2600000000000012E-002    -2.9654000489754417     
   7.2900000000000006E-002    -3.2856820434686074     
   7.3200000000000001E-002    -3.3483603853076200     
   7.3499999999999996E-002    -3.1337598195359364     
   7.3800000000000004E-002    -2.6503105880111861     
   7.4099999999999999E-002    -1.9293624703339587     
   7.4400000000000008E-002    -1.0287320921407745     
   7.4700000000000003E-002    -2.0677191153746884E-002
   7.5000000000000011E-002     1.0109073147237553     
   7.5299999999999992E-002     1.9815345286763562     
   7.5600000000000001E-002     2.8139455998756269     
   7.5900000000000009E-002     3.4416225790176420     
   7.6200000000000004E-002     3.8243239830137230     
   7.6499999999999999E-002     3.9364052728234435     
   7.6800000000000007E-002     3.7830830458512072     
   7.7099999999999988E-002     3.3887117612375350     
   7.7399999999999997E-002     2.7930820523224624     
   7.7700000000000005E-002     2.0560002650297413     
   7.8000000000000014E-002     1.2336918237439203     
   7.8299999999999995E-002    0.39256709005409379     
   7.8600000000000003E-002   -0.41347389990199979     
   7.8900000000000012E-002    -1.1370907220700766     
   7.9199999999999993E-002    -1.7392524978834665     
   7.9500000000000001E-002    -2.2021208357133051     
   7.9800000000000010E-002    -2.5103843785025175     
   8.0100000000000018E-002    -2.6684761602662657     
   8.0399999999999999E-002    -2.6847246204654271     
   8.0700000000000008E-002    -2.5743718599425125     
   8.1000000000000003E-002    -2.3604455364158388     
   8.1299999999999997E-002    -2.0616507817423679     
   8.1600000000000006E-002    -1.7042083936120003     
   8.1900000000000014E-002    -1.3089678393271915     
   8.2199999999999995E-002   -0.89709073513103865     
   8.2500000000000004E-002   -0.48942815636448955     
   8.2799999999999999E-002   -0.10252154797602349     
   8.3100000000000007E-002    0.24693043961193537     
   8.3400000000000002E-002    0.54757120579206497     
   8.3700000000000011E-002    0.78832074683528763     
   8.4000000000000005E-002    0.96454664845382143     
   8.4300000000000000E-002     1.0730488572320480     
   8.4599999999999995E-002     1.1167679083462796     
   8.4900000000000003E-002     1.1018488621189892     
   8.5199999999999998E-002     1.0362590725194338     
   8.5500000000000007E-002    0.93399686828688899     
   8.5800000000000001E-002    0.80457431836985271     
   8.6100000000000010E-002    0.66345131705570981     
   8.6399999999999991E-002    0.52056431698679284     
   8.6699999999999999E-002    0.38442656124917218     
   8.7000000000000008E-002    0.26479228822786299     
   8.7300000000000003E-002    0.16053309534105784     
   8.7599999999999997E-002     7.6961511970650182E-002
   8.7900000000000006E-002     1.0338372654394270E-002
   8.8200000000000014E-002    -4.1294503818453183E-002
   8.8499999999999995E-002    -7.8846823032040922E-002
   8.8800000000000004E-002   -0.10786012791378123     
   8.9100000000000013E-002   -0.12716156488579228     
   8.9399999999999993E-002   -0.14105406627487144     
   8.9700000000000002E-002   -0.14870628946790357     
   9.0000000000000011E-002   -0.15024638425017267     
   9.0299999999999991E-002   -0.14682623969222824     
   9.0600000000000000E-002   -0.13811978899047986     
   9.0900000000000009E-002   -0.12702234189713185     
   9.1200000000000017E-002   -0.11430063133592744     
   9.1499999999999998E-002   -0.10424631731266505     
   9.1800000000000007E-002    -9.6809594021281198E-002
   9.2100000000000001E-002    -9.6048672723938189E-002
   9.2399999999999996E-002   -0.10197709186618140     
   9.2700000000000005E-002   -0.11225428177019435     
   9.3000000000000013E-002   -0.12820121401441820     
   9.3300000000000008E-002   -0.14168794393552367     
   9.3600000000000003E-002   -0.15171635206224132     
   9.3899999999999997E-002   -0.15012872427643587     
   9.4200000000000006E-002   -0.13174716044970292     
   9.4500000000000001E-002    -9.5865343247859169E-002
   9.4800000000000009E-002    -3.5298654916832185E-002
   9.5100000000000004E-002     4.2254249443275681E-002
   9.5399999999999999E-002    0.13880386516638590     
   9.5699999999999993E-002    0.24763506306190086     
   9.6000000000000002E-002    0.35863077540341687     
   9.6300000000000011E-002    0.46816569534562635     
   9.6600000000000005E-002    0.56104940386301705     
   9.6900000000000000E-002    0.63397574744025531     
   9.7200000000000009E-002    0.67780501050877029     
   9.7499999999999989E-002    0.68706518922177384     
   9.7799999999999998E-002    0.66295832851224423     
   9.8100000000000007E-002    0.60134619956335555     
   9.8400000000000015E-002    0.50797856257122564     
   9.8699999999999996E-002    0.38614175054988470     
   9.9000000000000005E-002    0.24144983543878051     
   9.9300000000000013E-002     8.1718200462696941E-002
   9.9599999999999994E-002    -8.5921555471593303E-002
   9.9900000000000003E-002   -0.25464808987924464     
  0.10020000000000001        -0.41615387992314490     
  0.10049999999999999        -0.56489616963339162     
  0.10080000000000000        -0.69607788763543443     
  0.10110000000000001        -0.80261058274450470     
  0.10140000000000000        -0.88481438918079369     
  0.10170000000000000        -0.93621862871874095     
  0.10200000000000001        -0.95835746423259005     
  0.10230000000000002        -0.95333040867309149     
  0.10260000000000000        -0.91754914586054392     
  0.10290000000000001        -0.86135168009945318     
  0.10320000000000000        -0.78247351531331066     
  0.10350000000000001        -0.68859858263185580     
  0.10380000000000000        -0.58755118268424900     
  0.10410000000000001        -0.47835058435069888     
  0.10440000000000001        -0.37389236726061081     
  0.10470000000000000        -0.27043747645302940     
  0.10500000000000000        -0.17411809620867452     
  0.10530000000000000         -8.8457798554012659E-002
  0.10560000000000000         -6.4429745317306506E-003
  0.10590000000000001          6.5009547865134090E-002
  0.10620000000000000         0.13460814888301101     
  0.10650000000000001         0.20226639481525741     
  0.10679999999999999         0.26830144268644246     
  0.10710000000000000         0.33777935698374600     
  0.10740000000000001         0.40551115411433170     
  0.10770000000000000         0.47366366954419181     
  0.10800000000000000         0.53794551849711769     
  0.10830000000000001         0.59285730891477828     
  0.10859999999999999         0.63584876580198002     
  0.10890000000000000         0.66075712701040035     
  0.10920000000000001         0.66250050104861957     
  0.10950000000000001         0.64128690699825774     
  0.10979999999999999         0.59449529152079361     
  0.11009999999999999         0.52382009550361897     
  0.11040000000000001         0.43622191796618975     
  0.11070000000000001         0.33234136324836927     
  0.11100000000000000         0.22493637000529632     
  0.11130000000000000         0.11838268886223424     
  0.11160000000000002          1.9478160846808631E-002
  0.11190000000000001         -5.9396149277663554E-002
  0.11220000000000001        -0.12122280725684553     
  0.11250000000000000        -0.15534869222308281     
  0.11280000000000000        -0.16540993897432932     
  0.11309999999999999        -0.15350782666059051     
  0.11340000000000001        -0.11545338217029233     
  0.11369999999999998         -6.4833486505540452E-002
  0.11400000000000000          2.3128986449510989E-003
  0.11430000000000000          7.6277857476915956E-002
  0.11460000000000002         0.15167186232145813     
  0.11489999999999999         0.23011865037445611     
  0.11520000000000001         0.29956200980090220     
  0.11550000000000001         0.36352691089096117     
  0.11580000000000000         0.41560765958881363     
  0.11609999999999999         0.45249447011048211     
  0.11640000000000002         0.47547417506255396     
  0.11670000000000001         0.47809385909372798     
  0.11700000000000001         0.46123706949494636     
  0.11730000000000000         0.42285951686319939     
  0.11760000000000000         0.36243116680829862     
  0.11789999999999999         0.28203770477900603     
  0.11820000000000001         0.18470642004228122     
  0.11850000000000001          7.2282309006834050E-002
  0.11880000000000000         -4.6545160155360477E-002
  0.11910000000000000        -0.16815061508389637     
  0.11940000000000002        -0.28583180427912996     
  0.11970000000000001        -0.38967889109955944     
  0.12000000000000001        -0.48053499471825833     
  0.12030000000000000        -0.54770945948461580     
  0.12060000000000000        -0.59261136663725689     
  0.12089999999999999        -0.61520510237578863     
  0.12119999999999999        -0.61168366128978313     
  0.12150000000000001        -0.59280669052255452     
  0.12180000000000001        -0.55326961963269983     
  0.12210000000000000        -0.50108432387827584     
  0.12239999999999999        -0.44050773654739650     
  0.12270000000000002        -0.36829620603848928     
  0.12300000000000001        -0.29542070730838704     
  0.12330000000000001        -0.21549535204109976     
  0.12360000000000000        -0.13330636110403393     
  0.12390000000000000         -5.0855905666211405E-002
  0.12419999999999999          3.5060222816257557E-002
  0.12450000000000001         0.11475922432796203     
  0.12480000000000001         0.19106869511281624     
  0.12509999999999999         0.25752987010704881     
  0.12540000000000001         0.30836053279032605     
  0.12570000000000003         0.34219820886397612     
  0.12600000000000000         0.35164471184363844     
  0.12630000000000002         0.33573638266075750     
  0.12659999999999999         0.29448150593721162     
  0.12690000000000001         0.22743485093967844     
  0.12719999999999998         0.13894789860218620     
  0.12750000000000000          3.4428019182944407E-002
  0.12780000000000002         -8.1901051635209179E-002
  0.12809999999999999        -0.19944271287485191     
  0.12840000000000001        -0.31469556261966114     
  0.12869999999999998        -0.42169263229104403     
  0.12900000000000000        -0.51312803343018509     
  0.12930000000000003        -0.59271394027243962     
  0.12959999999999999        -0.65323303864366156     
  0.12990000000000002        -0.69902466366595251     
  0.13019999999999998        -0.73171095588376656     
  0.13050000000000000        -0.74820606609632201     
  0.13080000000000003        -0.75650178105354249     
  0.13109999999999999        -0.74891607901479573     
  0.13140000000000002        -0.72851645106726293     
  0.13169999999999998        -0.69306295412912566     
  0.13200000000000001        -0.63458394617378611     
  0.13229999999999997        -0.55701607138903853     
  0.13260000000000000        -0.45162105429148780     
  0.13290000000000002        -0.32140883731280778     
  0.13319999999999999        -0.16666109777856797     
  0.13350000000000001          1.1074268515337786E-002
  0.13380000000000003         0.20240241386295793     
  0.13410000000000000         0.40384814207653263     
  0.13440000000000002         0.60366618683435980     
  0.13469999999999999         0.79334098076765480     
  0.13500000000000001         0.96392696937850675     
  0.13529999999999998          1.1074682440836272     
  0.13560000000000000          1.2179181520761238     
  0.13590000000000002          1.2910272997706123     
  0.13619999999999999          1.3252869743866464     
  0.13650000000000001          1.3190630560656642     
  0.13680000000000003          1.2768310179264959     
  0.13710000000000000          1.1985175481944097     
  0.13740000000000002          1.0899606822232750     
  0.13769999999999999         0.95437322962374282     
  0.13800000000000001         0.79432325763259870     
  0.13829999999999998         0.61882161496458388     
  0.13860000000000000         0.42783975368857619     
  0.13890000000000002         0.23069386217870080     
  0.13919999999999999          3.1798659931441903E-002
  0.13950000000000001        -0.16381714673859471     
  0.13979999999999998        -0.34588598527538150     
  0.14010000000000000        -0.51156847826654095     
  0.14040000000000002        -0.65114145565484183     
  0.14069999999999999        -0.76025246642667643     
  0.14100000000000001        -0.83539329988857003     
  0.14130000000000004        -0.87217836647763369     
  0.14160000000000000        -0.87249206571323368     
  0.14189999999999997        -0.83616291593337599     
  0.14219999999999999        -0.76685624487334469     
  0.14250000000000002        -0.66927444173536599     
  0.14279999999999998        -0.54887913980087988     
  0.14310000000000000        -0.41143801254875545     
  0.14339999999999997        -0.26361682585513535     
  0.14369999999999999        -0.11056928069082306     
  0.14400000000000002          4.3179922754761020E-002
  0.14429999999999998         0.19161087250188780     
  0.14460000000000001         0.33246162337961610     
  0.14490000000000003         0.45917379565384436     
  0.14520000000000000         0.56912445671560796     
  0.14550000000000002         0.65852641622327190     
  0.14579999999999999         0.72081189971861148     
  0.14610000000000001         0.75688391490626594     
  0.14640000000000003         0.75976806507870021     
  0.14670000000000000         0.73069494596519891     
  0.14699999999999996         0.67029606888056914     
  0.14729999999999999         0.57868593548018443     
  0.14760000000000001         0.46450140560568404     
  0.14789999999999998         0.33067956014184358     
  0.14820000000000000         0.18812552932718574     