  -1.4999999999999999E-002     0.0000000000000000     
  -1.4700000000000000E-002     0.0000000000000000     
  -1.4400000000000000E-002     0.0000000000000000     
  -1.4100000000000000E-002     0.0000000000000000     
  -1.3800000000000000E-002     0.0000000000000000     
  -1.3500000000000000E-002     0.0000000000000000     
  -1.3200000000000000E-002     0.0000000000000000     
  -1.2899999999999998E-002     0.0000000000000000     
  -1.2600000000000000E-002     0.0000000000000000     
  -1.2299999999999998E-002     0.0000000000000000     
  -1.2000000000000000E-002     0.0000000000000000     
  -1.1699999999999999E-002     0.0000000000000000     
  -1.1399999999999999E-002     0.0000000000000000     
  -1.1099999999999999E-002     0.0000000000000000     
  -1.0799999999999999E-002     0.0000000000000000     
  -1.0499999999999999E-002     0.0000000000000000     
  -1.0199999999999999E-002     0.0000000000000000     
  -9.8999999999999991E-003     0.0000000000000000     
  -9.5999999999999992E-003     0.0000000000000000     
  -9.2999999999999992E-003     0.0000000000000000     
  -8.9999999999999993E-003     0.0000000000000000     
  -8.6999999999999994E-003     0.0000000000000000     
  -8.3999999999999995E-003     0.0000000000000000     
  -8.0999999999999996E-003     0.0000000000000000     
  -7.7999999999999988E-003     0.0000000000000000     
  -7.4999999999999997E-003     0.0000000000000000     
  -7.1999999999999998E-003     0.0000000000000000     
  -6.8999999999999981E-003     0.0000000000000000     
  -6.5999999999999982E-003     0.0000000000000000     
  -6.3000000000000000E-003     0.0000000000000000     
  -6.0000000000000001E-003     0.0000000000000000     
  -5.6999999999999985E-003     0.0000000000000000     
  -5.3999999999999986E-003     0.0000000000000000     
  -5.1000000000000004E-003     0.0000000000000000     
  -4.7999999999999987E-003     0.0000000000000000     
  -4.5000000000000005E-003     0.0000000000000000     
  -4.1999999999999989E-003     0.0000000000000000     
  -3.8999999999999990E-003     0.0000000000000000     
  -3.5999999999999990E-003     0.0000000000000000     
  -3.2999999999999991E-003     0.0000000000000000     
  -2.9999999999999992E-003     0.0000000000000000     
  -2.6999999999999993E-003     0.0000000000000000     
  -2.3999999999999994E-003     0.0000000000000000     
  -2.0999999999999977E-003     0.0000000000000000     
  -1.7999999999999995E-003     0.0000000000000000     
  -1.4999999999999979E-003     0.0000000000000000     
  -1.1999999999999997E-003     0.0000000000000000     
  -8.9999999999999976E-004     0.0000000000000000     
  -5.9999999999999810E-004     0.0000000000000000     
  -2.9999999999999992E-004     0.0000000000000000     
   0.0000000000000000          0.0000000000000000     
   3.0000000000000165E-004     0.0000000000000000     
   5.9999999999999984E-004     0.0000000000000000     
   9.0000000000000149E-004     0.0000000000000000     
   1.2000000000000031E-003     0.0000000000000000     
   1.5000000000000013E-003     0.0000000000000000     
   1.8000000000000030E-003     0.0000000000000000     
   2.1000000000000012E-003     0.0000000000000000     
   2.3999999999999994E-003     0.0000000000000000     
   2.7000000000000010E-003     0.0000000000000000     
   2.9999999999999992E-003     0.0000000000000000     
   3.3000000000000008E-003     0.0000000000000000     
   3.6000000000000025E-003     0.0000000000000000     
   3.9000000000000007E-003     0.0000000000000000     
   4.2000000000000023E-003     0.0000000000000000     
   4.5000000000000005E-003     0.0000000000000000     
   4.7999999999999987E-003     0.0000000000000000     
   5.1000000000000004E-003     0.0000000000000000     
   5.4000000000000020E-003     0.0000000000000000     
   5.7000000000000037E-003     0.0000000000000000     
   5.9999999999999984E-003     0.0000000000000000     
   6.3000000000000000E-003     0.0000000000000000     
   6.6000000000000017E-003     0.0000000000000000     
   6.9000000000000034E-003     0.0000000000000000     
   7.2000000000000015E-003     0.0000000000000000     
   7.5000000000000032E-003     0.0000000000000000     
   7.8000000000000014E-003     0.0000000000000000     
   8.0999999999999996E-003     0.0000000000000000     
   8.4000000000000012E-003     0.0000000000000000     
   8.7000000000000029E-003    -2.2792718023016833E-042
   9.0000000000000011E-003    -1.2216955544978272E-039
   9.2999999999999992E-003     7.7286156487451599E-038
   9.6000000000000009E-003     4.4867850184658421E-036
   9.8999999999999991E-003    -2.7499169118871763E-035
   1.0200000000000001E-002    -2.5808243104336078E-034
   1.0500000000000002E-002     2.7649933895968217E-035
   1.0800000000000004E-002     1.0832838430188442E-032
   1.1099999999999999E-002     7.0894936521247905E-033
   1.1400000000000000E-002    -3.4290704449177146E-031
   1.1700000000000002E-002     1.3893000524110122E-031
   1.2000000000000004E-002     9.4081280619160763E-030
   1.2300000000000002E-002    -3.4573082969718373E-029
   1.2600000000000000E-002    -7.9340525638747181E-029
   1.2900000000000002E-002     1.1206287995003282E-027
   1.3200000000000000E-002    -4.0389160606566056E-027
   1.3500000000000002E-002    -6.4682138748260486E-028
   1.3800000000000003E-002     7.8192643137581083E-026
   1.4100000000000001E-002    -3.9743480348343816E-025
   1.4400000000000000E-002     7.7924623108963797E-025
   1.4700000000000001E-002     1.8985346167830419E-024
   1.4999999999999999E-002    -1.8959422398215283E-023
   1.5300000000000001E-002     6.1622199736059864E-023
   1.5600000000000003E-002    -4.9644714748756998E-023
   1.5899999999999997E-002    -4.8255666689920969E-022
   1.6199999999999999E-002     2.7252071571225643E-021
   1.6500000000000001E-002    -7.2479885093305041E-021
   1.6800000000000002E-002     4.7243279252145461E-021
   1.7100000000000004E-002     5.5515377350389551E-020
   1.7400000000000006E-002    -3.3702290881849303E-019
   1.7700000000000000E-002     1.2065655759787237E-018
   1.8000000000000002E-002    -3.1017591190083904E-018
   1.8300000000000004E-002     5.0911686462666427E-018
   1.8600000000000005E-002     1.6839939058356339E-018
   1.8900000000000000E-002    -5.6797243877698976E-017
   1.9200000000000002E-002     2.9281827616590132E-016
   1.9500000000000003E-002    -1.0362416947682760E-015
   1.9799999999999998E-002     2.5832460482013516E-015
   2.0100000000000000E-002    -2.1184505477067950E-015
   2.0400000000000001E-002    -2.3848563946449730E-014
   2.0700000000000003E-002     1.8968104339407056E-013
   2.0999999999999998E-002    -8.9566649987020409E-013
   2.1299999999999999E-002     3.0755351022619638E-012
   2.1600000000000001E-002    -7.3408194568741458E-012
   2.1900000000000003E-002     7.7662021040779626E-012
   2.2200000000000004E-002     2.4758384584647507E-011
   2.2500000000000006E-002    -1.4718941902351431E-010
   2.2800000000000001E-002     3.2029653415921381E-010
   2.3100000000000002E-002    -2.5627165236474036E-011
   2.3400000000000004E-002    -1.7465343648294906E-009
   2.3699999999999999E-002     3.8613646566973648E-009
   2.4000000000000000E-002     1.8984414782046395E-009
   2.4300000000000002E-002    -2.0254834881282498E-008
   2.4599999999999997E-002     1.2654998064512861E-008
   2.4900000000000005E-002     7.0053893213320280E-008
   2.5200000000000000E-002    -7.8472100220977749E-008
   2.5499999999999995E-002    -2.4096587474215913E-007
   2.5800000000000003E-002     1.9539268185557532E-007
   2.6099999999999998E-002     7.4469542926475283E-007
   2.6400000000000007E-002    -1.6131447949782260E-007
   2.6700000000000002E-002    -1.9192004537354436E-006
   2.6999999999999996E-002    -7.3607471236698273E-007
   2.7300000000000005E-002     4.9019523890174267E-006
   2.7600000000000000E-002     1.0148016752565133E-005
   2.7900000000000008E-002     1.0598008122702366E-005
   2.8200000000000003E-002     1.1595145765752667E-005
   2.8499999999999998E-002     2.3565913496463744E-005
   2.8800000000000006E-002     4.8140336671905940E-005
   2.9100000000000001E-002     7.7442337340389436E-005
   2.9400000000000003E-002     1.1047908038851630E-004
   2.9700000000000004E-002     1.6258413657981391E-004
   3.0000000000000006E-002     2.5256174049497322E-004
   3.0300000000000001E-002     3.8760331548748719E-004
   3.0600000000000002E-002     5.7160671682155264E-004
   3.0900000000000004E-002     8.2572571437078564E-004
   3.1199999999999999E-002     1.1892096765700531E-003
   3.1500000000000007E-002     1.7002613905131138E-003
   3.1800000000000002E-002     2.3902061841711260E-003
   3.2099999999999997E-002     3.3022478696986650E-003
   3.2400000000000005E-002     4.5037034205267206E-003
   3.2700000000000000E-002     6.0697579741665524E-003
   3.3000000000000002E-002     8.0647090048585196E-003
   3.3300000000000003E-002     1.0548586152721992E-002
   3.3599999999999998E-002     1.3591188807456253E-002
   3.3900000000000000E-002     1.7260281331272755E-002
   3.4200000000000001E-002     2.1590759935451016E-002
   3.4500000000000003E-002     2.6572969750057213E-002
   3.4799999999999998E-002     3.2159985696929905E-002
   3.5099999999999999E-002     3.8263806099489268E-002
   3.5400000000000001E-002     4.4726363764498255E-002
   3.5699999999999996E-002     5.1297154023481083E-002
   3.6000000000000004E-002     5.7643540146172081E-002
   3.6299999999999999E-002     6.3366260428006499E-002
   3.6600000000000008E-002     6.8004637615037375E-002
   3.6900000000000002E-002     7.1035857372537717E-002
   3.7199999999999997E-002     7.1904457890288959E-002
   3.7500000000000006E-002     7.0078339577507559E-002
   3.7800000000000000E-002     6.5090820781686265E-002
   3.8100000000000009E-002     5.6574580572597719E-002
   3.8400000000000004E-002     4.4308890721918438E-002
   3.8699999999999998E-002     2.8277000722296011E-002
   3.9000000000000007E-002     8.7068400937172878E-003
   3.9300000000000002E-002    -1.3920155183535350E-002
   3.9600000000000003E-002    -3.8876141389684878E-002
   3.9900000000000005E-002    -6.5203128297630739E-002
   4.0200000000000000E-002    -9.1735936143383073E-002
   4.0500000000000001E-002   -0.11718956694553065     
   4.0800000000000003E-002   -0.14025098871382408     
   4.1100000000000005E-002   -0.15966547481220905     
   4.1399999999999999E-002   -0.17433593669393319     
   4.1700000000000008E-002   -0.18341998476101279     
   4.2000000000000003E-002   -0.18641002675743126     
   4.2299999999999997E-002   -0.18320386666563940     
   4.2600000000000006E-002   -0.17410138665934904     
   4.2900000000000001E-002   -0.15983196044244902     
   4.3200000000000002E-002   -0.14149847172967303     
   4.3500000000000004E-002   -0.12048393590620698     
   4.3799999999999999E-002    -9.8399147793727937E-002
   4.4100000000000000E-002    -7.6932335709740396E-002
   4.4400000000000002E-002    -5.7721289078603272E-002
   4.4700000000000004E-002    -4.2249226232887904E-002
   4.4999999999999998E-002    -3.1723238283390270E-002
   4.5300000000000000E-002    -2.6992962394902155E-002
   4.5600000000000002E-002    -2.8464550328028981E-002
   4.5899999999999996E-002    -3.6049207561097862E-002
   4.6200000000000005E-002    -4.9195554142062344E-002
   4.6500000000000000E-002    -6.6889799194744567E-002
   4.6799999999999994E-002    -8.7682428513043115E-002
   4.7100000000000003E-002   -0.10980284133205895     
   4.7399999999999998E-002   -0.13124813280584205     
   4.7700000000000006E-002   -0.14989833891184134     
   4.8000000000000001E-002   -0.16366579048635707     
   4.8300000000000010E-002   -0.17056183651061901     
   4.8600000000000004E-002   -0.16892000993909970     
   4.8899999999999999E-002   -0.15751839840136145     
   4.9200000000000008E-002   -0.13559243657454345     
   4.9500000000000002E-002   -0.10298437556980562     
   4.9800000000000011E-002    -6.0156837850530123E-002
   5.0100000000000006E-002    -8.2118062236889253E-003
   5.0400000000000000E-002     5.1129310227500738E-002
   5.0700000000000009E-002    0.11571358753760401     
   5.1000000000000004E-002    0.18299695449677600     
   5.1299999999999998E-002    0.25014991367016770     
   5.1600000000000007E-002    0.31430590706037631     
   5.1900000000000002E-002    0.37266167016717899     
   5.2200000000000010E-002    0.42265463627823652     
   5.2500000000000005E-002    0.46211269497131363     
   5.2800000000000000E-002    0.48923742759519351     
   5.3099999999999994E-002    0.50275534509089925     
   5.3400000000000003E-002    0.50199149852768732     
   5.3699999999999998E-002    0.48674633177106541     
   5.4000000000000006E-002    0.45734695887085847     
   5.4300000000000001E-002    0.41461020871987664     
   5.4599999999999996E-002    0.35978379070704419     
   5.4900000000000004E-002    0.29462090514536926     
   5.5199999999999999E-002    0.22118357252115034     
   5.5499999999999994E-002    0.14192111212693287     
   5.5800000000000002E-002     5.9722826529696529E-002
   5.6099999999999997E-002    -2.2270854646870474E-002
   5.6400000000000006E-002   -0.10060700982680999     
   5.6700000000000000E-002   -0.17164850767474660     
   5.6999999999999995E-002   -0.23172549726523556     
   5.7300000000000004E-002   -0.27721850939230253     
   5.7599999999999998E-002   -0.30480325244081152     
   5.7900000000000007E-002   -0.31170777459977095     
   5.8200000000000002E-002   -0.29593025248477139     
   5.8499999999999996E-002   -0.25647707470370096     
   5.8800000000000005E-002   -0.19350748997268957     
   5.9100000000000000E-002   -0.10854408740115778     
   5.9400000000000008E-002    -4.6106066503882551E-003
   5.9700000000000003E-002    0.11389502774505185     
   6.0000000000000012E-002    0.24133428167950849     
   6.0300000000000006E-002    0.37097503569522561     
   6.0600000000000001E-002    0.49532313128881689     
   6.0900000000000010E-002    0.60654418613326277     
   6.1200000000000004E-002    0.69690278487414103     
   6.1500000000000013E-002    0.75928362467059696     
   6.1800000000000008E-002    0.78763979324524092     
   6.2100000000000002E-002    0.77739819282449352     
   6.2399999999999997E-002    0.72585032711488828     
   6.2700000000000006E-002    0.63239314457663875     
   6.3000000000000000E-002    0.49866247108646489     
   6.3300000000000009E-002    0.32854989067294649     
   6.3600000000000004E-002    0.12802479378779549     
   6.3899999999999998E-002    -9.5127183790346653E-002
   6.4199999999999993E-002   -0.33167495624934562     
   6.4500000000000002E-002   -0.57145113569906614     
   6.4800000000000010E-002   -0.80382563630803250     
   6.5100000000000005E-002    -1.0182487619278495     
   6.5400000000000000E-002    -1.2049268422081534     
   6.5700000000000008E-002    -1.3552280963071714     
   6.5999999999999989E-002    -1.4620855960492964     
   6.6299999999999998E-002    -1.5203892419107388     
   6.6600000000000006E-002    -1.5271919247222772     
   6.6900000000000001E-002    -1.4818603273124706     
   6.7199999999999996E-002    -1.3860495541431330     
   6.7500000000000004E-002    -1.2435487825298708     
   6.7800000000000013E-002    -1.0600807068898650     
   6.8099999999999994E-002   -0.84306810623768080     
   6.8400000000000002E-002   -0.60120414963489033     
   6.8700000000000011E-002   -0.34407983862338931     
   6.8999999999999992E-002    -8.1751400357094176E-002
   6.9300000000000000E-002    0.17571241594327747     
   6.9600000000000009E-002    0.41859789934815550     
   6.9900000000000004E-002    0.63799137435454745     
   7.0199999999999999E-002    0.82608087736329927     
   7.0500000000000007E-002    0.97646800609024553     
   7.0800000000000016E-002     1.0845003624509992     
   7.1099999999999997E-002     1.1472643639972939     
   7.1400000000000005E-002     1.1637318445938560     
   7.1700000000000000E-002     1.1349435054459145     
   7.1999999999999995E-002     1.0637490252742943     
   7.2300000000000003E-002    0.95478996004869510     
   7.2600000000000012E-002    0.81427737936310773     
   7.2900000000000006E-002    0.64961727926402346     
   7.3200000000000001E-002    0.46933278787290900     
   7.3499999999999996E-002    0.28253454261909161     
   7.3800000000000004E-002     9.8458416126456963E-002
   7.4099999999999999E-002    -7.3823334491259829E-002
   7.4400000000000008E-002   -0.22586656984730721     
   7.4700000000000003E-002   -0.35028404665292284     
   7.5000000000000011E-002   -0.44119195636648312     
   7.5299999999999992E-002   -0.49462534515460743     
   7.5600000000000001E-002   -0.50870056386321916     
   7.5900000000000009E-002   -0.48387647586053517     
   7.6200000000000004E-002   -0.42322902698501474     
   7.6499999999999999E-002   -0.33223834203753055     
   7.6800000000000007E-002   -0.21862629204520079     
   7.7099999999999988E-002    -9.2164578568934355E-002
   7.7399999999999997E-002     3.6019222454613753E-002
   7.7700000000000005E-002    0.15407489763290153     
   7.8000000000000014E-002    0.25019850919786080     
   7.8299999999999995E-002    0.31369680680669698     
   7.8600000000000003E-002    0.33577008182935542     
   7.8900000000000012E-002    0.31043518363197248     
   7.9199999999999993E-002    0.23532448168806430     
   7.9500000000000001E-002    0.11213335271931141     
   7.9800000000000010E-002    -5.3102885573187972E-002
   8.0100000000000018E-002   -0.25029402563739855     
   8.0399999999999999E-002   -0.46580243854238457     
   8.0700000000000008E-002   -0.68314050974348406     
   8.1000000000000003E-002   -0.88437020262470889     
   8.1299999999999997E-002    -1.0515361234197866     
   8.1600000000000006E-002    -1.1679621712745332     
   8.1900000000000014E-002    -1.2198544620916314     
   8.2199999999999995E-002    -1.1976102951929690     
   8.2500000000000004E-002    -1.0966628733836048     
   8.2799999999999999E-002   -0.91821972921516348     
   8.3100000000000007E-002   -0.66918333792499141     
   8.3400000000000002E-002   -0.36178886547484312     
   8.3700000000000011E-002    -1.2959460539758036E-002
   8.4000000000000005E-002    0.35720808264496473     
   8.4300000000000000E-002    0.72680515975771409     
   8.4599999999999995E-002     1.0737504464858254     
   8.4900000000000003E-002     1.3775771198549092     
   8.5199999999999998E-002     1.6207366599385300     
   8.5500000000000007E-002     1.7899134123719929     
   8.5800000000000001E-002     1.8769484580637359     
   8.6100000000000010E-002     1.8791425807145590     
   8.6399999999999991E-002     1.7992612175464504     
   8.6699999999999999E-002     1.6449927438061323     
   8.7000000000000008E-002     1.4281202302602352     
   8.7300000000000003E-002     1.1635811395661797     
   8.7599999999999997E-002    0.86796099250042968     
   8.7900000000000006E-002    0.55808415716780901     
   8.8200000000000014E-002    0.24997541468129719     
   8.8499999999999995E-002    -4.2261624323765415E-002
   8.8800000000000004E-002   -0.30734856191180854     
   8.9100000000000013E-002   -0.53726164861400039     
   8.9399999999999993E-002   -0.72743036162665198     
   8.9700000000000002E-002   -0.87642037687927621     
   9.0000000000000011E-002   -0.98555121625992625     
   9.0299999999999991E-002    -1.0583032623999724     
   9.0600000000000000E-002    -1.0993314379079631     
   9.0900000000000009E-002    -1.1137797194026631     
   9.1200000000000017E-002    -1.1064830452529466     
   9.1499999999999998E-002    -1.0812548784069098     
   9.1800000000000007E-002    -1.0406567453840809     
   9.2100000000000001E-002   -0.98578762262487141     
   9.2399999999999996E-002   -0.91629548588766274     
   9.2700000000000005E-002   -0.83079717802750264     
   9.3000000000000013E-002   -0.72728481968528169     
   9.3300000000000008E-002   -0.60375488289265755     
   9.3600000000000003E-002   -0.45894357191798651     
   9.3899999999999997E-002   -0.29276228105645541     
   9.4200000000000006E-002   -0.10674813094468927     
   9.4500000000000001E-002     9.5668891805165565E-002
   9.4800000000000009E-002    0.30908340078187091     
   9.5100000000000004E-002    0.52619235548889054     
   9.5399999999999999E-002    0.73833909756666660     
   9.5699999999999993E-002    0.93615365159561514     
   9.6000000000000002E-002     1.1098301639159018     
   9.6300000000000011E-002     1.2498674255117694     
   9.6600000000000005E-002     1.3479030993517154     
   9.6900000000000000E-002     1.3972643825087958     
   9.7200000000000009E-002     1.3933079916672577     
   9.7499999999999989E-002     1.3333981672016166     
   9.7799999999999998E-002     1.2173382809988440     
   9.8100000000000007E-002     1.0476467383046175     
   9.8400000000000015E-002    0.82906852996234626     
   9.8699999999999996E-002    0.56823523882988658     
   9.9000000000000005E-002    0.27348753382275248     
   9.9300000000000013E-002    -4.5282553865625352E-002
   9.9599999999999994E-002   -0.37686504335910453     
   9.9900000000000003E-002   -0.70937184382509078     
  0.10020000000000001         -1.0307980557511505     
  0.10049999999999999         -1.3290956176078317     
  0.10080000000000000         -1.5923323754213767     
  0.10110000000000001         -1.8093866407451509     
  0.10140000000000000         -1.9704985592430369     
  0.10170000000000000         -2.0676883263685415     
  0.10200000000000001         -2.0946693096526907     
  0.10230000000000002         -2.0474396528321277     
  0.10260000000000000         -1.9249135274337883     
  0.10290000000000001         -1.7288094466304058     
  0.10320000000000000         -1.4637866588353545     
  0.10350000000000001         -1.1374295682102793     
  0.10380000000000000        -0.76010881718458867     
  0.10410000000000001        -0.34478304807790183     
  0.10440000000000001          9.3595580948929835E-002
  0.10470000000000000         0.53863315059123085     
  0.10500000000000000         0.97325103658799472     
  0.10530000000000000          1.3806035442205631     
  0.10560000000000000          1.7446623876918654     
  0.10590000000000001          2.0510613088013065     
  0.10620000000000000          2.2880057102955789     
  0.10650000000000001          2.4470121207005215     
  0.10679999999999999          2.5230699064416404     
  0.10710000000000000          2.5148613129631534     
  0.10740000000000001          2.4246938736324344     
  0.10770000000000000          2.2582775167214977     
  0.10800000000000000          2.0243357647697238     
  0.10830000000000001          1.7334337937897040     
  0.10859999999999999          1.3971752822510470     
  0.10890000000000000          1.0276107663796779     
  0.10920000000000001         0.63647761819425952     
  0.10950000000000001         0.23437831998178460     
  0.10979999999999999        -0.16962361979368834     
  0.11009999999999999        -0.56791087744656499     
  0.11040000000000001        -0.95389193852456089     
  0.11070000000000001         -1.3218428501562132     
  0.11100000000000000         -1.6663392885570141     
  0.11130000000000000         -1.9814256016418050     
  0.11160000000000002         -2.2600235737869152     
  0.11190000000000001         -2.4936438810351089     
  0.11220000000000001         -2.6725808901497334     
  0.11250000000000000         -2.7859034251711376     
  0.11280000000000000         -2.8221908515704111     
  0.11309999999999999         -2.7705865979255324     
  0.11340000000000001         -2.6222342441834172     
  0.11369999999999998         -2.3713287369107361     
  0.11400000000000000         -2.0161624560706395     
  0.11430000000000000         -1.5606517252639402     
  0.11460000000000002         -1.0148833226009415     
  0.11489999999999999        -0.39501948824785482     
  0.11520000000000001         0.27691579750341955     
  0.11550000000000001         0.97380580177833820     
  0.11580000000000000          1.6645474590560447     
  0.11609999999999999          2.3158634481161546     
  0.11640000000000002          2.8944827245652007     
  0.11670000000000001          3.3689299906775378     
  0.11700000000000001          3.7113244648415136     
  0.11730000000000000          3.8992445578486210     
  0.11760000000000000          3.9175732775416545     
  0.11789999999999999          3.7593318632458779     
  0.11820000000000001          3.4260701409980556     
  0.11850000000000001          2.9281844748733841     
  0.11880000000000000          2.2846037640133021     
  0.11910000000000000          1.5219792294512120     
  0.11940000000000002         0.67303602458367728     
  0.11970000000000001        -0.22481626774077884     
  0.12000000000000001         -1.1312046076453892     
  0.12030000000000000         -2.0048788281872021     
  0.12060000000000000         -2.8058364677604519     
  0.12089999999999999         -3.4973378365557064     
  0.12119999999999999         -4.0473622592577110     
  0.12150000000000001         -4.4298766688767675     
  0.12180000000000001         -4.6264064064308439     
  0.12210000000000000         -4.6268685274443175     
  0.12239999999999999         -4.4295762853227609     
  0.12270000000000002         -4.0410830981231225     
  0.12300000000000001         -3.4763306672986776     
  0.12330000000000001         -2.7580759039499929     
  0.12360000000000000         -1.9154179576153543     
  0.12390000000000000        -0.98279756023504738     
  0.12419999999999999          1.2615160484214516E-003
  0.12450000000000001         0.99555239318035160     
  0.12480000000000001          1.9582204983844818     
  0.12509999999999999          2.8485408594307087     
  0.12540000000000001          3.6282246740398301     
  0.12570000000000003          4.2637681349201548     
  0.12600000000000000          4.7276568342177718     
  0.12630000000000002          4.9996163672711234     
  0.12659999999999999          5.0682598866572519     
  0.12690000000000001          4.9314515887613659     
  0.12719999999999998          4.5963814599710116     
  0.12750000000000000          4.0794127969283878     
  0.12780000000000002          3.4055961786885067     
  0.12809999999999999          2.6072650051327941     
  0.12840000000000001          1.7224338370310173     
  0.12869999999999998         0.79258466737119737     
  0.12900000000000000        -0.13913218631762697     
  0.12930000000000003         -1.0300105198454501     
  0.12959999999999999         -1.8404887128548357     
  0.12990000000000002         -2.5358265525423715     
  0.13019999999999998         -3.0875240563317048     
  0.13050000000000000         -3.4750954811559072     
  0.13080000000000003         -3.6864315699500665     
  0.13109999999999999         -3.7182421279627693     
  0.13140000000000002         -3.5759942124632893     
  0.13169999999999998         -3.2732206967037429     
  0.13200000000000001         -2.8309097631119795     
  0.13229999999999997         -2.2757108476095329     
  0.13260000000000000         -1.6388722726930498     
  0.13290000000000002        -0.95522665447788024     
  0.13319999999999999        -0.26111500615415473     
  0.13350000000000001         0.40719956738701424     
  0.13380000000000003          1.0147866250979649     
  0.13410000000000000          1.5295065528089051     
  0.13440000000000002          1.9234754645020344     
  0.13469999999999999          2.1745394014123742     
  0.13500000000000001          2.2679508617728525     
  0.13529999999999998          2.1968293301205009     
  0.13560000000000000          1.9629922572249141     
  0.13590000000000002          1.5781175028889971     
  0.13619999999999999          1.0631303199874829     
  0.13650000000000001         0.44748089068333452     
  0.13680000000000003        -0.23212494316550614     
  0.13710000000000000        -0.93423070517009899     
  0.13740000000000002         -1.6146152071359077     
  0.13769999999999999         -2.2296560393191278     
  0.13800000000000001         -2.7401112486435499     
  0.13829999999999998         -3.1134199073242672     
  0.13860000000000000         -3.3264679361017864     
  0.13890000000000002         -3.3674131299709460     
  0.13919999999999999         -3.2365031479924773     
  0.13950000000000001         -2.9459928473359884     
  0.13979999999999998         -2.5181839692771346     
  0.14010000000000000         -1.9831182718603513     
  0.14040000000000002         -1.3761624223280569     
  0.14069999999999999        -0.73398858599991423     
  0.14100000000000001         -9.1299782500268656E-002
  0.14130000000000004         0.52157351528871709     
  0.14160000000000000          1.0815040376085188     
  0.14189999999999997          1.5735083454121055     
  0.14219999999999999          1.9905577940363608     
  0.14250000000000002          2.3333490086031472     
  0.14279999999999998          2.6081920681245467     
  0.14310000000000000          2.8249344578820215     
  0.14339999999999997          2.9947567119439720     
  0.14369999999999999          3.1273750346678963     
  0.14400000000000002          3.2295418419100024     
  0.14429999999999998          3.3033114413297331     
  0.14460000000000001          3.3454233909615256     
  0.14490000000000003          3.3482214662985763     
  0.14520000000000000          3.3000151754092761     
  0.14550000000000002          3.1864817073596452     
  0.14579999999999999          2.9935143762152663     
  0.14610000000000001          2.7089742195516071     
  0.14640000000000003          2.3249854615706007     
  0.14670000000000000          1.8397312351887063     
  0.14699999999999996          1.2585077783848693     
  0.14729999999999999         0.59485428066174739     
  0.14760000000000001        -0.12998871206001295     
  0.14789999999999998        -0.88855632022980069     
  0.14820000000000000         -1.6483286698633424     