  -1.4999999999999999E-002     0.0000000000000000     
  -1.4700000000000000E-002    -7.4263263337375394E-009
  -1.4400000000000000E-002     3.6516337187121571E-007
  -1.4100000000000000E-002     1.7201955442415418E-006
  -1.3800000000000000E-002    -5.1516890291192089E-006
  -1.3500000000000000E-002    -1.3237460751639762E-005
  -1.3200000000000000E-002     1.4011960039910681E-005
  -1.2899999999999998E-002     2.6195499254548177E-005
  -1.2600000000000000E-002    -6.8153522074370723E-006
  -1.2299999999999998E-002    -8.4737234169115873E-007
  -1.2000000000000000E-002    -1.8001783248877343E-005
  -1.1699999999999999E-002    -5.6506043641855670E-005
  -1.1399999999999999E-002    -1.0731848345155622E-005
  -1.1099999999999999E-002     3.6742450938650585E-005
  -1.0799999999999999E-002     4.3233503739519916E-005
  -1.0499999999999999E-002     5.8242214431044727E-005
  -1.0199999999999999E-002     1.6948097647409081E-004
  -9.8999999999999991E-003     3.3531256552546884E-004
  -9.5999999999999992E-003     5.1713606936773298E-004
  -9.2999999999999992E-003     9.7056874311154170E-004
  -8.9999999999999993E-003     1.6166706373673813E-003
  -8.6999999999999994E-003     2.2480730023132661E-003
  -8.3999999999999995E-003     3.3686147151401041E-003
  -8.0999999999999996E-003     5.2873520299618363E-003
  -7.7999999999999988E-003     7.8320931823635514E-003
  -7.4999999999999997E-003     1.1694177080871384E-002
  -7.1999999999999998E-003     1.7561867873295132E-002
  -6.8999999999999981E-003     2.5392875133707481E-002
  -6.5999999999999982E-003     3.5803556526043605E-002
  -6.3000000000000000E-003     5.0097581117452335E-002
  -6.0000000000000001E-003     6.9576226339020150E-002
  -5.6999999999999985E-003     9.4788387642609245E-002
  -5.3999999999999986E-003    0.12666286558382431     
  -5.1000000000000004E-003    0.16716486255607654     
  -4.7999999999999987E-003    0.21645757607829608     
  -4.5000000000000005E-003    0.27393385833903566     
  -4.1999999999999989E-003    0.33914309822178240     
  -3.8999999999999990E-003    0.40965280036479851     
  -3.5999999999999990E-003    0.48122316716706248     
  -3.2999999999999991E-003    0.54672992364356210     
  -2.9999999999999992E-003    0.59664195924739150     
  -2.6999999999999993E-003    0.61885571636196934     
  -2.3999999999999994E-003    0.59658318911959585     
  -2.0999999999999977E-003    0.51024538415449583     
  -1.7999999999999995E-003    0.33779740433336536     
  -1.4999999999999979E-003     5.5335946751779948E-002
  -1.1999999999999997E-003   -0.36083689388942225     
  -8.9999999999999976E-004   -0.93228608557133896     
  -5.9999999999999810E-004    -1.6740162408339119     
  -2.9999999999999992E-004    -2.5919842776945567     
   0.0000000000000000         -3.6792481027633461     
   3.0000000000000165E-004    -4.9115076175623287     
   5.9999999999999984E-004    -6.2439770839959712     
   9.0000000000000149E-004    -7.6086044484532955     
   1.2000000000000031E-003    -8.9144993031605662     
   1.5000000000000013E-003    -10.047342323361383     
   1.8000000000000030E-003    -10.874195123745512     
   2.1000000000000012E-003    -11.252072360057394     
   2.3999999999999994E-003    -11.033790613697430     
   2.7000000000000010E-003    -10.083424591404512     
   2.9999999999999992E-003    -8.2897930337909767     
   3.3000000000000008E-003    -5.5804462565731159     
   3.6000000000000025E-003    -1.9391521268245546     
   3.9000000000000007E-003     2.5840697334723686     
   4.2000000000000023E-003     7.8613681954396881     
   4.5000000000000005E-003     13.684616117615244     
   4.7999999999999987E-003     19.768505138325057     
   5.1000000000000004E-003     25.758445794536364     
   5.4000000000000020E-003     31.253574437954526     
   5.7000000000000037E-003     35.828895645345320     
   5.9999999999999984E-003     39.066787803321958     
   6.3000000000000000E-003     40.594822017105571     
   6.6000000000000017E-003     40.118370142811429     
   6.9000000000000034E-003     37.454441152261708     
   7.2000000000000015E-003     32.556984019985045     
   7.5000000000000032E-003     25.534439145366846     
   7.8000000000000014E-003     16.652805369254228     
   8.0999999999999996E-003     6.3255992138857113     
   8.4000000000000012E-003    -4.9074597381124176     
   8.7000000000000029E-003    -16.415534998735755     
   9.0000000000000011E-003    -27.524522829832595     
   9.2999999999999992E-003    -37.566867897945343     
   9.6000000000000009E-003    -45.928489772818217     
   9.8999999999999991E-003    -52.100639445263603     
   1.0200000000000001E-002    -55.722850911107024     
   1.0500000000000002E-002    -56.602649804653268     
   1.0800000000000004E-002    -54.729274864772378     
   1.1099999999999999E-002    -50.277359117781266     
   1.1400000000000000E-002    -43.583934882284304     
   1.1700000000000002E-002    -35.116409385589357     
   1.2000000000000004E-002    -25.434833592999137     
   1.2300000000000002E-002    -15.147007989280686     
   1.2600000000000000E-002    -4.8615713389718920     
   1.2900000000000002E-002     4.8585476802540946     
   1.3200000000000000E-002     13.530771266671028     
   1.3500000000000002E-002     20.777847317566202     
   1.3800000000000003E-002     26.351181071435782     
   1.4100000000000001E-002     30.127906850998695     
   1.4400000000000000E-002     32.111934720778969     
   1.4700000000000001E-002     32.419723573632346     
   1.4999999999999999E-002     31.252582613878278     
   1.5300000000000001E-002     28.879407944784223     
   1.5600000000000003E-002     25.605058728185096     
   1.5899999999999997E-002     21.743125968027730     
   1.6199999999999999E-002     17.598171279838112     
   1.6500000000000001E-002     13.438196220526162     
   1.6800000000000002E-002     9.4862585374481263     
   1.7100000000000004E-002     5.9138365024772375     
   1.7400000000000006E-002     2.8315005466761298     
   1.7700000000000000E-002    0.29781226355390039     
   1.8000000000000002E-002    -1.6753588864156894     
   1.8300000000000004E-002    -3.1177690021621571     
   1.8600000000000005E-002    -4.0837693240955888     
   1.8900000000000000E-002    -4.6451430372799756     
   1.9200000000000002E-002    -4.8828773568458068     
   1.9500000000000003E-002    -4.8735623440968014     
   1.9799999999999998E-002    -4.6881566134966022     
   2.0100000000000000E-002    -4.3870501607343657     
   2.0400000000000001E-002    -4.0171012966178559     
   2.0700000000000003E-002    -3.6158485496790385     
   2.0999999999999998E-002    -3.2098467429196815     
   2.1299999999999999E-002    -2.8167743756248123     
   2.1600000000000001E-002    -2.4512331553019222     
   2.1900000000000003E-002    -2.1213719906052724     
   2.2200000000000004E-002    -1.8331034239025217     
   2.2500000000000006E-002    -1.5917863896130764     
   2.2800000000000001E-002    -1.3960334108242503     
   2.3100000000000002E-002    -1.2446970981240308     
   2.3400000000000004E-002    -1.1334792413639305     
   2.3699999999999999E-002    -1.0519677435542993     
   2.4000000000000000E-002   -0.99056905829229824     
   2.4300000000000002E-002   -0.93719804581331390     
   2.4599999999999997E-002   -0.88016134768165155     
   2.4900000000000005E-002   -0.81282532455271606     
   2.5200000000000000E-002   -0.72894847604648416     
   2.5499999999999995E-002   -0.62849474135607319     
   2.5800000000000003E-002   -0.51712817106583253     
   2.6099999999999998E-002   -0.40285208946109974     
   2.6400000000000007E-002   -0.29835045437613045     
   2.6700000000000002E-002   -0.21486766716143674     
   2.6999999999999996E-002   -0.16273635692029922     
   2.7300000000000005E-002   -0.15140165449132761     
   2.7600000000000000E-002   -0.18273992900152147     
   2.7900000000000008E-002   -0.25453743414341040     
   2.8200000000000003E-002   -0.36276170707486805     
   2.8499999999999998E-002   -0.49660647039559880     
   2.8800000000000006E-002   -0.64534509339767798     
   2.9100000000000001E-002   -0.79790139393534587     
   2.9400000000000003E-002   -0.94326186414451152     
   2.9700000000000004E-002    -1.0741678503593892     
   3.0000000000000006E-002    -1.1830600530871118     
   3.0300000000000001E-002    -1.2655884061170366     
   3.0600000000000002E-002    -1.3198367393060730     
   3.0900000000000004E-002    -1.3394919670717227     
   3.1199999999999999E-002    -1.3198119438528175     
   3.1500000000000007E-002    -1.2560495172997952     
   3.1800000000000002E-002    -1.1389414103416475     
   3.2099999999999997E-002   -0.96175438426933402     
   3.2400000000000005E-002   -0.71861243438351585     
   3.2700000000000000E-002   -0.40721336109241751     
   3.3000000000000002E-002    -3.1366325898445221E-002
   3.3300000000000003E-002    0.40048074839763326     
   3.3599999999999998E-002    0.87093210460666792     
   3.3900000000000000E-002     1.3554346597896436     
   3.4200000000000001E-002     1.8285802651133634     
   3.4500000000000003E-002     2.2581241189889636     
   3.4799999999999998E-002     2.6142242022690043     
   3.5099999999999999E-002     2.8735902383686351     
   3.5400000000000001E-002     3.0156066495480536     
   3.5699999999999996E-002     3.0302507955509337     
   3.6000000000000004E-002     2.9164879397365575     
   3.6299999999999999E-002     2.6816482613345722     
   3.6600000000000008E-002     2.3424656451864800     
   3.6900000000000002E-002     1.9184885074748754     
   3.7199999999999997E-002     1.4336103237905000     
   3.7500000000000006E-002    0.91350174181684374     
   3.7800000000000000E-002    0.38026088564472132     
   3.8100000000000009E-002   -0.14574331098669957     
   3.8400000000000004E-002   -0.64645374009694878     
   3.8699999999999998E-002    -1.1083692343388603     
   3.9000000000000007E-002    -1.5198123496945766     
   3.9300000000000002E-002    -1.8703419020906298     
   3.9600000000000003E-002    -2.1521008072259753     
   3.9900000000000005E-002    -2.3563175263560256     
   4.0200000000000000E-002    -2.4758329455868133     
   4.0500000000000001E-002    -2.5053012435320920     
   4.0800000000000003E-002    -2.4392361702746070     
   4.1100000000000005E-002    -2.2790920791550393     
   4.1399999999999999E-002    -2.0289697697511335     
   4.1700000000000008E-002    -1.6961989444627665     
   4.2000000000000003E-002    -1.2971187861765945     
   4.2299999999999997E-002   -0.84958362785846531     
   4.2600000000000006E-002   -0.37559518306524697     
   4.2900000000000001E-002     9.8327346451149947E-002
   4.3200000000000002E-002    0.54846006776609801     
   4.3500000000000004E-002    0.95131498823928617     
   4.3799999999999999E-002     1.2853245768866026     
   4.4100000000000000E-002     1.5355167429372205     
   4.4400000000000002E-002     1.6895314499798721     
   4.4700000000000004E-002     1.7420395659090155     
   4.4999999999999998E-002     1.6936146066030602     
   4.5300000000000000E-002     1.5463103097100159     
   4.5600000000000002E-002     1.3116678034110869     
   4.5899999999999996E-002     1.0036935832212632     
   4.6200000000000005E-002    0.63801747717415591     
   4.6500000000000000E-002    0.23856397018767819     
   4.6799999999999994E-002   -0.17201738126179048     
   4.7100000000000003E-002   -0.56696415119279764     
   4.7399999999999998E-002   -0.91625613235698922     
   4.7700000000000006E-002    -1.1951259407474197     
   4.8000000000000001E-002    -1.3765968121018932     
   4.8300000000000010E-002    -1.4404330290837311     
   4.8600000000000004E-002    -1.3746982847219733     
   4.8899999999999999E-002    -1.1743059186403855     
   4.9200000000000008E-002   -0.84711504171165097     
   4.9500000000000002E-002   -0.41253870798539216     
   4.9800000000000011E-002     9.9801570751565552E-002
   5.0100000000000006E-002    0.64861899806578804     
   5.0400000000000000E-002     1.1874134572620847     
   5.0700000000000009E-002     1.6684473796102512     
   5.1000000000000004E-002     2.0434260419827330     
   5.1299999999999998E-002     2.2730610426961149     
   5.1600000000000007E-002     2.3321662006320625     
   5.1900000000000002E-002     2.2069249207006649     
   5.2200000000000010E-002     1.9030618714201057     
   5.2500000000000005E-002     1.4438583886790906     
   5.2800000000000000E-002    0.86734390485817747     
   5.3099999999999994E-002    0.22529274304668734     
   5.3400000000000003E-002   -0.42646151852273123     
   5.3699999999999998E-002    -1.0284842274022898     
   5.4000000000000006E-002    -1.5266736779307584     
   5.4300000000000001E-002    -1.8800461335052359     
   5.4599999999999996E-002    -2.0595054675043993     
   5.4900000000000004E-002    -2.0554690411593182     
   5.5199999999999999E-002    -1.8791978408099033     
   5.5499999999999994E-002    -1.5559036775602335     
   5.5800000000000002E-002    -1.1258969343229950     
   5.6099999999999997E-002   -0.64339232714782135     
   5.6400000000000006E-002   -0.16271226278990009     
   5.6700000000000000E-002    0.26296776457535026     
   5.6999999999999995E-002    0.58509767061981455     
   5.7300000000000004E-002    0.76935857601449587     
   5.7599999999999998E-002    0.79599785906290732     
   5.7900000000000007E-002    0.66438663113617047     
   5.8200000000000002E-002    0.38985741224876769     
   5.8499999999999996E-002     2.3077283480298339E-003
   5.8800000000000005E-002   -0.45128414055316213     
   5.9100000000000000E-002   -0.92080277296131463     
   5.9400000000000008E-002    -1.3535149113747658     
   5.9700000000000003E-002    -1.6961208604488938     
   6.0000000000000012E-002    -1.9074869183031185     
   6.0300000000000006E-002    -1.9597563773046653     
   6.0600000000000001E-002    -1.8384293346899139     
   6.0900000000000010E-002    -1.5479801919193545     
   6.1200000000000004E-002    -1.1103229542906923     
   6.1500000000000013E-002   -0.55978769186617838     
   6.1800000000000008E-002     5.6546956028434951E-002
   6.2100000000000002E-002    0.68823623733637307     
   6.2399999999999997E-002     1.2832274454956676     
   6.2700000000000006E-002     1.7934123305254550     
   6.3000000000000000E-002     2.1841073071881798     
   6.3300000000000009E-002     2.4283251804143862     
   6.3600000000000004E-002     2.5155506179449745     
   6.3899999999999998E-002     2.4516160534674918     
   6.4199999999999993E-002     2.2501516387372731     
   6.4500000000000002E-002     1.9381113093996627     
   6.4800000000000010E-002     1.5472949779457676     
   6.5100000000000005E-002     1.1112227469246376     
   6.5400000000000000E-002    0.66429531791062091     
   6.5700000000000008E-002    0.23393885927605099     
   6.5999999999999989E-002   -0.15642321052799310     
   6.6299999999999998E-002   -0.49042400734869779     
   6.6600000000000006E-002   -0.75865429723043099     
   6.6900000000000001E-002   -0.95836895842898684     
   6.7199999999999996E-002    -1.0895079392538329     
   6.7500000000000004E-002    -1.1570050737725168     
   6.7800000000000013E-002    -1.1669247173581985     
   6.8099999999999994E-002    -1.1248736405323374     
   6.8400000000000002E-002    -1.0398513101954572     
   6.8700000000000011E-002   -0.91782248237584629     
   6.8999999999999992E-002   -0.76585924818705198     
   6.9300000000000000E-002   -0.59322905702282602     
   6.9600000000000009E-002   -0.40586608773387739     
   6.9900000000000004E-002   -0.21375760520665010     
   7.0199999999999999E-002    -2.5742546149939864E-002
   7.0500000000000007E-002    0.15072803198268322     
   7.0800000000000016E-002    0.30639871993201739     
   7.1099999999999997E-002    0.43589496685981605     
   7.1400000000000005E-002    0.53401184185099693     
   7.1700000000000000E-002    0.59814125425300713     
   7.1999999999999995E-002    0.62870931766464500     
   7.2300000000000003E-002    0.62721896319760206     
   7.2600000000000012E-002    0.59563493875986706     
   7.2900000000000006E-002    0.53998667140423184     
   7.3200000000000001E-002    0.46366250637858913     
   7.3499999999999996E-002    0.37025407057528797     
   7.3800000000000004E-002    0.26555836274493227     
   7.4099999999999999E-002    0.15062688334010360     
   7.4400000000000008E-002     2.9784213846966567E-002
   7.4700000000000003E-002    -9.3092702576445030E-002
   7.5000000000000011E-002   -0.21650531946366755     
   7.5299999999999992E-002   -0.33444291443229779     
   7.5600000000000001E-002   -0.44330710290706232     
   7.5900000000000009E-002   -0.53718429944971213     
   7.6200000000000004E-002   -0.61024320283845179     
   7.6499999999999999E-002   -0.65836429764437698     
   7.6800000000000007E-002   -0.67609250716560632     
   7.7099999999999988E-002   -0.66257971691283213     
   7.7399999999999997E-002   -0.61727929269045101     
   7.7700000000000005E-002   -0.54179728165506424     
   7.8000000000000014E-002   -0.44026270617894420     
   7.8299999999999995E-002   -0.31990310628964530     
   7.8600000000000003E-002   -0.18689945386263135     
   7.8900000000000012E-002    -4.7315783910491849E-002
   7.9199999999999993E-002     8.9739516616349935E-002
   7.9500000000000001E-002    0.21960832236295222     
   7.9800000000000010E-002    0.33777538031202520     
   8.0100000000000018E-002    0.44048929331691594     
   8.0399999999999999E-002    0.52675241372479731     
   8.0700000000000008E-002    0.59361207644242053     
   8.1000000000000003E-002    0.64174008541142613     
   8.1299999999999997E-002    0.66991794287633899     
   8.1600000000000006E-002    0.67700219333028822     
   8.1900000000000014E-002    0.66283118897536397     
   8.2199999999999995E-002    0.62509626310545696     
   8.2500000000000004E-002    0.56427955769414706     
   8.2799999999999999E-002    0.48057663558888714     
   8.3100000000000007E-002    0.37503671735482430     
   8.3400000000000002E-002    0.25112459120390762     
   8.3700000000000011E-002    0.11459265671308660     
   8.4000000000000005E-002    -2.9307460552713355E-002
   8.4300000000000000E-002   -0.17350085129038154     
   8.4599999999999995E-002   -0.30875215016936997     
   8.4900000000000003E-002   -0.42967677228339995     
   8.5199999999999998E-002   -0.52947735922969663     
   8.5500000000000007E-002   -0.60366434013966253     
   8.5800000000000001E-002   -0.65066999363944145     
   8.6100000000000010E-002   -0.66954988413583705     
   8.6399999999999991E-002   -0.66391295365950864     
   8.6699999999999999E-002   -0.63556391165336701     
   8.7000000000000008E-002   -0.58992123756889570     
   8.7300000000000003E-002   -0.53241187471951013     
   8.7599999999999997E-002   -0.46586105347698942     
   8.7900000000000006E-002   -0.39556244116852041     
   8.8200000000000014E-002   -0.32445314608389803     
   8.8499999999999995E-002   -0.25482732120529739     
   8.8800000000000004E-002   -0.18754188761653151     
   8.9100000000000013E-002   -0.12410078226694214     
   8.9399999999999993E-002    -6.5930567826510744E-002
   8.9700000000000002E-002    -1.2386121804491872E-002
   9.0000000000000011E-002     3.5272765997793235E-002
   9.0299999999999991E-002     7.6860904880409905E-002
   9.0600000000000000E-002    0.11070782717863575     
   9.0900000000000009E-002    0.13824547860472794     
   9.1200000000000017E-002    0.15952947774523341     
   9.1499999999999998E-002    0.17305143220650104     
   9.1800000000000007E-002    0.18190701352461575     
   9.2100000000000001E-002    0.18613442827849999     
   9.2399999999999996E-002    0.18720579198299658     
   9.2700000000000005E-002    0.18628941528101015     
   9.3000000000000013E-002    0.18383371881942065     
   9.3300000000000008E-002    0.18137842468295953     
   9.3600000000000003E-002    0.17729976823516783     
   9.3899999999999997E-002    0.17313416350757863     
   9.4200000000000006E-002    0.16828019963563173     
   9.4500000000000001E-002    0.16138304814222187     
   9.4800000000000009E-002    0.15364511352814511     
   9.5100000000000004E-002    0.14535084406319129     
   9.5399999999999999E-002    0.13702106513373821     
   9.5699999999999993E-002    0.12810936605996709     
   9.6000000000000002E-002    0.12145885114634879     
   9.6300000000000011E-002    0.11701066080696815     
   9.6600000000000005E-002    0.11422655764466022     
   9.6900000000000000E-002    0.11412877621861718     
   9.7200000000000009E-002    0.11522031607325434     
   9.7499999999999989E-002    0.11745133281883241     
   9.7799999999999998E-002    0.11830964714155053     
   9.8100000000000007E-002    0.11807625768919419     
   9.8400000000000015E-002    0.11730653074070770     
   9.8699999999999996E-002    0.11460127706605604     
   9.9000000000000005E-002    0.11339268857738073     
   9.9300000000000013E-002    0.11556729699577645     
   9.9599999999999994E-002    0.12377033410611962     
   9.9900000000000003E-002    0.14118067953507277     
  0.10020000000000001         0.17061501783159216     
  0.10049999999999999         0.21380290442331765     
  0.10080000000000000         0.26965570517760923     
  0.10110000000000001         0.33734777654643622     
  0.10140000000000000         0.41277897461612517     
  0.10170000000000000         0.49136006954896150     
  0.10200000000000001         0.56569421432046962     
  0.10230000000000002         0.62923336185146572     
  0.10260000000000000         0.67576331067313056     
  0.10290000000000001         0.69699889594059961     
  0.10320000000000000         0.68992519549608711     
  0.10350000000000001         0.65079409045513392     
  0.10380000000000000         0.57710236454732822     
  0.10410000000000001         0.47036817787219942     
  0.10440000000000001         0.33166155302126971     
  0.10470000000000000         0.16640026908850200     
  0.10500000000000000         -2.2194676164140996E-002
  0.10530000000000000        -0.22730694769716420     
  0.10560000000000000        -0.44106790536632817     
  0.10590000000000001        -0.65667671133730821     
  0.10620000000000000        -0.86591357214903064     
  0.10650000000000001         -1.0599107769485299     
  0.10679999999999999         -1.2296069891946524     
  0.10710000000000000         -1.3687927757904856     
  0.10740000000000001         -1.4679834880121077     
  0.10770000000000000         -1.5217109957309001     
  0.10800000000000000         -1.5273488798738333     
  0.10830000000000001         -1.4804081954293349     
  0.10859999999999999         -1.3841333424241140     
  0.10890000000000000         -1.2406971485905485     
  0.10920000000000001         -1.0573614862386207     
  0.10950000000000001        -0.84451347801996357     
  0.10979999999999999        -0.61037981663930585     
  0.11009999999999999        -0.37084540818121076     
  0.11040000000000001        -0.13640749488802523     
  0.11070000000000001          8.1210181322684150E-002
  0.11100000000000000         0.27015963265380827     
  0.11130000000000000         0.42441350329584004     
  0.11160000000000002         0.53771519798133804     
  0.11190000000000001         0.60881233371051668     
  0.11220000000000001         0.63914352819186915     
  0.11250000000000000         0.63247537775075802     
  0.11280000000000000         0.59429955634971654     
  0.11309999999999999         0.53295099871719964     
  0.11340000000000001         0.45704138395394001     
  0.11369999999999998         0.37316703891189917     
  0.11400000000000000         0.29125034882365891     
  0.11430000000000000         0.21669791693039839     
  0.11460000000000002         0.15485478976448880     
  0.11489999999999999         0.10995414881153788     
  0.11520000000000001          8.2432143617097789E-002
  0.11550000000000001          7.5164482220401729E-002
  0.11580000000000000          8.4680386155856074E-002
  0.11609999999999999         0.10934323852499646     
  0.11640000000000002         0.14717921660691374     
  0.11670000000000001         0.19247208594437673     
  0.11700000000000001         0.24151623320663718     
  0.11730000000000000         0.29094860041501747     
  0.11760000000000000         0.33623471950441614     
  0.11789999999999999         0.37394064767384544     
  0.11820000000000001         0.40273705232784635     
  0.11850000000000001         0.42038115969522349     
  0.11880000000000000         0.42661729565471784     
  0.11910000000000000         0.42223364222389520     
  0.11940000000000002         0.40755060417963407     
  0.11970000000000001         0.38649201489395846     
  0.12000000000000001         0.35764008848591367     
  0.12030000000000000         0.32363137681673393     
  0.12060000000000000         0.28798309037065345     
  0.12089999999999999         0.24779851792062227     
  0.12119999999999999         0.20544245884364293     
  0.12150000000000001         0.16064025493929501     
  0.12180000000000001         0.11284868437924075     
  0.12210000000000000          6.2256477817319224E-002
  0.12239999999999999          9.1909029447330235E-003
  0.12270000000000002         -4.3901641161612562E-002
  0.12300000000000001         -9.5569767429301067E-002
  0.12330000000000001        -0.14242070961828976     
  0.12360000000000000        -0.18098738846623469     
  0.12390000000000000        -0.20645509722431571     
  0.12419999999999999        -0.21695171359881413     
  0.12450000000000001        -0.20933103620977719     
  0.12480000000000001        -0.17992702177238767     
  0.12509999999999999        -0.13307327069172775     
  0.12540000000000001         -6.7165523957579631E-002
  0.12570000000000003          1.4575183422985560E-002
  0.12600000000000000         0.10519807813907212     
  0.12630000000000002         0.20245631093692332     
  0.12659999999999999         0.29798710427615765     
  0.12690000000000001         0.38810706245651433     
  0.12719999999999998         0.46675315629074315     
  0.12750000000000000         0.52762663512791119     
  0.12780000000000002         0.56991380614723730     
  0.12809999999999999         0.58766162563619795     
  0.12840000000000001         0.57869863677115518     
  0.12869999999999998         0.54237193026964103     
  0.12900000000000000         0.47683739802049752     
  0.12930000000000003         0.38087874764345137     
  0.12959999999999999         0.25669780452167484     
  0.12990000000000002         0.10612021423070535     
  0.13019999999999998         -6.8404063699942119E-002
  0.13050000000000000        -0.25995832746382602     
  0.13080000000000003        -0.46328228831928059     
  0.13109999999999999        -0.66833466466517899     
  0.13140000000000002        -0.86574864615512470     
  0.13169999999999998         -1.0467538861181052     
  0.13200000000000001         -1.1980072291486441     
  0.13229999999999997         -1.3127465282708537     
  0.13260000000000000         -1.3829848802791411     
  0.13290000000000002         -1.4021552838182536     
  0.13319999999999999         -1.3695365226770437     
  0.13350000000000001         -1.2846815620260355     
  0.13380000000000003         -1.1519615680990560     
  0.13410000000000000        -0.97726434732704137     
  0.13440000000000002        -0.76910430402704233     
  0.13469999999999999        -0.53685289770760181     
  0.13500000000000001        -0.29182404364704700     
  0.13529999999999998         -4.3376513017913169E-002
  0.13560000000000000         0.19815361544756158     
  0.13590000000000002         0.42246586189681656     
  0.13619999999999999         0.62448352734803658     
  0.13650000000000001         0.79518854823733753     
  0.13680000000000003         0.93076908830828786     
  0.13710000000000000          1.0291309383563225     
  0.13740000000000002          1.0853422908605010     
  0.13769999999999999          1.1017651586805828     
  0.13800000000000001          1.0773179559367134     
  0.13829999999999998          1.0138815668068273     
  0.13860000000000000         0.91595810893055829     
  0.13890000000000002         0.78485989778584009     
  0.13919999999999999         0.62715196777239146     
  0.13950000000000001         0.44729957106468626     
  0.13979999999999998         0.25052040887208865     
  0.14010000000000000          4.2372957060567706E-002
  0.14040000000000002        -0.17080283200796753     
  0.14069999999999999        -0.38407337756367604     
  0.14100000000000001        -0.59188002492670577     
  0.14130000000000004        -0.78784054713923635     
  0.14160000000000000        -0.96783578639276580     
  0.14189999999999997         -1.1238789586918667     
  0.14219999999999999         -1.2510513099166209     
  0.14250000000000002         -1.3434188400318414     
  0.14279999999999998         -1.3922275340544483     
  0.14310000000000000         -1.3947098290986002     
  0.14339999999999997         -1.3432558809461717     
  0.14369999999999999         -1.2348604233980927     
  0.14400000000000002         -1.0701973465660088     
  0.14429999999999998        -0.84820419766541411     
  0.14460000000000001        -0.57580328133784797     
  0.14490000000000003        -0.26123580401741830     
  0.14520000000000000          8.3862796657202310E-002
  0.14550000000000002         0.44405144568020610     
  0.14579999999999999         0.80236554351869505     
  0.14610000000000001          1.1414552956194401     
  0.14640000000000003          1.4429205692842240     
  0.14670000000000000          1.6917184634353346     
  0.14699999999999996          1.8758373308139313     
  0.14729999999999999          1.9844503453073050     
  0.14760000000000001          2.0167834809870744     
  0.14789999999999998          1.9724844744052070     
  0.14820000000000000          1.8569304990020274     