  -1.4999999999999999E-002     0.0000000000000000     
  -1.4700000000000000E-002     0.0000000000000000     
  -1.4400000000000000E-002     0.0000000000000000     
  -1.4100000000000000E-002     0.0000000000000000     
  -1.3800000000000000E-002     0.0000000000000000     
  -1.3500000000000000E-002     0.0000000000000000     
  -1.3200000000000000E-002     0.0000000000000000     
  -1.2899999999999998E-002     0.0000000000000000     
  -1.2600000000000000E-002     0.0000000000000000     
  -1.2299999999999998E-002     0.0000000000000000     
  -1.2000000000000000E-002     0.0000000000000000     
  -1.1699999999999999E-002     0.0000000000000000     
  -1.1399999999999999E-002     0.0000000000000000     
  -1.1099999999999999E-002     0.0000000000000000     
  -1.0799999999999999E-002     0.0000000000000000     
  -1.0499999999999999E-002     0.0000000000000000     
  -1.0199999999999999E-002     0.0000000000000000     
  -9.8999999999999991E-003     0.0000000000000000     
  -9.5999999999999992E-003     0.0000000000000000     
  -9.2999999999999992E-003     0.0000000000000000     
  -8.9999999999999993E-003     0.0000000000000000     
  -8.6999999999999994E-003     0.0000000000000000     
  -8.3999999999999995E-003     0.0000000000000000     
  -8.0999999999999996E-003     0.0000000000000000     
  -7.7999999999999988E-003     0.0000000000000000     
  -7.4999999999999997E-003     0.0000000000000000     
  -7.1999999999999998E-003     0.0000000000000000     
  -6.8999999999999981E-003     0.0000000000000000     
  -6.5999999999999982E-003     0.0000000000000000     
  -6.3000000000000000E-003     0.0000000000000000     
  -6.0000000000000001E-003     0.0000000000000000     
  -5.6999999999999985E-003     0.0000000000000000     
  -5.3999999999999986E-003     0.0000000000000000     
  -5.1000000000000004E-003     0.0000000000000000     
  -4.7999999999999987E-003     0.0000000000000000     
  -4.5000000000000005E-003     0.0000000000000000     
  -4.1999999999999989E-003     0.0000000000000000     
  -3.8999999999999990E-003     0.0000000000000000     
  -3.5999999999999990E-003     0.0000000000000000     
  -3.2999999999999991E-003     0.0000000000000000     
  -2.9999999999999992E-003     0.0000000000000000     
  -2.6999999999999993E-003     0.0000000000000000     
  -2.3999999999999994E-003     0.0000000000000000     
  -2.0999999999999977E-003     0.0000000000000000     
  -1.7999999999999995E-003     0.0000000000000000     
  -1.4999999999999979E-003     0.0000000000000000     
  -1.1999999999999997E-003     0.0000000000000000     
  -8.9999999999999976E-004     0.0000000000000000     
  -5.9999999999999810E-004     0.0000000000000000     
  -2.9999999999999992E-004     0.0000000000000000     
   0.0000000000000000          0.0000000000000000     
   3.0000000000000165E-004     0.0000000000000000     
   5.9999999999999984E-004     0.0000000000000000     
   9.0000000000000149E-004     0.0000000000000000     
   1.2000000000000031E-003     0.0000000000000000     
   1.5000000000000013E-003     0.0000000000000000     
   1.8000000000000030E-003     0.0000000000000000     
   2.1000000000000012E-003     0.0000000000000000     
   2.3999999999999994E-003     0.0000000000000000     
   2.7000000000000010E-003     0.0000000000000000     
   2.9999999999999992E-003     0.0000000000000000     
   3.3000000000000008E-003     0.0000000000000000     
   3.6000000000000025E-003     0.0000000000000000     
   3.9000000000000007E-003     0.0000000000000000     
   4.2000000000000023E-003     0.0000000000000000     
   4.5000000000000005E-003     0.0000000000000000     
   4.7999999999999987E-003     0.0000000000000000     
   5.1000000000000004E-003     0.0000000000000000     
   5.4000000000000020E-003     0.0000000000000000     
   5.7000000000000037E-003     0.0000000000000000     
   5.9999999999999984E-003     0.0000000000000000     
   6.3000000000000000E-003     0.0000000000000000     
   6.6000000000000017E-003     0.0000000000000000     
   6.9000000000000034E-003     0.0000000000000000     
   7.2000000000000015E-003     0.0000000000000000     
   7.5000000000000032E-003     0.0000000000000000     
   7.8000000000000014E-003     0.0000000000000000     
   8.0999999999999996E-003     0.0000000000000000     
   8.4000000000000012E-003     0.0000000000000000     
   8.7000000000000029E-003     0.0000000000000000     
   9.0000000000000011E-003     0.0000000000000000     
   9.2999999999999992E-003     0.0000000000000000     
   9.6000000000000009E-003     0.0000000000000000     
   9.8999999999999991E-003     0.0000000000000000     
   1.0200000000000001E-002     0.0000000000000000     
   1.0500000000000002E-002     2.3273431680291575E-042
   1.0800000000000004E-002    -4.9620924796628719E-041
   1.1099999999999999E-002    -2.2978025546169976E-038
   1.1400000000000000E-002    -1.3824038669200838E-037
   1.1700000000000002E-002     6.2870971404013400E-036
   1.2000000000000004E-002     4.7256864376832238E-035
   1.2300000000000002E-002    -3.8032660998870648E-034
   1.2600000000000000E-002    -2.5215429619284915E-033
   1.2900000000000002E-002     1.6119468180591859E-032
   1.3200000000000000E-002     3.3104682698522342E-032
   1.3500000000000002E-002    -4.9267756701320341E-031
   1.3800000000000003E-002     8.1233191788669241E-031
   1.4100000000000001E-002     7.0830583671470775E-030
   1.4400000000000000E-002    -4.4046070859011901E-029
   1.4700000000000001E-002     7.1063774459900491E-029
   1.4999999999999999E-002     4.1600718178281537E-028
   1.5300000000000001E-002    -3.2302986137217566E-027
   1.5600000000000003E-002     9.2215400872313163E-027
   1.5899999999999997E-002     3.9834613975556823E-027
   1.6199999999999999E-002    -1.4257840410022413E-025
   1.6500000000000001E-002     5.6205706705194364E-025
   1.6800000000000002E-002    -6.5065744629877517E-025
   1.7100000000000004E-002    -3.8123817617820695E-024
   1.7400000000000006E-002     2.3981710675858602E-023
   1.7700000000000000E-002    -6.4739079240248835E-023
   1.8000000000000002E-002     3.8786987659110056E-023
   1.8300000000000004E-002     4.8123586088772055E-022
   1.8600000000000005E-002    -2.5780069410700934E-021
   1.8900000000000000E-002     7.2621104658680652E-021
   1.9200000000000002E-002    -9.9769888194647925E-021
   1.9500000000000003E-002    -1.5423353682505202E-020
   1.9799999999999998E-002     1.3164044906110866E-019
   2.0100000000000000E-002    -3.2082397232866746E-019
   2.0400000000000001E-002    -4.0643686643808229E-019
   2.0700000000000003E-002     8.0643939565775920E-018
   2.0999999999999998E-002    -4.8033478674117482E-017
   2.1299999999999999E-002     2.0394589957171123E-016
   2.1600000000000001E-002    -6.7012990241362301E-016
   2.1900000000000003E-002     1.4968871871449288E-015
   2.2200000000000004E-002     1.3229715244148025E-016
   2.2500000000000006E-002    -2.5139215137582305E-014
   2.2800000000000001E-002     1.7445386505750264E-013
   2.3100000000000002E-002    -8.0876158012063733E-013
   2.3400000000000004E-002     2.8181801600036046E-012
   2.3699999999999999E-002    -7.0372005389685419E-012
   2.4000000000000000E-002     8.8899083657932155E-012
   2.4300000000000002E-002     1.7883865795310154E-011
   2.4599999999999997E-002    -1.3306504913268625E-010
   2.4900000000000005E-002     3.3137351540250408E-010
   2.5200000000000000E-002    -1.6929988377819429E-010
   2.5499999999999995E-002    -1.4208776872152332E-009
   2.5800000000000003E-002     3.9596241237010230E-009
   2.6099999999999998E-002    -2.7160269058763279E-010
   2.6400000000000007E-002    -1.6885468374865931E-008
   2.6700000000000002E-002     1.8909140242524732E-008
   2.6999999999999996E-002     4.8156626189811691E-008
   2.7300000000000005E-002    -8.8108727767942001E-008
   2.7600000000000000E-002    -1.5231338666003607E-007
   2.7900000000000008E-002     2.2625745993184758E-007
   2.8200000000000003E-002     4.8880016331885628E-007
   2.8499999999999998E-002    -3.6288693419466986E-007
   2.8800000000000006E-002    -1.4562645718779455E-006
   2.9100000000000001E-002     1.3869898760305884E-007
   2.9400000000000003E-002     5.4788591751106073E-006
   2.9700000000000004E-002     1.1349655473751639E-005
   3.0000000000000006E-002     1.4957173619907377E-005
   3.0300000000000001E-002     1.9920279347444735E-005
   3.0600000000000002E-002     3.3817385527581944E-005
   3.0900000000000004E-002     5.9933365134833322E-005
   3.1199999999999999E-002     9.5949157236351786E-005
   3.1500000000000007E-002     1.4328787737958467E-004
   3.1800000000000002E-002     2.1422468993798925E-004
   3.2099999999999997E-002     3.2601264098218322E-004
   3.2400000000000005E-002     4.9168143513500225E-004
   3.2700000000000000E-002     7.2343713539747931E-004
   3.3000000000000002E-002     1.0451603872365762E-003
   3.3300000000000003E-002     1.4958377831086516E-003
   3.3599999999999998E-002     2.1196319685743946E-003
   3.3900000000000000E-002     2.9598644050811557E-003
   3.4200000000000001E-002     4.0672822808947278E-003
   3.4500000000000003E-002     5.5085631063649197E-003
   3.4799999999999998E-002     7.3597887696635386E-003
   3.5099999999999999E-002     9.6920593927730374E-003
   3.5400000000000001E-002     1.2566238379048775E-002
   3.5699999999999996E-002     1.6035757287664914E-002
   3.6000000000000004E-002     2.0140193429343912E-002
   3.6299999999999999E-002     2.4885647792251445E-002
   3.6600000000000008E-002     3.0225143921576512E-002
   3.6900000000000002E-002     3.6048949846799697E-002
   3.7199999999999997E-002     4.2181596268869526E-002
   3.7500000000000006E-002     4.8369361303491891E-002
   3.7800000000000000E-002     5.4268120018745938E-002
   3.8100000000000009E-002     5.9441299118456817E-002
   3.8400000000000004E-002     6.3373735536647532E-002
   3.8699999999999998E-002     6.5502416184690437E-002
   3.9000000000000007E-002     6.5241291421289122E-002
   3.9300000000000002E-002     6.2016844623257739E-002
   3.9600000000000003E-002     5.5328174478708185E-002
   3.9900000000000005E-002     4.4800323781576064E-002
   4.0200000000000000E-002     3.0252155877228258E-002
   4.0500000000000001E-002     1.1750961047378021E-002
   4.0800000000000003E-002    -1.0347573110863904E-002
   4.1100000000000005E-002    -3.5374276006833572E-002
   4.1399999999999999E-002    -6.2335759059847451E-002
   4.1700000000000008E-002    -8.9939112611872873E-002
   4.2000000000000003E-002   -0.11665343104021766     
   4.2299999999999997E-002   -0.14079969726032798     
   4.2600000000000006E-002   -0.16066328175765474     
   4.2900000000000001E-002   -0.17461752759086202     
   4.3200000000000002E-002   -0.18127252515126935     
   4.3500000000000004E-002   -0.17961364603636210     
   4.3799999999999999E-002   -0.16911294532881321     
   4.4100000000000000E-002   -0.14981631604374779     
   4.4400000000000002E-002   -0.12240782540665618     
   4.4700000000000004E-002    -8.8181728609855251E-002
   4.4999999999999998E-002    -4.8997321439623903E-002
   4.5300000000000000E-002    -7.1960407139355070E-003
   4.5600000000000002E-002     3.4557969135540087E-002
   4.5899999999999996E-002     7.3457740530832732E-002
   4.6200000000000005E-002    0.10675095206182077     
   4.6500000000000000E-002    0.13192688783287385     
   4.6799999999999994E-002    0.14688477120583013     
   4.7100000000000003E-002    0.15010842956809484     
   4.7399999999999998E-002    0.14078619129283032     
   4.7700000000000006E-002    0.11886705122046290     
   4.8000000000000001E-002     8.5072127914016749E-002
   4.8300000000000010E-002     4.0873208300428121E-002
   4.8600000000000004E-002    -1.1596146632986717E-002
   4.8899999999999999E-002    -6.9659758224277807E-002
   4.9200000000000008E-002   -0.13022392201725169     
   4.9500000000000002E-002   -0.19000548270414838     
   4.9800000000000011E-002   -0.24569307722909856     
   5.0100000000000006E-002   -0.29410054817085801     
   5.0400000000000000E-002   -0.33237995974243306     
   5.0700000000000009E-002   -0.35815886019332410     
   5.1000000000000004E-002   -0.36972308943176202     
   5.1299999999999998E-002   -0.36605909448239560     
   5.1600000000000007E-002   -0.34687355364882377     
   5.1900000000000002E-002   -0.31268816987337106     
   5.2200000000000010E-002   -0.26475957496396851     
   5.2500000000000005E-002   -0.20501136370552173     
   5.2800000000000000E-002   -0.13593163260160396     
   5.3099999999999994E-002    -6.0329541502210496E-002
   5.3400000000000003E-002     1.8715351543917288E-002
   5.3699999999999998E-002     9.8039153664676110E-002
   5.4000000000000006E-002    0.17465888789337325     
   5.4300000000000001E-002    0.24584411824758773     
   5.4599999999999996E-002    0.30928788182345868     
   5.4900000000000004E-002    0.36317959030956087     
   5.5199999999999999E-002    0.40618353962835169     
   5.5499999999999994E-002    0.43756633079391222     
   5.5800000000000002E-002    0.45710324601248808     
   5.6099999999999997E-002    0.46494434242747207     
   5.6400000000000006E-002    0.46161673548458804     
   5.6700000000000000E-002    0.44790274880509306     
   5.6999999999999995E-002    0.42474144693358173     
   5.7300000000000004E-002    0.39316600029558130     
   5.7599999999999998E-002    0.35420135361569294     
   5.7900000000000007E-002    0.30889127290284363     
   5.8200000000000002E-002    0.25830047154825320     
   5.8499999999999996E-002    0.20351142432578678     
   5.8800000000000005E-002    0.14570503813706193     
   5.9100000000000000E-002     8.6205173075658476E-002
   5.9400000000000008E-002     2.6518316773335340E-002
   5.9700000000000003E-002    -3.1567701233637432E-002
   6.0000000000000012E-002    -8.5991710728949608E-002
   6.0300000000000006E-002   -0.13446756975656152     
   6.0600000000000001E-002   -0.17450440219600807     
   6.0900000000000010E-002   -0.20353223352752312     
   6.1200000000000004E-002   -0.21906833246935115     
   6.1500000000000013E-002   -0.21885937719643425     
   6.1800000000000008E-002   -0.20112511285126694     
   6.2100000000000002E-002   -0.16481992898665843     
   6.2399999999999997E-002   -0.10977712494816649     
   6.2700000000000006E-002    -3.6868447720031686E-002
   6.3000000000000000E-002     5.1861979696195479E-002
   6.3300000000000009E-002    0.15315321328352249     
   6.3600000000000004E-002    0.26257111513862397     
   6.3899999999999998E-002    0.37471588464049849     
   6.4199999999999993E-002    0.48344069230085729     
   6.4500000000000002E-002    0.58212703006803257     
   6.4800000000000010E-002    0.66409805380389919     
   6.5100000000000005E-002    0.72302864867010808     
   6.5400000000000000E-002    0.75335417013747308     
   6.5700000000000008E-002    0.75069056551698710     
   6.5999999999999989E-002    0.71215052321026329     
   6.6299999999999998E-002    0.63653923114253574     
   6.6600000000000006E-002    0.52457703723060545     
   6.6900000000000001E-002    0.37893732614226988     
   6.7199999999999996E-002    0.20415993078178338     
   6.7500000000000004E-002     6.4497064370889305E-003
   6.7800000000000013E-002   -0.20667293140933302     
   6.8099999999999994E-002   -0.42659762237122911     
   6.8400000000000002E-002   -0.64410967418640086     
   6.8700000000000011E-002   -0.84988961581048883     
   6.8999999999999992E-002    -1.0349063305961568     
   6.9300000000000000E-002    -1.1909589556595934     
   6.9600000000000009E-002    -1.3109986343658695     
   6.9900000000000004E-002    -1.3894472076020685     
   7.0199999999999999E-002    -1.4226003451540152     
   7.0500000000000007E-002    -1.4087127793484020     
   7.0800000000000016E-002    -1.3480994488589797     
   7.1099999999999997E-002    -1.2431711150096003     
   7.1400000000000005E-002    -1.0982270649563595     
   7.1700000000000000E-002   -0.91931603879798396     
   7.1999999999999995E-002   -0.71392546094086473     
   7.2300000000000003E-002   -0.49059950266210417     
   7.2600000000000012E-002   -0.25855004002820514     
   7.2900000000000006E-002    -2.7127118924741150E-002
   7.3200000000000001E-002    0.19455474960374081     
   7.3499999999999996E-002    0.39803847755775884     
   7.3800000000000004E-002    0.57596093635472512     
   7.4099999999999999E-002    0.72235052983460735     
   7.4400000000000008E-002    0.83285428625572899     
   7.4700000000000003E-002    0.90491344267180229     
   7.5000000000000011E-002    0.93774239569911488     
   7.5299999999999992E-002    0.93225198492849515     
   7.5600000000000001E-002    0.89107593462083068     
   7.5900000000000009E-002    0.81827014768024831     
   7.6200000000000004E-002    0.71891894669618139     
   7.6499999999999999E-002    0.59901351510672129     
   7.6800000000000007E-002    0.46515042053305045     
   7.7099999999999988E-002    0.32414168824286194     
   7.7399999999999997E-002    0.18277625837898609     
   7.7700000000000005E-002     4.7474179981359277E-002
   7.8000000000000014E-002    -7.5897548374233945E-002
   7.8299999999999995E-002   -0.18213403941578316     
   7.8600000000000003E-002   -0.26700420039545697     
   7.8900000000000012E-002   -0.32737796722073692     
   7.9199999999999993E-002   -0.36138987629089858     
   7.9500000000000001E-002   -0.36853864575596984     
   7.9800000000000010E-002   -0.34959289426453743     
   8.0100000000000018E-002   -0.30682372319320134     
   8.0399999999999999E-002   -0.24404923433849424     
   8.0700000000000008E-002   -0.16633992373199524     
   8.1000000000000003E-002    -7.9930938088945636E-002
   8.1299999999999997E-002     8.0463495484501685E-003
   8.1600000000000006E-002     8.9965986475134388E-002
   8.1900000000000014E-002    0.15805153097153274     
   8.2199999999999995E-002    0.20499596467698844     
   8.2500000000000004E-002    0.22458333391681493     
   8.2799999999999999E-002    0.21215874680753044     
   8.3100000000000007E-002    0.16512040481915649     
   8.3400000000000002E-002     8.3297774937382343E-002
   8.3700000000000011E-002    -3.0743951338360706E-002
   8.4000000000000005E-002   -0.17160179515541668     
   8.4300000000000000E-002   -0.33135058095559800     
   8.4599999999999995E-002   -0.49992905521365927     
   8.4900000000000003E-002   -0.66562107888870092     
   8.5199999999999998E-002   -0.81590351833482089     
   8.5500000000000007E-002   -0.93831407991699267     
   8.5800000000000001E-002    -1.0213003453007492     
   8.6100000000000010E-002    -1.0552569001586334     
   8.6399999999999991E-002    -1.0332285108348751     
   8.6699999999999999E-002   -0.95149530336999555     
   8.7000000000000008E-002   -0.81001015154708977     
   8.7300000000000003E-002   -0.61248125392430042     
   8.7599999999999997E-002   -0.36632467767888754     
   8.7900000000000006E-002    -8.2220490288095083E-002
   8.8200000000000014E-002    0.22665216964479526     
   8.8499999999999995E-002    0.54529324558423453     
   8.8800000000000004E-002    0.85787584625975088     
   8.9100000000000013E-002     1.1488043341355751     
   8.9399999999999993E-002     1.4035897144981604     
   8.9700000000000002E-002     1.6097795460302766     
   9.0000000000000011E-002     1.7576982481526930     
   9.0299999999999991E-002     1.8408756780375042     
   9.0600000000000000E-002     1.8564152273218961     
   9.0900000000000009E-002     1.8049114036543537     
   9.1200000000000017E-002     1.6902729362104756     
   9.1499999999999998E-002     1.5193769134228505     
   9.1800000000000007E-002     1.3013931197608146     
   9.2100000000000001E-002     1.0471354067867926     
   9.2399999999999996E-002    0.76838224863977878     
   9.2700000000000005E-002    0.47706757720954174     
   9.3000000000000013E-002    0.18465828334707657     
   9.3300000000000008E-002    -9.8325063789242384E-002
   9.3600000000000003E-002   -0.36281686040449401     
   9.3899999999999997E-002   -0.60146561749992378     
   9.4200000000000006E-002   -0.80876325005643379     
   9.4500000000000001E-002   -0.98097050904510352     
   9.4800000000000009E-002    -1.1160064242684780     
   9.5100000000000004E-002    -1.2132873905583215     
   9.5399999999999999E-002    -1.2734175974094954     
   9.5699999999999993E-002    -1.2978430240184791     
   9.6000000000000002E-002    -1.2885902759133157     
   9.6300000000000011E-002    -1.2480466721663321     
   9.6600000000000005E-002    -1.1786519509992361     
   9.6900000000000000E-002    -1.0828007445154442     
   9.7200000000000009E-002   -0.96290469050065486     
   9.7499999999999989E-002   -0.82132553211164350     
   9.7799999999999998E-002   -0.66030571301973295     
   9.8100000000000007E-002   -0.48222472807423389     
   9.8400000000000015E-002   -0.28989807211033047     
   9.8699999999999996E-002    -8.6693659246342536E-002
   9.9000000000000005E-002    0.12339327694905056     
   9.9300000000000013E-002    0.33568298287111537     
   9.9599999999999994E-002    0.54462531543408499     
   9.9900000000000003E-002    0.74380346306430745     
  0.10020000000000001         0.92614181865135548     
  0.10049999999999999          1.0842344433340589     
  0.10080000000000000          1.2106725172729647     
  0.10110000000000001          1.2983665697658779     
  0.10140000000000000          1.3409681786376018     
  0.10170000000000000          1.3335083483965524     
  0.10200000000000001          1.2728866561404124     
  0.10230000000000002          1.1581586078529551     
  0.10260000000000000         0.99080617608883470     
  0.10290000000000001         0.77482857995465171     
  0.10320000000000000         0.51686739180775532     
  0.10350000000000001         0.22604503492735850     
  0.10380000000000000         -8.6552171770746214E-002
  0.10410000000000001        -0.40852805064183040     
  0.10440000000000001        -0.72664414374427755     
  0.10470000000000000         -1.0275463954114008     
  0.10500000000000000         -1.2985138604419204     
  0.10530000000000000         -1.5283172375369638     
  0.10560000000000000         -1.7079167743027464     
  0.10590000000000001         -1.8306524307092331     
  0.10620000000000000         -1.8925935246665473     
  0.10650000000000001         -1.8928352124328600     
  0.10679999999999999         -1.8334110575000029     
  0.10710000000000000         -1.7188214558453487     
  0.10740000000000001         -1.5554870157033029     
  0.10770000000000000         -1.3513947946276179     
  0.10800000000000000         -1.1156449357616354     
  0.10830000000000001        -0.85758859993929892     
  0.10859999999999999        -0.58597848665653052     
  0.10890000000000000        -0.30885242732036278     
  0.10920000000000001         -3.3310542346595348E-002
  0.10950000000000001         0.23507120948786461     
  0.10979999999999999         0.49228678280748267     
  0.11009999999999999         0.73574689482007039     
  0.11040000000000001         0.96409864683772639     
  0.11070000000000001          1.1767494309243167     
  0.11100000000000000          1.3736983387132422     
  0.11130000000000000          1.5550930812547663     
  0.11160000000000002          1.7206088220865809     
  0.11190000000000001          1.8692475118567744     
  0.11220000000000001          1.9987989030963149     
  0.11250000000000000          2.1056164639705801     
  0.11280000000000000          2.1849035605038449     
  0.11309999999999999          2.2304187433408766     
  0.11340000000000001          2.2347967434894040     
  0.11369999999999998          2.1902038725886417     
  0.11400000000000000          2.0887941293186234     
  0.11430000000000000          1.9237248813350227     
  0.11460000000000002          1.6898036831430028     
  0.11489999999999999          1.3842219795765844     
  0.11520000000000001          1.0076558913703071     
  0.11550000000000001         0.56488449933733487     
  0.11580000000000000          6.4986487266307014E-002
  0.11609999999999999        -0.47847316086041136     
  0.11640000000000002         -1.0478374579454710     
  0.11670000000000001         -1.6218471675041901     
  0.11700000000000001         -2.1764409461204890     
  0.11730000000000000         -2.6864806761369331     
  0.11760000000000000         -3.1269824353136335     
  0.11789999999999999         -3.4745300281628966     
  0.11820000000000001         -3.7091269830297766     
  0.11850000000000001         -3.8153669182847985     
  0.11880000000000000         -3.7834540139659918     
  0.11910000000000000         -3.6101190990227332     
  0.11940000000000002         -3.2987183274107785     
  0.11970000000000001         -2.8592754146383594     
  0.12000000000000001         -2.3079482997553065     
  0.12030000000000000         -1.6659380534409856     
  0.12060000000000000        -0.95870349947879330     
  0.12089999999999999        -0.21466212335458024     
  0.12119999999999999         0.53655992005577480     
  0.12150000000000001          1.2651424193969807     
  0.12180000000000001          1.9423721927591149     
  0.12210000000000000          2.5417808229648857     
  0.12239999999999999          3.0400003220123555     
  0.12270000000000002          3.4180702304886164     
  0.12300000000000001          3.6618230397968561     
  0.12330000000000001          3.7619746617360788     
  0.12360000000000000          3.7151431555560235     
  0.12390000000000000          3.5238712913073758     
  0.12419999999999999          3.1964097433719867     
  0.12450000000000001          2.7468352571449923     
  0.12480000000000001          2.1940473007809378     
  0.12509999999999999          1.5614040562116214     
  0.12540000000000001         0.87603497452682433     
  0.12570000000000003         0.16694085065282382     
  0.12600000000000000        -0.53605203324792217     
  0.12630000000000002         -1.2037279732610047     
  0.12659999999999999         -1.8091695587570940     
  0.12690000000000001         -2.3286580435806643     
  0.12719999999999998         -2.7432740117872818     
  0.12750000000000000         -3.0397865662771038     
  0.12780000000000002         -3.2104209482752197     
  0.12809999999999999         -3.2533088335921465     
  0.12840000000000001         -3.1721749595641251     
  0.12869999999999998         -2.9753092840262223     
  0.12900000000000000         -2.6748340263339481     
  0.12930000000000003         -2.2855593899491287     
  0.12959999999999999         -1.8237279715784367     
  0.12990000000000002         -1.3064123910446184     
  0.13019999999999998        -0.75047646604330653     
  0.13050000000000000        -0.17211291654342803     
  0.13080000000000003         0.41279501631480653     
  0.13109999999999999         0.98938648516379590     
  0.13140000000000002          1.5432741567638839     
  0.13169999999999998          2.0597789627998453     
  0.13200000000000001          2.5244053939239288     
  0.13229999999999997          2.9225031834713979     
  0.13260000000000000          3.2394440981967327     
  0.13290000000000002          3.4616469867425459     
  0.13319999999999999          3.5768124974832260     
  0.13350000000000001          3.5753304066171427     
  0.13380000000000003          3.4518741618035191     
  0.13410000000000000          3.2060351295888041     
  0.13440000000000002          2.8434319152034631     
  0.13469999999999999          2.3762906097948218     
  0.13500000000000001          1.8231112067536008     
  0.13529999999999998          1.2084581966293733     
  0.13560000000000000         0.56126816474439090     
  0.13590000000000002         -8.7368319693349822E-002
  0.13619999999999999        -0.70567564074618405     
  0.13650000000000001         -1.2639139864883631     
  0.13680000000000003         -1.7369636843314391     
  0.13710000000000000         -2.1058052401880816     
  0.13740000000000002         -2.3593944632745329     
  0.13769999999999999         -2.4950263794171588     
  0.13800000000000001         -2.5176748461033647     
  0.13829999999999998         -2.4401679935342138     
  0.13860000000000000         -2.2812226628032652     
  0.13890000000000002         -2.0630225715472106     
  0.13919999999999999         -1.8097131195700862     
  0.13950000000000001         -1.5446947512759850     
  0.13979999999999998         -1.2889978946789489     
  0.14010000000000000         -1.0602596760982392     
  0.14040000000000002        -0.87081014669517764     
  0.14069999999999999        -0.72780109626482314     
  0.14100000000000001        -0.63365410741761674     
  0.14130000000000004        -0.58597395299323862     
  0.14160000000000000        -0.57908496365551487     
  0.14189999999999997        -0.60453624495047409     
  0.14219999999999999        -0.65163719954076527     
  0.14250000000000002        -0.70936202207741017     
  0.14279999999999998        -0.76647307538252940     
  0.14310000000000000        -0.81192144018210544     
  0.14339999999999997        -0.83585577207488981     
  0.14369999999999999        -0.82923636841643356     
  0.14400000000000002        -0.78465510002500127     
  0.14429999999999998        -0.69699479578189538     
  0.14460000000000001        -0.56289962665339666     
  0.14490000000000003        -0.38157828123836363     
  0.14520000000000000        -0.15536030565823666     
  0.14550000000000002         0.11045737565171732     
  0.14579999999999999         0.40728801837989898     
  0.14610000000000001         0.72392476517519011     
  0.14640000000000003          1.0469733791283118     
  0.14670000000000000          1.3608072116234629     
  0.14699999999999996          1.6492638512082052     
  0.14729999999999999          1.8970019507385341     
  0.14760000000000001          2.0898409441997789     
  0.14789999999999998          2.2162028705443824     
  0.14820000000000000          2.2679047945499464     