  -1.4999999999999999E-002     0.0000000000000000     
  -1.4700000000000000E-002     0.0000000000000000     
  -1.4400000000000000E-002    -7.0149856346255859E-065
  -1.4100000000000000E-002     4.8294845595275979E-034
  -1.3800000000000000E-002     1.6078835412336379E-031
  -1.3500000000000000E-002     8.5688230716735051E-030
  -1.3200000000000000E-002    -4.1373927774065572E-027
  -1.2899999999999998E-002    -9.3443799868262232E-026
  -1.2600000000000000E-002     1.1716099191370333E-024
  -1.2299999999999998E-002     3.5283644760745858E-024
  -1.2000000000000000E-002    -1.4326484593582211E-024
  -1.1699999999999999E-002    -6.3544648734699702E-022
  -1.1399999999999999E-002     6.4017474147641104E-021
  -1.1099999999999999E-002    -2.0487129694085896E-020
  -1.0799999999999999E-002    -3.0780210477659344E-019
  -1.0499999999999999E-002     3.4289084494896935E-018
  -1.0199999999999999E-002    -1.0297352686313356E-017
  -9.8999999999999991E-003    -2.4428870013990436E-017
  -9.5999999999999992E-003     2.7400797188909804E-016
  -9.2999999999999992E-003    -8.9034423680307158E-016
  -8.9999999999999993E-003     1.2956360948964585E-015
  -8.6999999999999994E-003     7.4516353016481052E-016
  -8.3999999999999995E-003    -9.3444997654841456E-015
  -8.0999999999999996E-003     2.7254583030193975E-014
  -7.7999999999999988E-003    -4.6374273801347699E-014
  -7.4999999999999997E-003     4.6516502974334428E-014
  -7.1999999999999998E-003    -1.4274116522493153E-014
  -6.8999999999999981E-003    -6.6592762288333613E-014
  -6.5999999999999982E-003     2.1810249484983217E-013
  -6.3000000000000000E-003    -2.7403234264236440E-013
  -6.0000000000000001E-003    -2.2714831490967732E-013
  -5.6999999999999985E-003     1.2110275486605621E-012
  -5.3999999999999986E-003    -3.3685237115241036E-013
  -5.1000000000000004E-003    -6.6949723943970609E-012
  -4.7999999999999987E-003     1.7305836431173636E-011
  -4.5000000000000005E-003    -8.9677828093524631E-012
  -4.1999999999999989E-003    -4.2484773914589693E-011
  -3.8999999999999990E-003     9.7603169029097504E-011
  -3.5999999999999990E-003    -4.1137582815072026E-011
  -3.2999999999999991E-003    -1.5763531961976539E-010
  -2.9999999999999992E-003     2.6393704697475685E-010
  -2.6999999999999993E-003     1.0148583771276853E-011
  -2.3999999999999994E-003    -4.2961767303902804E-010
  -2.0999999999999977E-003     2.8637782365886692E-010
  -1.7999999999999995E-003     4.5537305645171191E-010
  -1.4999999999999979E-003    -6.9704483190263185E-010
  -1.1999999999999997E-003    -1.8768786446477860E-010
  -8.9999999999999976E-004     1.0224942228017431E-009
  -5.9999999999999810E-004    -2.6747765073068960E-010
  -2.9999999999999992E-004    -1.5296431580752952E-009
   0.0000000000000000          1.5542145249024586E-009
   3.0000000000000165E-004     2.2062797456223992E-009
   5.9999999999999984E-004    -6.8041531247332108E-009
   9.0000000000000149E-004     3.7990908328047363E-009
   1.2000000000000031E-003     1.3612954157899481E-008
   1.5000000000000013E-003    -3.3853534739689253E-008
   1.8000000000000030E-003     7.4806638340303441E-009
   2.1000000000000012E-003     1.1241373409685907E-007
   2.3999999999999994E-003    -1.7663239079067643E-007
   2.7000000000000010E-003    -2.2425767118366053E-007
   2.9999999999999992E-003     8.6674221231382700E-007
   3.3000000000000008E-003     1.7486179441970029E-007
   3.6000000000000025E-003    -3.1870384411738418E-006
   3.9000000000000007E-003    -1.0695660920930925E-007
   4.2000000000000023E-003     9.4491593536036401E-006
   4.5000000000000005E-003     2.4791421570685936E-006
   4.7999999999999987E-003    -2.3127619459813544E-005
   5.1000000000000004E-003    -1.6205644893790762E-005
   5.4000000000000020E-003     5.7896939073649391E-005
   5.7000000000000037E-003     1.4709394092869541E-004
   5.9999999999999984E-003     1.8735536811804177E-004
   6.3000000000000000E-003     2.1982483573889880E-004
   6.6000000000000017E-003     3.5531693021430727E-004
   6.9000000000000034E-003     6.3814750234873231E-004
   7.2000000000000015E-003     1.0246554989677503E-003
   7.5000000000000032E-003     1.5186787244806830E-003
   7.8000000000000014E-003     2.2564368674007351E-003
   8.0999999999999996E-003     3.4105225447739044E-003
   8.4000000000000012E-003     5.0947915641528091E-003
   8.7000000000000029E-003     7.4493595291869850E-003
   9.0000000000000011E-003     1.0749643224533928E-002
   9.2999999999999992E-003     1.5338652498459619E-002
   9.6000000000000009E-003     2.1544753511589767E-002
   9.8999999999999991E-003     2.9768140214231516E-002
   1.0200000000000001E-002     4.0537269262222654E-002
   1.0500000000000002E-002     5.4392138247295468E-002
   1.0800000000000004E-002     7.1792641665065909E-002
   1.1099999999999999E-002     9.3165623231524303E-002
   1.1400000000000000E-002    0.11889810332825208     
   1.1700000000000002E-002    0.14913723086513678     
   1.2000000000000004E-002    0.18358491544595232     
   1.2300000000000002E-002    0.22144976372101591     
   1.2600000000000000E-002    0.26142126316985109     
   1.2900000000000002E-002    0.30151611386306337     
   1.3200000000000000E-002    0.33885526234806029     
   1.3500000000000002E-002    0.36962851141456182     
   1.3800000000000003E-002    0.38922907764593084     
   1.4100000000000001E-002    0.39234407127978410     
   1.4400000000000000E-002    0.37307933811196325     
   1.4700000000000001E-002    0.32541558411249560     
   1.4999999999999999E-002    0.24378636172834597     
   1.5300000000000001E-002    0.12347958157634227     
   1.5600000000000003E-002    -3.8799592542790952E-002
   1.5899999999999997E-002   -0.24403753864240935     
   1.6199999999999999E-002   -0.49021364735009199     
   1.6500000000000001E-002   -0.77204976650406898     
   1.6800000000000002E-002    -1.0807489503753902     
   1.7100000000000004E-002    -1.4037871600497567     
   1.7400000000000006E-002    -1.7252926917825198     
   1.7700000000000000E-002    -2.0269000434796349     
   1.8000000000000002E-002    -2.2887046022920652     
   1.8300000000000004E-002    -2.4904844205855357     
   1.8600000000000005E-002    -2.6132632881350193     
   1.8900000000000000E-002    -2.6409963514367352     
   1.9200000000000002E-002    -2.5620688127781879     
   1.9500000000000003E-002    -2.3705025665313104     
   1.9799999999999998E-002    -2.0668371556539324     
   2.0100000000000000E-002    -1.6583954889715118     
   2.0400000000000001E-002    -1.1591759566424453     
   2.0700000000000003E-002   -0.58922568724049185     
   2.0999999999999998E-002     2.6852805786467513E-002
   2.1299999999999999E-002    0.66157433533310017     
   2.1600000000000001E-002     1.2863854729307660     
   2.1900000000000003E-002     1.8739196234359798     
   2.2200000000000004E-002     2.3999657402863774     
   2.2500000000000006E-002     2.8448929171895716     
   2.2800000000000001E-002     3.1947790614073472     
   2.3100000000000002E-002     3.4422410671160546     
   2.3400000000000004E-002     3.5865491369475189     
   2.3699999999999999E-002     3.6330035556138420     
   2.4000000000000000E-002     3.5919228412517961     
   2.4300000000000002E-002     3.4775885048238604     
   2.4599999999999997E-002     3.3068078629599151     
   2.4900000000000005E-002     3.0973280776119241     
   2.5200000000000000E-002     2.8663839486789873     
   2.5499999999999995E-002     2.6294514618069051     
   2.5800000000000003E-002     2.3994314433745498     
   2.6099999999999998E-002     2.1864280700345988     
   2.6400000000000007E-002     1.9974954299038143     
   2.6700000000000002E-002     1.8366084356042471     
   2.6999999999999996E-002     1.7052372940629179     
   2.7300000000000005E-002     1.6031509773314347     
   2.7600000000000000E-002     1.5289070535982514     
   2.7900000000000008E-002     1.4799534916783730     
   2.8200000000000003E-002     1.4528509862665027     
   2.8499999999999998E-002     1.4434061146613550     
   2.8800000000000006E-002     1.4464584288731333     
   2.9100000000000001E-002     1.4550695936881857     
   2.9400000000000003E-002     1.4598496155484570     
   2.9700000000000004E-002     1.4483233641708657     
   3.0000000000000006E-002     1.4046436356436316     
   3.0300000000000001E-002     1.3097245476333792     
   3.0600000000000002E-002     1.1415222771536433     
   3.0900000000000004E-002    0.87581427186654903     
   3.1199999999999999E-002    0.48831673507022394     
   3.1500000000000007E-002    -4.2993125117393886E-002
   3.1800000000000002E-002   -0.73537643506337447     
   3.2099999999999997E-002    -1.5987045824646651     
   3.2400000000000005E-002    -2.6327647435948274     
   3.2700000000000000E-002    -3.8247509820067989     
   3.3000000000000002E-002    -5.1483557175443435     
   3.3300000000000003E-002    -6.5632535499915603     
   3.3599999999999998E-002    -8.0155044246858544     
   3.3900000000000000E-002    -9.4395890119565262     
   3.4200000000000001E-002    -10.761515062759086     
   3.4500000000000003E-002    -11.903014529365242     
   3.4799999999999998E-002    -12.785805058790686     
   3.5099999999999999E-002    -13.336551960026872     
   3.5400000000000001E-002    -13.492429078966962     
   3.5699999999999996E-002    -13.205670685701485     
   3.6000000000000004E-002    -12.447588350428056     
   3.6299999999999999E-002    -11.211690411925623     
   3.6600000000000008E-002    -9.5156770640345414     
   3.6900000000000002E-002    -7.4022805427879668     
   3.7199999999999997E-002    -4.9378570259353927     
   3.7500000000000006E-002    -2.2109639896197963     
   3.7800000000000000E-002    0.67132818637004299     
   3.8100000000000009E-002     3.5889896430355614     
   3.8400000000000004E-002     6.4142971118752401     
   3.8699999999999998E-002     9.0183147271826449     
   3.9000000000000007E-002     11.278006826647795     
   3.9300000000000002E-002     13.084160064020766     
   3.9600000000000003E-002     14.348060797570479     
   3.9900000000000005E-002     15.006950583290815     
   4.0200000000000000E-002     15.029405851603949     
   4.0500000000000001E-002     14.418694840970726     
   4.0800000000000003E-002     13.213789446382515     
   4.1100000000000005E-002     11.488406777074765     
   4.1399999999999999E-002     9.3472163941837003     
   4.1700000000000008E-002     6.9199742607729533     
   4.2000000000000003E-002     4.3538361279269067     
   4.2299999999999997E-002     1.8033185634102940     
   4.2600000000000006E-002   -0.57966956651802659     
   4.2900000000000001E-002    -2.6558181458048842     
   4.3200000000000002E-002    -4.3088261173368627     
   4.3500000000000004E-002    -5.4541436963250112     
   4.3799999999999999E-002    -6.0433800139536720     
   4.4100000000000000E-002    -6.0662506395255544     
   4.4400000000000002E-002    -5.5516657244084202     
   4.4700000000000004E-002    -4.5640116266758257     
   4.4999999999999998E-002    -3.1952156257701625     
   4.5300000000000000E-002    -1.5564043727666728     
   4.5600000000000002E-002    0.23108076342839068     
   4.5899999999999996E-002     2.0458804110455220     
   4.6200000000000005E-002     3.7765653893669033     
   4.6500000000000000E-002     5.3289910274227008     
   4.6799999999999994E-002     6.6308475909539935     
   4.7100000000000003E-002     7.6350099747405027     
   4.7399999999999998E-002     8.3193500673777780     
   4.7700000000000006E-002     8.6842545760946361     
   4.8000000000000001E-002     8.7494831479119224     
   4.8300000000000010E-002     8.5484677816480481     
   4.8600000000000004E-002     8.1235744980634799     
   4.8899999999999999E-002     7.5216568342965981     
   4.9200000000000008E-002     6.7894553192848743     
   4.9500000000000002E-002     5.9708389712864509     
   4.9800000000000011E-002     5.1044597358945047     
   5.0100000000000006E-002     4.2219748371092978     
   5.0400000000000000E-002     3.3458588090423675     
   5.0700000000000009E-002     2.4885478110715931     
   5.1000000000000004E-002     1.6514425605802900     
   5.1299999999999998E-002    0.82158251075403343     
   5.1600000000000007E-002    -2.9434425335379873E-002
   5.1900000000000002E-002   -0.94419081968869467     
   5.2200000000000010E-002    -1.9791320976849243     
   5.2500000000000005E-002    -3.2018812303177056     
   5.2800000000000000E-002    -4.6837715826295705     
   5.3099999999999994E-002    -6.4903110631361649     
   5.3400000000000003E-002    -8.6715144280650236     
   5.3699999999999998E-002    -11.249104492483101     
   5.4000000000000006E-002    -14.203138513245410     
   5.4300000000000001E-002    -17.463120895602156     
   5.4599999999999996E-002    -20.902393201745497     
   5.4900000000000004E-002    -24.336984970915445     
   5.5199999999999999E-002    -27.531241350614373     
   5.5499999999999994E-002    -30.211535980420294     
   5.5800000000000002E-002    -32.086568998363809     
   5.6099999999999997E-002    -32.871168847231566     
   5.6400000000000006E-002    -32.314276897901117     
   5.6700000000000000E-002    -30.227782751349029     
   5.6999999999999995E-002    -26.510312695109711     
   5.7300000000000004E-002    -21.167705095536352     
   5.7599999999999998E-002    -14.324825472993023     
   5.7900000000000007E-002    -6.2248178686915603     
   5.8200000000000002E-002     2.7789289067178440     
   5.8499999999999996E-002     12.242835137624322     
   5.8800000000000005E-002     21.661995067187217     
   5.9100000000000000E-002     30.506304946031140     
   5.9400000000000008E-002     38.259084939886932     
   5.9700000000000003E-002     44.455359622337824     
   6.0000000000000012E-002     48.718936838517081     
   6.0300000000000006E-002     50.790508677407850     
   6.0600000000000001E-002     50.546597169488415     
   6.0900000000000010E-002     48.010616912329098     
   6.1200000000000004E-002     43.349190073815713     
   6.1500000000000013E-002     36.857444547417543     
   6.1800000000000008E-002     28.935824405292507     
   6.2100000000000002E-002     20.059793569167581     
   6.2399999999999997E-002     10.743867024675435     
   6.2700000000000006E-002     1.5037330180022961     
   6.3000000000000000E-002    -7.1789253724632811     
   6.3300000000000009E-002    -14.887306877411618     
   6.3600000000000004E-002    -21.293663392790194     
   6.3899999999999998E-002    -26.173426521215692     
   6.4199999999999993E-002    -29.412572085295363     
   6.4500000000000002E-002    -31.006058962868284     
   6.4800000000000010E-002    -31.046090307814531     
   6.5100000000000005E-002    -29.704379019569206     
   6.5400000000000000E-002    -27.212717580163723     
   6.5700000000000008E-002    -23.841180871026072     
   6.5999999999999989E-002    -19.874198480207713     
   6.6299999999999998E-002    -15.589994434827748     
   6.6600000000000006E-002    -11.245157702501512     
   6.6900000000000001E-002    -7.0612158853562450     
   6.7199999999999996E-002    -3.2164867875363234     
   6.7500000000000004E-002    0.15710602256998252     
   6.7800000000000013E-002     2.9733028163050883     
   6.8099999999999994E-002     5.1897822693555309     
   6.8400000000000002E-002     6.8036119576243168     
   6.8700000000000011E-002     7.8415300557962624     
   6.8999999999999992E-002     8.3545295395863004     
   6.9300000000000000E-002     8.4131985330596368     
   6.9600000000000009E-002     8.0989512715356362     
   6.9900000000000004E-002     7.4984753323407407     
   7.0199999999999999E-002     6.6972461715643092     
   7.0500000000000007E-002     5.7762579287725577     
   7.0800000000000016E-002     4.8093626755514025     
   7.1099999999999997E-002     3.8581317786724316     
   7.1400000000000005E-002     2.9703169079003544     
   7.1700000000000000E-002     2.1794525926614585     
   7.1999999999999995E-002     1.5050135782232674     
   7.2300000000000003E-002    0.95491106894504385     
   7.2600000000000012E-002    0.52446126896350520     
   7.2900000000000006E-002    0.20062850364619234     
   7.3200000000000001E-002    -3.2804716502533561E-002
   7.3499999999999996E-002   -0.19447031630817918     
   7.3800000000000004E-002   -0.30235097666148214     
   7.4099999999999999E-002   -0.37204362711592470     
   7.4400000000000008E-002   -0.41518029511697596     
   7.4700000000000003E-002   -0.43854255946435838     
   7.5000000000000011E-002   -0.44620880831061249     
   7.5299999999999992E-002   -0.44021057605005054     
   7.5600000000000001E-002   -0.42106341185706153     
   7.5900000000000009E-002   -0.38980512094858838     
   7.6200000000000004E-002   -0.34872195797064948     
   7.6499999999999999E-002   -0.30152487789864812     
   7.6800000000000007E-002   -0.25301718083672664     
   7.7099999999999988E-002   -0.20854874167486823     
   7.7399999999999997E-002   -0.17370624501028437     
   7.7700000000000005E-002   -0.15261208306485566     
   7.8000000000000014E-002   -0.14636853939889172     
   7.8299999999999995E-002   -0.15425052347770668     
   7.8600000000000003E-002   -0.17444647151822762     
   7.8900000000000012E-002   -0.20214801636650112     
   7.9199999999999993E-002   -0.23110812793732202     
   7.9500000000000001E-002   -0.25680439244247266     
   7.9800000000000010E-002   -0.27584095387806307     
   8.0100000000000018E-002   -0.28694601281468801     
   8.0399999999999999E-002   -0.29028619380335519     
   8.0700000000000008E-002   -0.28816044857251627     
   8.1000000000000003E-002   -0.28477400499986127     
   8.1299999999999997E-002   -0.28396024720365853     
   8.1600000000000006E-002   -0.28975593077705408     
   8.1900000000000014E-002   -0.30415530862253165     
   8.2199999999999995E-002   -0.32601292829681106     
   8.2500000000000004E-002   -0.35340081810832724     
   8.2799999999999999E-002   -0.38185748045601803     
   8.3100000000000007E-002   -0.40591999989943545     
   8.3400000000000002E-002   -0.41965762377199578     
   8.3700000000000011E-002   -0.41728083246047748     
   8.4000000000000005E-002   -0.39610109859925696     
   8.4300000000000000E-002   -0.35483623658872010     
   8.4599999999999995E-002   -0.29448191235826765     
   8.4900000000000003E-002   -0.21828058913353590     
   8.5199999999999998E-002   -0.13068150072815479     
   8.5500000000000007E-002    -3.8654744953058290E-002
   8.5800000000000001E-002     5.1940134842959750E-002
   8.6100000000000010E-002    0.13663958884311037     
   8.6399999999999991E-002    0.21094172627306268     
   8.6699999999999999E-002    0.27182129862848703     
   8.7000000000000008E-002    0.31715763252853052     
   8.7300000000000003E-002    0.34594700132181877     
   8.7599999999999997E-002    0.35813981481882767     
   8.7900000000000006E-002    0.35324311317810214     
   8.8200000000000014E-002    0.33103960826514445     
   8.8499999999999995E-002    0.29034364424765596     
   8.8800000000000004E-002    0.23004636571623108     
   8.9100000000000013E-002    0.15077873257204155     
   8.9399999999999993E-002     5.2998887719582090E-002
   8.9700000000000002E-002    -6.1834103903171046E-002
   9.0000000000000011E-002   -0.18981969627593276     
   9.0299999999999991E-002   -0.32486452531774201     
   9.0600000000000000E-002   -0.45910843317232641     
   9.0900000000000009E-002   -0.58379184653225069     
   9.1200000000000017E-002   -0.68970644333669273     
   9.1499999999999998E-002   -0.76739025350228618     
   9.1800000000000007E-002   -0.80910707021144490     
   9.2100000000000001E-002   -0.80944693675231438     
   9.2399999999999996E-002   -0.76582766022149262     
   9.2700000000000005E-002   -0.67987406342769352     
   9.3000000000000013E-002   -0.55618667159847068     
   9.3300000000000008E-002   -0.40180175395281642     
   9.3600000000000003E-002   -0.22677185839632197     
   9.3899999999999997E-002    -4.2525424427281466E-002
   9.4200000000000006E-002    0.14022659962448802     
   9.4500000000000001E-002    0.31204050528940647     
   9.4800000000000009E-002    0.46560489581702291     
   9.5100000000000004E-002    0.59589977844093145     
   9.5399999999999999E-002    0.70047432950378918     
   9.5699999999999993E-002    0.78120380181922433     
   9.6000000000000002E-002    0.84175882971728311     
   9.6300000000000011E-002    0.88666215540596938     
   9.6600000000000005E-002    0.92070766269300930     
   9.6900000000000000E-002    0.94779224495864112     
   9.7200000000000009E-002    0.97098053575272092     
   9.7499999999999989E-002    0.99019177117937740     
   9.7799999999999998E-002     1.0022545663384639     
   9.8100000000000007E-002     1.0025359110043202     
   9.8400000000000015E-002    0.98435138126215693     
   9.8699999999999996E-002    0.94068598531269154     
   9.9000000000000005E-002    0.86572314260779537     
   9.9300000000000013E-002    0.75518025743351436     
   9.9599999999999994E-002    0.60827257359656473     
   9.9900000000000003E-002    0.42880638368992496     
  0.10020000000000001         0.22517813461340561     
  0.10049999999999999          9.3591428220257816E-003
  0.10080000000000000        -0.20406812188256068     
  0.10110000000000001        -0.39864578447674615     
  0.10140000000000000        -0.55881265442392336     
  0.10170000000000000        -0.67230306197608314     
  0.10200000000000001        -0.73187140483535362     
  0.10230000000000002        -0.73654636454251621     
  0.10260000000000000        -0.69295299756639372     
  0.10290000000000001        -0.61457786932007341     
  0.10320000000000000        -0.52038408094929978     
  0.10350000000000001        -0.43368718538808160     
  0.10380000000000000        -0.37775761525380880     
  0.10410000000000001        -0.37244726816788509     
  0.10440000000000001        -0.43174202040079401     
  0.10470000000000000        -0.56050758086410724     
  0.10500000000000000        -0.75276864472353155     
  0.10530000000000000        -0.99127672978985326     
  0.10560000000000000         -1.2480100208554883     
  0.10590000000000001         -1.4874653044444464     
  0.10620000000000000         -1.6707247348672014     
  0.10650000000000001         -1.7604179814387204     
  0.10679999999999999         -1.7253033821306112     
  0.10710000000000000         -1.5439542531418524     
  0.10740000000000001         -1.2094266491075334     
  0.10770000000000000        -0.73195403016949334     
  0.10800000000000000        -0.13763625775334493     
  0.10830000000000001         0.53372429280192091     
  0.10859999999999999          1.2317705725339263     
  0.10890000000000000          1.9007620990517340     
  0.10920000000000001          2.4841614747553176     
  0.10950000000000001          2.9318465499917998     
  0.10979999999999999          3.2053825744504234     
  0.11009999999999999          3.2809555803143042     
  0.11040000000000001          3.1511040163818800     
  0.11070000000000001          2.8251366967602838     
  0.11100000000000000          2.3286666925115576     
  0.11130000000000000          1.7000014355703816     
  0.11160000000000002         0.98546792577706543     
  0.11190000000000001         0.23488751550458195     
  0.11220000000000001        -0.50193870764053772     
  0.11250000000000000         -1.1793339998006247     
  0.11280000000000000         -1.7596604963364879     
  0.11309999999999999         -2.2155763508528490     
  0.11340000000000001         -2.5303930949785385     
  0.11369999999999998         -2.6974782801251163     
  0.11400000000000000         -2.7194878891663392     
  0.11430000000000000         -2.6081564091853497     
  0.11460000000000002         -2.3816208207551917     
  0.11489999999999999         -2.0614291593669485     
  0.11520000000000001         -1.6718764007823022     
  0.11550000000000001         -1.2380178377758946     
  0.11580000000000000        -0.78423821095967206     
  0.11609999999999999        -0.33259559323091842     
  0.11640000000000002          9.7824530916553631E-002
  0.11670000000000001         0.49116856051573810     
  0.11700000000000001         0.83579375503749886     
  0.11730000000000000          1.1241617505082784     
  0.11760000000000000          1.3525299118457461     
  0.11789999999999999          1.5205788782408489     
  0.11820000000000001          1.6312601541667953     
  0.11850000000000001          1.6896112879202254     
  0.11880000000000000          1.7016101508648462     
  0.11910000000000000          1.6731698836059026     
  0.11940000000000002          1.6099208624602139     
  0.11970000000000001          1.5163571603836052     
  0.12000000000000001          1.3952757864611054     
  0.12030000000000000          1.2468785625839431     
  0.12060000000000000          1.0706321466887427     
  0.12089999999999999         0.86622051519988397     
  0.12119999999999999         0.63261685833141046     
  0.12150000000000001         0.36951596957895511     
  0.12180000000000001          7.9567721707527586E-002
  0.12210000000000000        -0.23201386549386824     
  0.12239999999999999        -0.55687193825995840     
  0.12270000000000002        -0.88446525223278061     
  0.12300000000000001         -1.2015514590393537     
  0.12330000000000001         -1.4923065985598400     
  0.12360000000000000         -1.7418632467978294     
  0.12390000000000000         -1.9347488726772735     
  0.12419999999999999         -2.0577130065289992     
  0.12450000000000001         -2.1016921668542281     
  0.12480000000000001         -2.0600058652054987     
  0.12509999999999999         -1.9312126230958147     
  0.12540000000000001         -1.7188316180637928     
  0.12570000000000003         -1.4306168182413317     
  0.12600000000000000         -1.0794105210036069     
  0.12630000000000002        -0.68081918853694978     
  0.12659999999999999        -0.25378505707006793     
  0.12690000000000001         0.18074991618348027     
  0.12719999999999998         0.60199260698135604     
  0.12750000000000000         0.98869692500629303     
  0.12780000000000002          1.3226526833456176     
  0.12809999999999999          1.5885189583144024     
  0.12840000000000001          1.7730492131696234     
  0.12869999999999998          1.8688947912994645     
  0.12900000000000000          1.8737069121339156     
  0.12930000000000003          1.7898697614234553     
  0.12959999999999999          1.6238561647362753     
  0.12990000000000002          1.3867500825996684     
  0.13019999999999998          1.0934107147253480     
  0.13050000000000000         0.76057993287677361     
  0.13080000000000003         0.40573596439827908     
  0.13109999999999999          4.6898571191056143E-002
  0.13140000000000002        -0.29889937408206718     
  0.13169999999999998        -0.61692438973067021     
  0.13200000000000001        -0.89491907540295634     
  0.13229999999999997         -1.1229918916860053     
  0.13260000000000000         -1.2945336971530015     
  0.13290000000000002         -1.4065918571144556     
  0.13319999999999999         -1.4587270855818799     
  0.13350000000000001         -1.4527023686736396     
  0.13380000000000003         -1.3925454303080962     
  0.13410000000000000         -1.2849681108256437     
  0.13440000000000002         -1.1383430744630159     
  0.13469999999999999        -0.96117131358617880     
  0.13500000000000001        -0.76338319992944403     
  0.13529999999999998        -0.55547058145226447     
  0.13560000000000000        -0.34661835469838942     
  0.13590000000000002        -0.14515087445793573     
  0.13619999999999999          4.1637710761910994E-002
  0.13650000000000001         0.20897753899304589     
  0.13680000000000003         0.35508881551143395     
  0.13710000000000000         0.48026443735423496     
  0.13740000000000002         0.58644590627511128     
  0.13769999999999999         0.67792746892275013     
  0.13800000000000001         0.75989243508320115     
  0.13829999999999998         0.83637192657142956     
  0.13860000000000000         0.91078826351728015     
  0.13890000000000002         0.98499372029504240     
  0.13919999999999999          1.0582992674659064     
  0.13950000000000001          1.1269706143399134     
  0.13979999999999998          1.1855700888505554     
  0.14010000000000000          1.2267784786978582     
  0.14040000000000002          1.2422704450752875     
  0.14069999999999999          1.2252522505036056     
  0.14100000000000001          1.1701485956073807     
  0.14130000000000004          1.0725952277684805     
  0.14160000000000000         0.93253886058973801     
  0.14189999999999997         0.75343358348413392     
  0.14219999999999999         0.54160833702315669     
  0.14250000000000002         0.30562735482003073     
  0.14279999999999998          5.6583068938824269E-002
  0.14310000000000000        -0.19290746137172229     
  0.14339999999999997        -0.43079146944696800     
  0.14369999999999999        -0.64577486657061400     
  0.14400000000000002        -0.82734366206463772     
  0.14429999999999998        -0.96720232037359521     
  0.14460000000000001         -1.0595576282018961     
  0.14490000000000003         -1.1006749375714970     
  0.14520000000000000         -1.0897081608561354     
  0.14550000000000002         -1.0280651597532706     
  0.14579999999999999        -0.91917874416988199     
  0.14610000000000001        -0.76915976066476621     
  0.14640000000000003        -0.58606115386408231     
  0.14670000000000000        -0.37959368215323330     
  0.14699999999999996        -0.16055371309715433     
  0.14729999999999999          5.9806432338646957E-002
  0.14760000000000001         0.26970597809707503     
  0.14789999999999998         0.45810305184206107     
  0.14820000000000000         0.61607484579426741     