  -1.4999999999999999E-002     0.0000000000000000     
  -1.4700000000000000E-002     0.0000000000000000     
  -1.4400000000000000E-002     0.0000000000000000     
  -1.4100000000000000E-002     0.0000000000000000     
  -1.3800000000000000E-002     0.0000000000000000     
  -1.3500000000000000E-002     0.0000000000000000     
  -1.3200000000000000E-002     0.0000000000000000     
  -1.2899999999999998E-002     0.0000000000000000     
  -1.2600000000000000E-002     0.0000000000000000     
  -1.2299999999999998E-002     0.0000000000000000     
  -1.2000000000000000E-002     0.0000000000000000     
  -1.1699999999999999E-002     0.0000000000000000     
  -1.1399999999999999E-002     0.0000000000000000     
  -1.1099999999999999E-002     0.0000000000000000     
  -1.0799999999999999E-002     0.0000000000000000     
  -1.0499999999999999E-002     0.0000000000000000     
  -1.0199999999999999E-002     0.0000000000000000     
  -9.8999999999999991E-003     0.0000000000000000     
  -9.5999999999999992E-003     0.0000000000000000     
  -9.2999999999999992E-003     0.0000000000000000     
  -8.9999999999999993E-003     0.0000000000000000     
  -8.6999999999999994E-003     0.0000000000000000     
  -8.3999999999999995E-003     0.0000000000000000     
  -8.0999999999999996E-003     0.0000000000000000     
  -7.7999999999999988E-003     0.0000000000000000     
  -7.4999999999999997E-003     0.0000000000000000     
  -7.1999999999999998E-003     0.0000000000000000     
  -6.8999999999999981E-003     0.0000000000000000     
  -6.5999999999999982E-003     0.0000000000000000     
  -6.3000000000000000E-003     0.0000000000000000     
  -6.0000000000000001E-003     0.0000000000000000     
  -5.6999999999999985E-003     0.0000000000000000     
  -5.3999999999999986E-003     0.0000000000000000     
  -5.1000000000000004E-003     0.0000000000000000     
  -4.7999999999999987E-003     0.0000000000000000     
  -4.5000000000000005E-003     0.0000000000000000     
  -4.1999999999999989E-003     0.0000000000000000     
  -3.8999999999999990E-003     0.0000000000000000     
  -3.5999999999999990E-003     0.0000000000000000     
  -3.2999999999999991E-003     0.0000000000000000     
  -2.9999999999999992E-003     0.0000000000000000     
  -2.6999999999999993E-003     0.0000000000000000     
  -2.3999999999999994E-003     7.2453443766873476E-074
  -2.0999999999999977E-003     4.2496462335913325E-046
  -1.7999999999999995E-003    -9.2081596795081069E-045
  -1.4999999999999979E-003    -2.1069085971277952E-044
  -1.1999999999999997E-003    -1.3371757881961022E-036
  -8.9999999999999976E-004     5.2696490477170648E-036
  -5.9999999999999810E-004     5.9281167094580556E-036
  -2.9999999999999992E-004    -2.7501648293628835E-034
   0.0000000000000000          9.5022601049975180E-034
   3.0000000000000165E-004    -3.4809653266481243E-034
   5.9999999999999984E-004    -1.5129807891301923E-032
   9.0000000000000149E-004     8.4030075610283186E-032
   1.2000000000000031E-003    -2.5876233046047167E-031
   1.5000000000000013E-003     4.4743846261323278E-031
   1.8000000000000030E-003     1.4395033667601720E-031
   2.1000000000000012E-003    -4.1716839941503829E-030
   2.3999999999999994E-003     1.7382687343885770E-029
   2.7000000000000010E-003    -4.7534396253825307E-029
   2.9999999999999992E-003     9.6300649049874282E-029
   3.3000000000000008E-003    -1.3936331379897447E-028
   3.6000000000000025E-003     9.4364933464722970E-029
   3.9000000000000007E-003     2.2101010376585995E-028
   4.2000000000000023E-003    -1.1623789335024188E-027
   4.5000000000000005E-003     3.4668225990341218E-027
   4.7999999999999987E-003    -8.8336595628178082E-027
   5.1000000000000004E-003     2.1185521114167848E-026
   5.4000000000000020E-003    -4.8374038218955159E-026
   5.7000000000000037E-003     1.0090590086835108E-025
   5.9999999999999984E-003    -1.7380585998954707E-025
   6.3000000000000000E-003     1.7944401801106985E-025
   6.6000000000000017E-003     1.5151053957712422E-025
   6.9000000000000034E-003    -7.5699440880697375E-025
   7.2000000000000015E-003    -3.4326133292909567E-024
   7.5000000000000032E-003     4.1981042551413291E-023
   7.8000000000000014E-003    -2.1693510562893812E-022
   8.0999999999999996E-003     7.5061657253353638E-022
   8.4000000000000012E-003    -1.8743246371800511E-021
   8.7000000000000029E-003     3.6185895602953499E-021
   9.0000000000000011E-003    -9.7116539829679502E-021
   9.2999999999999992E-003     6.6793719860260672E-020
   9.6000000000000009E-003    -5.0711164410322688E-019
   9.8999999999999991E-003     3.1842540504649445E-018
   1.0200000000000001E-002    -1.7113259682863486E-017
   1.0500000000000002E-002     8.2144612042687310E-017
   1.0800000000000004E-002    -3.5934507793001258E-016
   1.1099999999999999E-002     1.4288150851881127E-015
   1.1400000000000000E-002    -5.0149228381282643E-015
   1.1700000000000002E-002     1.4358532138705366E-014
   1.2000000000000004E-002    -2.5381941437172012E-014
   1.2300000000000002E-002    -3.5655156166608412E-014
   1.2600000000000000E-002     5.6123252255585776E-013
   1.2900000000000002E-002    -2.8225503869741217E-012
   1.3200000000000000E-002     8.7908064399538153E-012
   1.3500000000000002E-002    -1.4225670755508259E-011
   1.3800000000000003E-002    -1.6825781118503280E-011
   1.4100000000000001E-002     1.7499175317381854E-010
   1.4400000000000000E-002    -4.4653257482235723E-010
   1.4700000000000001E-002     1.0055701620717750E-010
   1.4999999999999999E-002     2.4634387939622986E-009
   1.5300000000000001E-002    -5.4484660595888736E-009
   1.5600000000000003E-002    -3.5917775023710196E-009
   1.5899999999999997E-002     2.9267064236663299E-008
   1.6199999999999999E-002    -1.2623415674551747E-008
   1.6500000000000001E-002    -1.0541720964032459E-007
   1.6800000000000002E-002     5.9071864227006290E-008
   1.7100000000000004E-002     2.9657743676456438E-007
   1.7400000000000006E-002    -1.0853115595274486E-007
   1.7700000000000000E-002    -8.7674451199011185E-007
   1.8000000000000002E-002    -2.4759217162546321E-007
   1.8300000000000004E-002     3.7445814835771919E-006
   1.8600000000000005E-002     1.2271556116038983E-005
   1.8900000000000000E-002     2.6317605471112069E-005
   1.9200000000000002E-002     4.8005122693737283E-005
   1.9500000000000003E-002     8.0312556434934031E-005
   1.9799999999999998E-002     1.2670599637283142E-004
   2.0100000000000000E-002     1.9332204318762167E-004
   2.0400000000000001E-002     2.9148506975840437E-004
   2.0700000000000003E-002     4.3922140613511756E-004
   2.0999999999999998E-002     6.6170618515405807E-004
   2.1299999999999999E-002     9.9061322107771342E-004
   2.1600000000000001E-002     1.4658524500237565E-003
   2.1900000000000003E-002     2.1391820062809596E-003
   2.2200000000000004E-002     3.0766026235004864E-003
   2.2500000000000006E-002     4.3601518275608155E-003
   2.2800000000000001E-002     6.0880340888900585E-003
   2.3100000000000002E-002     8.3723755202348652E-003
   2.3400000000000004E-002     1.1334361208774560E-002
   2.3699999999999999E-002     1.5094833049312384E-002
   2.4000000000000000E-002     1.9761811419117592E-002
   2.4300000000000002E-002     2.5415445936826979E-002
   2.4599999999999997E-002     3.2082225278412445E-002
   2.4900000000000005E-002     3.9702161095771425E-002
   2.5200000000000000E-002     4.8094077625257053E-002
   2.5499999999999995E-002     5.6917900575099795E-002
   2.5800000000000003E-002     6.5638063599708571E-002
   2.6099999999999998E-002     7.3487883349502792E-002
   2.6400000000000007E-002     7.9448243360343562E-002
   2.6700000000000002E-002     8.2247426415559585E-002
   2.6999999999999996E-002     8.0394012583645091E-002
   2.7300000000000005E-002     7.2237005402101137E-002
   2.7600000000000000E-002     5.6069756298155950E-002
   2.7900000000000008E-002     3.0279836738734443E-002
   2.8200000000000003E-002    -6.4653896977460044E-003
   2.8499999999999998E-002    -5.4999826894099886E-002
   2.8800000000000006E-002   -0.11542021178929286     
   2.9100000000000001E-002   -0.18685785932830007     
   2.9400000000000003E-002   -0.26726748833381125     
   2.9700000000000004E-002   -0.35330187340704461     
   3.0000000000000006E-002   -0.44028388289948184     
   3.0300000000000001E-002   -0.52229021598646375     
   3.0600000000000002E-002   -0.59240452868486637     
   3.0900000000000004E-002   -0.64309666839609325     
   3.1199999999999999E-002   -0.66676537418229520     
   3.1500000000000007E-002   -0.65639655044544598     
   3.1800000000000002E-002   -0.60626338306727467     
   3.2099999999999997E-002   -0.51267008614612319     
   3.2400000000000005E-002   -0.37459923822449792     
   3.2700000000000000E-002   -0.19417580443795537     
   3.3000000000000002E-002     2.2989237131576440E-002
   3.3300000000000003E-002    0.26787491931283708     
   3.3599999999999998E-002    0.52833478253359800     
   3.3900000000000000E-002    0.78967968529886456     
   3.4200000000000001E-002     1.0357281888726042     
   3.4500000000000003E-002     1.2497976688791337     
   3.4799999999999998E-002     1.4160265549028317     
   3.5099999999999999E-002     1.5207349852799796     
   3.5400000000000001E-002     1.5534388609016219     
   3.5699999999999996E-002     1.5080153543975274     
   3.6000000000000004E-002     1.3832331530486159     
   3.6299999999999999E-002     1.1830480978161100     
   3.6600000000000008E-002    0.91656783778432549     
   3.6900000000000002E-002    0.59739296044050560     
   3.7199999999999997E-002    0.24279385154854574     
   3.7500000000000006E-002   -0.12747873040784219     
   3.7800000000000000E-002   -0.49267779493553138     
   3.8100000000000009E-002   -0.83237973653555508     
   3.8400000000000004E-002    -1.1279484929588801     
   3.8699999999999998E-002    -1.3639179109878317     
   3.9000000000000007E-002    -1.5287545517697270     
   3.9300000000000002E-002    -1.6158026032150887     
   3.9600000000000003E-002    -1.6235050728327332     
   3.9900000000000005E-002    -1.5552641936591614     
   4.0200000000000000E-002    -1.4192243441389525     
   4.0500000000000001E-002    -1.2272965585440196     
   4.0800000000000003E-002   -0.99423340330068621     
   4.1100000000000005E-002   -0.73652682752989396     
   4.1399999999999999E-002   -0.47093819334603787     
   4.1700000000000008E-002   -0.21348937785219652     
   4.2000000000000003E-002     2.1844377167121894E-002
   4.2299999999999997E-002    0.22405766852571490     
   4.2600000000000006E-002    0.38561226906107388     
   4.2900000000000001E-002    0.50303708188502250     
   4.3200000000000002E-002    0.57670913616839881     
   4.3500000000000004E-002    0.61054478479732854     
   4.3799999999999999E-002    0.61157672001507746     
   4.4100000000000000E-002    0.58885793345284121     
   4.4400000000000002E-002    0.55273519512192826     
   4.4700000000000004E-002    0.51369796854855876     
   4.4999999999999998E-002    0.48125724744204312     
   4.5300000000000000E-002    0.46340225935536744     
   4.5600000000000002E-002    0.46542685028058839     
   4.5899999999999996E-002    0.48976670435448949     
   4.6200000000000005E-002    0.53578995274866104     
   4.6500000000000000E-002    0.59951059455720968     
   4.6799999999999994E-002    0.67433027656296285     
   4.7100000000000003E-002    0.75123236597222132     
   4.7399999999999998E-002    0.81958905688241512     
   4.7700000000000006E-002    0.86813554856573971     
   4.8000000000000001E-002    0.88560161628009426     
   4.8300000000000010E-002    0.86200884671056921     
   4.8600000000000004E-002    0.78940872227327663     
   4.8899999999999999E-002    0.66260347967300504     
   4.9200000000000008E-002    0.48010017160947871     
   4.9500000000000002E-002    0.24414990155244853     
   4.9800000000000011E-002    -3.8668073123313079E-002
   5.0100000000000006E-002   -0.35770656755238722     
   5.0400000000000000E-002   -0.69877223352086482     
   5.0700000000000009E-002    -1.0445465768756699     
   5.1000000000000004E-002    -1.3758380051939589     
   5.1299999999999998E-002    -1.6725835359753198     
   5.1600000000000007E-002    -1.9151915998452191     
   5.1900000000000002E-002    -2.0859882280040400     
   5.2200000000000010E-002    -2.1703230759974059     
   5.2500000000000005E-002    -2.1578859710655354     
   5.2800000000000000E-002    -2.0435008459949993     
   5.3099999999999994E-002    -1.8275788536171429     
   5.3400000000000003E-002    -1.5163548780277152     
   5.3699999999999998E-002    -1.1215617356121428     
   5.4000000000000006E-002   -0.65989540218637410     
   5.4300000000000001E-002   -0.15200931875269100     
   5.4599999999999996E-002    0.37868504763763516     
   5.4900000000000004E-002    0.90750244890250553     
   5.5199999999999999E-002     1.4097278942422597     
   5.5499999999999994E-002     1.8620230664026356     
   5.5800000000000002E-002     2.2440261251894205     
   5.6099999999999997E-002     2.5389131832225940     
   5.6400000000000006E-002     2.7344907994318053     
   5.6700000000000000E-002     2.8238016814356977     
   5.6999999999999995E-002     2.8048521731376712     
   5.7300000000000004E-002     2.6809853797601724     
   5.7599999999999998E-002     2.4598910155399816     
   5.7900000000000007E-002     2.1531347654486832     
   5.8200000000000002E-002     1.7753589869302289     
   5.8499999999999996E-002     1.3428535097775962     
   5.8800000000000005E-002    0.87297472925847719     
   5.9100000000000000E-002    0.38259505094590773     
   5.9400000000000008E-002   -0.11246546936675771     
   5.9700000000000003E-002   -0.59799395549362289     
   6.0000000000000012E-002    -1.0621384115523271     
   6.0300000000000006E-002    -1.4950264310804551     
   6.0600000000000001E-002    -1.8888324012648394     
   6.0900000000000010E-002    -2.2374596015673913     
   6.1200000000000004E-002    -2.5355812842451124     
   6.1500000000000013E-002    -2.7783993947336199     
   6.1800000000000008E-002    -2.9607769664722956     
   6.2100000000000002E-002    -3.0768438957934623     
   6.2399999999999997E-002    -3.1202143796511801     
   6.2700000000000006E-002    -3.0838164463511650     
   6.3000000000000000E-002    -2.9606033965685712     
   6.3300000000000009E-002    -2.7445732811562471     
   6.3600000000000004E-002    -2.4314877331573892     
   6.3899999999999998E-002    -2.0203651833147989     
   6.4199999999999993E-002    -1.5145605385777328     
   6.4500000000000002E-002   -0.92242285974803884     
   6.4800000000000010E-002   -0.25825755921661936     
   6.5100000000000005E-002    0.45777641703126881     
   6.5400000000000000E-002     1.2000758348985601     
   6.5700000000000008E-002     1.9383409720432756     
   6.5999999999999989E-002     2.6394178185598092     
   6.6299999999999998E-002     3.2684434994388791     
   6.6600000000000006E-002     3.7914844952642386     
   6.6900000000000001E-002     4.1777089930345932     
   6.7199999999999996E-002     4.4007595811302318     
   6.7500000000000004E-002     4.4417375345419945     
   6.7800000000000013E-002     4.2898272331484888     
   6.8099999999999994E-002     3.9434756183870876     
   6.8400000000000002E-002     3.4113494438058720     
   6.8700000000000011E-002     2.7116195425371332     
   6.8999999999999992E-002     1.8719047989017350     
   6.9300000000000000E-002    0.92769900308214281     
   6.9600000000000009E-002    -7.9087570197389559E-002
   6.9900000000000004E-002    -1.1019289222608184     
   7.0199999999999999E-002    -2.0926429692101376     
   7.0500000000000007E-002    -3.0030306994495142     
   7.0800000000000016E-002    -3.7880231349092162     
   7.1099999999999997E-002    -4.4080389778104578     
   7.1400000000000005E-002    -4.8308719321016929     
   7.1700000000000000E-002    -5.0341790780826052     
   7.1999999999999995E-002    -5.0065902340358237     
   7.2300000000000003E-002    -4.7485507658837367     
   7.2600000000000012E-002    -4.2728780561191249     
   7.2900000000000006E-002    -3.6037315355949056     
   7.3200000000000001E-002    -2.7757691585872095     
   7.3499999999999996E-002    -1.8320352526760406     
   7.3800000000000004E-002   -0.82170531744981323     
   7.4099999999999999E-002    0.20316323320039825     
   7.4400000000000008E-002     1.1904259626202858     
   7.4700000000000003E-002     2.0910050334532126     
   7.5000000000000011E-002     2.8619076463684694     
   7.5299999999999992E-002     3.4682742642423396     
   7.5600000000000001E-002     3.8858307769493758     
   7.5900000000000009E-002     4.1014551031299016     
   7.6200000000000004E-002     4.1139987805650025     
   7.6499999999999999E-002     3.9338840387882366     
   7.6800000000000007E-002     3.5816477768770083     
   7.7099999999999988E-002     3.0871543052817629     
   7.7399999999999997E-002     2.4867328924766441     
   7.7700000000000005E-002     1.8213299017833904     
   7.8000000000000014E-002     1.1344422983887947     
   7.8299999999999995E-002    0.46899299515897419     
   7.8600000000000003E-002   -0.13426121720924430     
   7.8900000000000012E-002   -0.63921771698691277     
   7.9199999999999993E-002    -1.0163305720044149     
   7.9500000000000001E-002    -1.2437791483064309     
   7.9800000000000010E-002    -1.3095526334925838     
   8.0100000000000018E-002    -1.2117195987400091     
   8.0399999999999999E-002   -0.95915112232059418     
   8.0700000000000008E-002   -0.57188187451155092     
   8.1000000000000003E-002    -7.9668974216734828E-002
   8.1299999999999997E-002    0.47836478211423039     
   8.1600000000000006E-002     1.0564260188948882     
   8.1900000000000014E-002     1.6047280580643464     
   8.2199999999999995E-002     2.0724474807593141     
   8.2500000000000004E-002     2.4122704788871654     
   8.2799999999999999E-002     2.5833472486990647     
   8.3100000000000007E-002     2.5555114034550357     
   8.3400000000000002E-002     2.3123089621837942     
   8.3700000000000011E-002     1.8526168541836117     
   8.4000000000000005E-002     1.1923937457843279     
   8.4300000000000000E-002    0.36345146947784912     
   8.4599999999999995E-002   -0.58803735714788397     
   8.4900000000000003E-002    -1.6048922117957465     
   8.5199999999999998E-002    -2.6235703725310753     
   8.5500000000000007E-002    -3.5782138346663177     
   8.5800000000000001E-002    -4.4070099606096518     
   8.6100000000000010E-002    -5.0560625630641534     
   8.6399999999999991E-002    -5.4840582333184482     
   8.6699999999999999E-002    -5.6659086617591647     
   8.7000000000000008E-002    -5.5929029874095155     
   8.7300000000000003E-002    -5.2748764531972325     
   8.7599999999999997E-002    -4.7377852122836375     
   8.7900000000000006E-002    -4.0212215297012426     
   8.8200000000000014E-002    -3.1760360338761169     
   8.8499999999999995E-002    -2.2583233697983345     
   8.8800000000000004E-002    -1.3267331950620020     
   8.9100000000000013E-002   -0.43714009429199224     
   8.9399999999999993E-002    0.36189781781095343     
   8.9700000000000002E-002     1.0304478145175051     
   9.0000000000000011E-002     1.5419678289826102     
   9.0299999999999991E-002     1.8828770624726674     
   9.0600000000000000E-002     2.0529989660658492     
   9.0900000000000009E-002     2.0659806188591991     
   9.1200000000000017E-002     1.9453156678506518     
   9.1499999999999998E-002     1.7239633349642751     
   9.1800000000000007E-002     1.4400964602719561     
   9.2100000000000001E-002     1.1333533236165574     
   9.2399999999999996E-002    0.84294144202480970     
   9.2700000000000005E-002    0.60248492721636027     
   9.3000000000000013E-002    0.43910636539663139     
   9.3300000000000008E-002    0.37055148931110199     
   9.3600000000000003E-002    0.40370105894034192     
   9.3899999999999997E-002    0.53567879254704076     
   9.4200000000000006E-002    0.75245950894923330     
   9.4500000000000001E-002     1.0323741188802014     
   9.4800000000000009E-002     1.3474312685871295     
   9.5100000000000004E-002     1.6654307417002592     
   9.5399999999999999E-002     1.9547930445715092     
   9.5699999999999993E-002     2.1854445353251561     
   9.6000000000000002E-002     2.3328086699083737     
   9.6300000000000011E-002     2.3801199735511558     
   9.6600000000000005E-002     2.3188144512129836     
   9.6900000000000000E-002     2.1507467610371678     
   9.7200000000000009E-002     1.8870033667303556     
   9.7499999999999989E-002     1.5472712051652633     
   9.7799999999999998E-002     1.1586625212024417     
   9.8100000000000007E-002    0.75235638451399733     
   9.8400000000000015E-002    0.36237292004373628     
   9.8699999999999996E-002     2.1847103273645248E-002
   9.9000000000000005E-002   -0.23958220810501471     
   9.9300000000000013E-002   -0.39697956257704281     
   9.9599999999999994E-002   -0.43362783404224159     
   9.9900000000000003E-002   -0.34051715491848478     
  0.10020000000000001        -0.11770189960796446     
  0.10049999999999999         0.22555607065135211     
  0.10080000000000000         0.67282311492611635     
  0.10110000000000001          1.2004937828425166     
  0.10140000000000000          1.7801914958610441     
  0.10170000000000000          2.3805386412756766     
  0.10200000000000001          2.9684814642271262     
  0.10230000000000002          3.5115367455067821     
  0.10260000000000000          3.9788888846099253     
  0.10290000000000001          4.3422178082571250     
  0.10320000000000000          4.5772689566384184     
  0.10350000000000001          4.6632941919218780     
  0.10380000000000000          4.5839556430215440     
  0.10410000000000001          4.3278306761279088     
  0.10440000000000001          3.8874925527446704     
  0.10470000000000000          3.2613476831400261     
  0.10500000000000000          2.4529005819391951     
  0.10530000000000000          1.4711464242834325     
  0.10560000000000000         0.33172445527645056     
  0.10590000000000001        -0.94352940245593431     
  0.10620000000000000         -2.3258292056950989     
  0.10650000000000001         -3.7798456135171961     
  0.10679999999999999         -5.2647598761526764     
  0.10710000000000000         -6.7340553380150618     
  0.10740000000000001         -8.1382949544196261     
  0.10770000000000000         -9.4269044240768203     
  0.10800000000000000         -10.548751546292285     
  0.10830000000000001         -11.456642795145932     
  0.10859999999999999         -12.108407647230434     
  0.10890000000000000         -12.468846938204077     
  0.10920000000000001         -12.513114591783985     
  0.10950000000000001         -12.226529745960555     
  0.10979999999999999         -11.606641457803725     
  0.11009999999999999         -10.663966847345165     
  0.11040000000000001         -9.4208352444015038     
  0.11070000000000001         -7.9124458132892626     
  0.11100000000000000         -6.1846564590334134     
  0.11130000000000000         -4.2922614916151645     
  0.11160000000000002         -2.2982377463865618     
  0.11190000000000001        -0.26963326449794428     
  0.11220000000000001          1.7240415258973367     
  0.11250000000000000          3.6144272218859239     
  0.11280000000000000          5.3377164271172637     
  0.11309999999999999          6.8368742930157822     
  0.11340000000000001          8.0655887270627851     
  0.11369999999999998          8.9903323558455721     
  0.11400000000000000          9.5917765856271586     
  0.11430000000000000          9.8667132560056459     
  0.11460000000000002          9.8268067571614921     
  0.11489999999999999          9.4989888509829772     
  0.11520000000000001          8.9235103145026500     
  0.11550000000000001          8.1505964041883328     
  0.11580000000000000          7.2382047676507364     
  0.11609999999999999          6.2477110211704137     
  0.11640000000000002          5.2402862179320069     
  0.11670000000000001          4.2741431134429853     
  0.11700000000000001          3.4001862187592233     
  0.11730000000000000          2.6610240322543484     
  0.11760000000000000          2.0880097883512203     
  0.11789999999999999          1.7007625937980246     
  0.11820000000000001          1.5074271846717491     
  0.11850000000000001          1.5039288684097043     
  0.11880000000000000          1.6763949027412828     
  0.11910000000000000          2.0014757647860888     
  0.11940000000000002          2.4482926731239987     
  0.11970000000000001          2.9800290317871854     
  0.12000000000000001          3.5553487823343293     
  0.12030000000000000          4.1301530719003132     
  0.12060000000000000          4.6586321559500545     
  0.12089999999999999          5.0953692037386764     
  0.12119999999999999          5.3962391363661029     
  0.12150000000000001          5.5205653611439809     
  0.12180000000000001          5.4323309380029539     
  0.12210000000000000          5.1028941669666805     
  0.12239999999999999          4.5122584055300727     
  0.12270000000000002          3.6508685525894093     
  0.12300000000000001          2.5227820154063445     
  0.12330000000000001          1.1447281484283447     
  0.12360000000000000        -0.45129638182008508     
  0.12390000000000000         -2.2192980696650966     
  0.12419999999999999         -4.1004308602296495     
  0.12450000000000001         -6.0243590692173346     
  0.12480000000000001         -7.9130294627511999     
  0.12509999999999999         -9.6848151509616329     
  0.12540000000000001         -11.258220374225090     
  0.12570000000000003         -12.557738924278331     
  0.12600000000000000         -13.517794249583886     
  0.12630000000000002         -14.087594611127917     
  0.12659999999999999         -14.234805682095367     
  0.12690000000000001         -13.947568522695661     
  0.12719999999999998         -13.236749297783492     
  0.12750000000000000         -12.135244048313112     
  0.12780000000000002         -10.696083740538551     
  0.12809999999999999         -8.9901902703751340     
  0.12840000000000001         -7.1010072771845616     
  0.12869999999999998         -5.1199282292069626     
  0.12900000000000000         -3.1405872524233613     
  0.12930000000000003         -1.2516326636540009     
  0.12959999999999999         0.46785287144871968     
  0.12990000000000002          1.9546423567602189     
  0.13019999999999998          3.1654404695800178     
  0.13050000000000000          4.0783184828751731     
  0.13080000000000003          4.6954601915035310     
  0.13109999999999999          5.0409344271464045     
  0.13140000000000002          5.1577957692852845     
  0.13169999999999998          5.1056011772514056     
  0.13200000000000001          4.9518011725488131     
  0.13229999999999997          4.7677444202877988     
  0.13260000000000000          4.6208757198930837     
  0.13290000000000002          4.5672558608249290     
  0.13319999999999999          4.6484812545397425     
  0.13350000000000001          4.8851288543557203     
  0.13380000000000003          5.2754815697162813     
  0.13410000000000000          5.7965210410963763     
  0.13440000000000002          6.4034827510280250     
  0.13469999999999999          7.0362909413025152     
  0.13500000000000001          7.6247842712448186     
  0.13529999999999998          8.0942495128682506     
  0.13560000000000000          8.3755529095345942     
  0.13590000000000002          8.4094989444628165     
  0.13619999999999999          8.1548831663262256     
  0.13650000000000001          7.5936735016663910     
  0.13680000000000003          6.7305610744141635     
  0.13710000000000000          5.5969842343776248     
  0.13740000000000002          4.2457312377461989     
  0.13769999999999999          2.7468857007907843     
  0.13800000000000001          1.1836744211576302     
  0.13829999999999998        -0.35894476540927767     
  0.13860000000000000         -1.7993721487910439     
  0.13890000000000002         -3.0668000356219718     
  0.13919999999999999         -4.1105192988738786     
  0.13950000000000001         -4.8987101191211577     
  0.13979999999999998         -5.4251759976711789     
  0.14010000000000000         -5.7062347784801748     
  0.14040000000000002         -5.7757910131602390     
  0.14069999999999999         -5.6842568783242111     
  0.14100000000000001         -5.4874471155215971     
  0.14130000000000004         -5.2415708105745367     
  0.14160000000000000         -4.9969895953495511     
  0.14189999999999997         -4.7900289235608744     
  0.14219999999999999         -4.6424878820764368     
  0.14250000000000002         -4.5580300106127343     
  0.14279999999999998         -4.5226005343048374     
  0.14310000000000000         -4.5104483398718820     
  0.14339999999999997         -4.4853323737641464     
  0.14369999999999999         -4.4085701762381024     
  0.14400000000000002         -4.2448858120779311     
  0.14429999999999998         -3.9652348924215923     
  0.14460000000000001         -3.5548025639919780     
  0.14490000000000003         -3.0117849519213009     
  0.14520000000000000         -2.3482674937277057     
  0.14550000000000002         -1.5905252274454287     
  0.14579999999999999        -0.77331254768735946     
  0.14610000000000001          6.3256128904236819E-002
  0.14640000000000003         0.87743160917943097     
  0.14670000000000000          1.6323251307763682     
  0.14699999999999996          2.2969724540873542     
  0.14729999999999999          2.8496777274313687     
  0.14760000000000001          3.2801033598771796     
  0.14789999999999998          3.5858460922712796     
  0.14820000000000000          3.7740358320197047     