  -1.4999999999999999E-002     0.0000000000000000     
  -1.4700000000000000E-002     0.0000000000000000     
  -1.4400000000000000E-002     0.0000000000000000     
  -1.4100000000000000E-002     0.0000000000000000     
  -1.3800000000000000E-002     0.0000000000000000     
  -1.3500000000000000E-002     0.0000000000000000     
  -1.3200000000000000E-002     0.0000000000000000     
  -1.2899999999999998E-002     0.0000000000000000     
  -1.2600000000000000E-002     0.0000000000000000     
  -1.2299999999999998E-002     3.3683915736789663E-041
  -1.2000000000000000E-002    -2.9841184785197132E-037
  -1.1699999999999999E-002    -3.7142351182088501E-037
  -1.1399999999999999E-002     1.1196426935106914E-034
  -1.1099999999999999E-002    -8.0852742888494070E-034
  -1.0799999999999999E-002    -9.0491466853815498E-032
  -1.0499999999999999E-002     2.4627219444698567E-030
  -1.0199999999999999E-002    -3.2072890159989650E-029
  -9.8999999999999991E-003     2.5596730332161382E-028
  -9.5999999999999992E-003    -1.3048044577935481E-027
  -9.2999999999999992E-003     3.8695090605618108E-027
  -8.9999999999999993E-003    -1.9090005683470180E-027
  -8.6999999999999994E-003    -4.7301737700445502E-026
  -8.3999999999999995E-003     3.2206516296094380E-025
  -8.0999999999999996E-003    -1.4128520180790131E-024
  -7.7999999999999988E-003     4.7518579804533941E-024
  -7.4999999999999997E-003    -1.2418596143349771E-023
  -7.1999999999999998E-003     2.6824175887642090E-023
  -6.8999999999999981E-003    -6.2874333806455441E-023
  -6.5999999999999982E-003     2.0279281283053367E-022
  -6.3000000000000000E-003    -6.2979696469336088E-022
  -6.0000000000000001E-003     8.5126877953685299E-022
  -5.6999999999999985E-003     4.9024892544233455E-021
  -5.3999999999999986E-003    -4.0901061253500665E-020
  -5.1000000000000004E-003     1.6744949582758566E-019
  -4.7999999999999987E-003    -4.6558035951748182E-019
  -4.5000000000000005E-003     9.0143572944310251E-019
  -4.1999999999999989E-003    -9.5431682426747046E-019
  -3.8999999999999990E-003    -9.9656258259993400E-019
  -3.5999999999999990E-003     8.0535749315312706E-018
  -3.2999999999999991E-003    -2.3665211780160686E-017
  -2.9999999999999992E-003     4.7315567774716244E-017
  -2.6999999999999993E-003    -6.6688356787882940E-017
  -2.3999999999999994E-003     5.0651102567048030E-017
  -2.0999999999999977E-003     4.5505954129714511E-017
  -1.7999999999999995E-003    -2.5736816105744804E-016
  -1.4999999999999979E-003     6.0499756244474386E-016
  -1.1999999999999997E-003    -1.1611559223184644E-015
  -8.9999999999999976E-004     2.1205490311663118E-015
  -5.9999999999999810E-004    -3.4692261456063679E-015
  -2.9999999999999992E-004     3.8038142700264022E-015
   0.0000000000000000          9.2825586315088694E-016
   3.0000000000000165E-004    -1.5669706301901644E-014
   5.9999999999999984E-004     3.8673338087376777E-014
   9.0000000000000149E-004    -5.2531321945044787E-014
   1.2000000000000031E-003     2.7447625552701564E-014
   1.5000000000000013E-003     5.3862258671846789E-014
   1.8000000000000030E-003    -1.6136694740003096E-013
   2.1000000000000012E-003     1.9342584479876731E-013
   2.3999999999999994E-003     3.1350762805875526E-014
   2.7000000000000010E-003    -6.7981018121064724E-013
   2.9999999999999992E-003     1.3522388808597734E-012
   3.3000000000000008E-003     5.7937883026397267E-015
   3.6000000000000025E-003    -6.2443336063639794E-012
   3.9000000000000007E-003     1.2495195366339419E-011
   4.2000000000000023E-003     7.6825563103099907E-012
   4.5000000000000005E-003    -9.1455569556917385E-011
   4.7999999999999987E-003     2.1230261319999543E-010
   5.1000000000000004E-003    -1.6777678899539978E-010
   5.4000000000000020E-003    -4.9866903415655106E-010
   5.7000000000000037E-003     2.4171926286978952E-009
   5.9999999999999984E-003    -4.9886785601095220E-009
   6.3000000000000000E-003     1.2226135121069360E-009
   6.6000000000000017E-003     2.4250020464408103E-008
   6.9000000000000034E-003    -6.0007480093919976E-008
   7.2000000000000015E-003    -4.6372171022168392E-009
   7.5000000000000032E-003     2.6405873287104962E-007
   7.8000000000000014E-003    -2.7932834057907340E-007
   8.0999999999999996E-003    -7.6292638051123448E-007
   8.4000000000000012E-003     1.1519543022563979E-006
   8.7000000000000029E-003     2.0922252524297758E-006
   9.0000000000000011E-003    -2.9757997821619254E-006
   9.2999999999999992E-003    -7.2583084135016666E-006
   9.6000000000000009E-003     5.9804061338324856E-006
   9.8999999999999991E-003     4.6893368685696583E-005
   1.0200000000000001E-002     1.1254289017854083E-004
   1.0500000000000002E-002     1.9845387825052744E-004
   1.0800000000000004E-002     3.1086553936913465E-004
   1.1099999999999999E-002     4.7441859224469697E-004
   1.1400000000000000E-002     7.3539541260847269E-004
   1.1700000000000002E-002     1.1493329491079761E-003
   1.2000000000000004E-002     1.7767255959461232E-003
   1.2300000000000002E-002     2.7041491755505267E-003
   1.2600000000000000E-002     4.0596662298573458E-003
   1.2900000000000002E-002     6.0212059817439881E-003
   1.3200000000000000E-002     8.8290429089324593E-003
   1.3500000000000002E-002     1.2785316848818947E-002
   1.3800000000000003E-002     1.8253091286314461E-002
   1.4100000000000001E-002     2.5675663668935117E-002
   1.4400000000000000E-002     3.5592275310658499E-002
   1.4700000000000001E-002     4.8616349557580353E-002
   1.4999999999999999E-002     6.5395879567062859E-002
   1.5300000000000001E-002     8.6583636461971869E-002
   1.5600000000000003E-002    0.11278561546667670     
   1.5899999999999997E-002    0.14446114889169126     
   1.6199999999999999E-002    0.18180993166983730     
   1.6500000000000001E-002    0.22462783989003912     
   1.6800000000000002E-002    0.27213703754746338     
   1.7100000000000004E-002    0.32281720817727855     
   1.7400000000000006E-002    0.37424487319289157     
   1.7700000000000000E-002    0.42295860379236322     
   1.8000000000000002E-002    0.46440326991466729     
   1.8300000000000004E-002    0.49290769573946469     
   1.8600000000000005E-002    0.50181054938727487     
   1.8900000000000000E-002    0.48373273854127941     
   1.9200000000000002E-002    0.43102875429296306     
   1.9500000000000003E-002    0.33642063908411490     
   1.9799999999999998E-002    0.19370051083017936     
   2.0100000000000000E-002    -1.3448480136010119E-003
   2.0400000000000001E-002   -0.25012921263534282     
   2.0700000000000003E-002   -0.55034333328681750     
   2.0999999999999998E-002   -0.89513512636133052     
   2.1299999999999999E-002    -1.2727584736701061     
   2.1600000000000001E-002    -1.6663152407255393     
   2.1900000000000003E-002    -2.0543321270348676     
   2.2200000000000004E-002    -2.4115111134958891     
   2.2500000000000006E-002    -2.7101515214974441     
   2.2800000000000001E-002    -2.9220142876412467     
   2.3100000000000002E-002    -3.0203702763538232     
   2.3400000000000004E-002    -2.9824980678125961     
   2.3699999999999999E-002    -2.7920573087371867     
   2.4000000000000000E-002    -2.4410565376527495     
   2.4300000000000002E-002    -1.9315920738166890     
   2.4599999999999997E-002    -1.2763982823431212     
   2.4900000000000005E-002   -0.49900867375730362     
   2.5200000000000000E-002    0.36719573527300686     
   2.5499999999999995E-002     1.2810042602614398     
   2.5800000000000003E-002     2.1958280685886038     
   2.6099999999999998E-002     3.0628747666756033     
   2.6400000000000007E-002     3.8347752900384267     
   2.6700000000000002E-002     4.4687617352067788     
   2.6999999999999996E-002     4.9299024575184820     
   2.7300000000000005E-002     5.1932719252660871     
   2.7600000000000000E-002     5.2456290165903736     
   2.7900000000000008E-002     5.0858086941880050     
   2.8200000000000003E-002     4.7240345237755665     
   2.8499999999999998E-002     4.1807347500170335     
   2.8800000000000006E-002     3.4843588554549680     
   2.9100000000000001E-002     2.6690053396670588     
   2.9400000000000003E-002     1.7714339506745498     
   2.9700000000000004E-002    0.82912442711660628     
   3.0000000000000006E-002   -0.12239057248558358     
   3.0300000000000001E-002    -1.0506242467717748     
   3.0600000000000002E-002    -1.9266554760605039     
   3.0900000000000004E-002    -2.7258844544302310     
   3.1199999999999999E-002    -3.4268364583065813     
   3.1500000000000007E-002    -4.0110627878200162     
   3.1800000000000002E-002    -4.4622790157882450     
   3.2099999999999997E-002    -4.7652630783772398     
   3.2400000000000005E-002    -4.9064244213344033     
   3.2700000000000000E-002    -4.8736170910251122     
   3.3000000000000002E-002    -4.6571026117574039     
   3.3300000000000003E-002    -4.2515439604862593     
   3.3599999999999998E-002    -3.6570444880270294     
   3.3900000000000000E-002    -2.8818638640982748     
   3.4200000000000001E-002    -1.9435931417225643     
   3.4500000000000003E-002   -0.87004435439505645     
   3.4799999999999998E-002    0.29951815344843935     
   3.5099999999999999E-002     1.5162095973623249     
   3.5400000000000001E-002     2.7227224235933933     
   3.5699999999999996E-002     3.8562039619849262     
   3.6000000000000004E-002     4.8524766685965508     
   3.6299999999999999E-002     5.6497512563191874     
   3.6600000000000008E-002     6.1938194746452924     
   3.6900000000000002E-002     6.4423784218122444     
   3.7199999999999997E-002     6.3682412781781510     
   3.7500000000000006E-002     5.9629349676430241     
   3.7800000000000000E-002     5.2377690730856887     
   3.8100000000000009E-002     4.2236933803891050     
   3.8400000000000004E-002     2.9704361590495312     
   3.8699999999999998E-002     1.5429279461122680     
   3.9000000000000007E-002     1.7726539918068773E-002
   3.9300000000000002E-002    -1.5221675246298121     
   3.9600000000000003E-002    -2.9932086007303669     
   3.9900000000000005E-002    -4.3165134071996096     
   4.0200000000000000E-002    -5.4235082117362463     
   4.0500000000000001E-002    -6.2602409644924775     
   4.0800000000000003E-002    -6.7910627165493205     
   4.1100000000000005E-002    -7.0009951865638733     
   4.1399999999999999E-002    -6.8960365464842388     
   4.1700000000000008E-002    -6.5026285071421919     
   4.2000000000000003E-002    -5.8650776726919496     
   4.2299999999999997E-002    -5.0419108951201537     
   4.2600000000000006E-002    -4.1012871579146122     
   4.2900000000000001E-002    -3.1157229642146538     
   4.3200000000000002E-002    -2.1563787784354167     
   4.3500000000000004E-002    -1.2874640590150728     
   4.3799999999999999E-002   -0.56212518595135263     
   4.4100000000000000E-002    -1.7488579893965697E-002
   4.4400000000000002E-002    0.32705768212561692     
   4.4700000000000004E-002    0.47142143314775886     
   4.4999999999999998E-002    0.43440954640184537     
   4.5300000000000000E-002    0.25184224626667606     
   4.5600000000000002E-002    -2.6527303897637924E-002
   4.5899999999999996E-002   -0.34132128919542110     
   4.6200000000000005E-002   -0.62898766874327761     
   4.6500000000000000E-002   -0.82626089071735576     
   4.6799999999999994E-002   -0.87599889221209115     
   4.7100000000000003E-002   -0.73187466181360206     
   4.7399999999999998E-002   -0.36154115623551730     
   4.7700000000000006E-002    0.24961163516393542     
   4.8000000000000001E-002     1.0984618775566120     
   4.8300000000000010E-002     2.1632440000657236     
   4.8600000000000004E-002     3.4048313264994832     
   4.8899999999999999E-002     4.7699427481200463     
   4.9200000000000008E-002     6.1931708181531322     
   4.9500000000000002E-002     7.6020014943444112     
   4.9800000000000011E-002     8.9204147722363096     
   5.0100000000000006E-002     10.072600796512095     
   5.0400000000000000E-002     10.988115711256292     
   5.0700000000000009E-002     11.604043621378539     
   5.1000000000000004E-002     11.869310432351044     
   5.1299999999999998E-002     11.746475020716073     
   5.1600000000000007E-002     11.213301856640040     
   5.1900000000000002E-002     10.264995624819468     
   5.2200000000000010E-002     8.9131485838150724     
   5.2500000000000005E-002     7.1864200896007020     
   5.2800000000000000E-002     5.1300379435760135     
   5.3099999999999994E-002     2.8032660049414968     
   5.3400000000000003E-002    0.27802556192264249     
   5.3699999999999998E-002    -2.3635748918964623     
   5.4000000000000006E-002    -5.0320961529632093     
   5.4300000000000001E-002    -7.6343309521317781     
   5.4599999999999996E-002    -10.075967258145525     
   5.4900000000000004E-002    -12.265796728115943     
   5.5199999999999999E-002    -14.118266270754622     
   5.5499999999999994E-002    -15.557837756140898     
   5.5800000000000002E-002    -16.521576165617702     
   5.6099999999999997E-002    -16.962291668799580     
   5.6400000000000006E-002    -16.851644385954252     
   5.6700000000000000E-002    -16.181736759062595     
   5.6999999999999995E-002    -14.967614327000895     
   5.7300000000000004E-002    -13.247365040805104     
   5.7599999999999998E-002    -11.082714739371539     
   5.7900000000000007E-002    -8.5579038574147006     
   5.8200000000000002E-002    -5.7763808229287097     
   5.8499999999999996E-002    -2.8578345975869550     
   5.8800000000000005E-002     6.7245984622191113E-002
   5.9100000000000000E-002     2.8652974722838791     
   5.9400000000000008E-002     5.4049243026814988     
   5.9700000000000003E-002     7.5662641008646165     
   6.0000000000000012E-002     9.2486721510330074     
   6.0300000000000006E-002     10.376153498829247     
   6.0600000000000001E-002     10.905558029179147     
   6.0900000000000010E-002     10.827868984863938     
   6.1200000000000004E-002     10.170704092584259     
   6.1500000000000013E-002     8.9982538617198919     
   6.1800000000000008E-002     7.4045347775388173     
   6.2100000000000002E-002     5.5109164444526471     
   6.2399999999999997E-002     3.4555709341509306     
   6.2700000000000006E-002     1.3838014230983826     
   6.3000000000000000E-002   -0.56001352961575623     
   6.3300000000000009E-002    -2.2460751844967364     
   6.3600000000000004E-002    -3.5647248144777857     
   6.3899999999999998E-002    -4.4362576275505212     
   6.4199999999999993E-002    -4.8165581820935515     
   6.4500000000000002E-002    -4.6966964702441238     
   6.4800000000000010E-002    -4.1068659975798898     
   6.5100000000000005E-002    -3.1094379563555439     
   6.5400000000000000E-002    -1.7941272174346503     
   6.5700000000000008E-002   -0.27124499233292199     
   6.5999999999999989E-002     1.3406643327422207     
   6.6299999999999998E-002     2.9212458383191207     
   6.6600000000000006E-002     4.3612919664340062     
   6.6900000000000001E-002     5.5698823189986637     
   6.7199999999999996E-002     6.4795034239897307     
   6.7500000000000004E-002     7.0536863106806722     
   6.7800000000000013E-002     7.2839503262322660     
   6.8099999999999994E-002     7.1904095454257995     
   6.8400000000000002E-002     6.8173340998511520     
   6.8700000000000011E-002     6.2246059445860302     
   6.8999999999999992E-002     5.4831771681358097     
   6.9300000000000000E-002     4.6644182129156757     
   6.9600000000000009E-002     3.8337950912781764     
   6.9900000000000004E-002     3.0455786253020980     
   7.0199999999999999E-002     2.3362642593006195     
   7.0500000000000007E-002     1.7259710338111418     
   7.0800000000000016E-002     1.2164966631212200     
   7.1099999999999997E-002    0.79427479069352769     
   7.1400000000000005E-002    0.43633706090798929     
   7.1700000000000000E-002    0.11182515472263882     
   7.1999999999999995E-002   -0.20989228455444497     
   7.2300000000000003E-002   -0.55648627011884633     
   7.2600000000000012E-002   -0.94892625101879702     
   7.2900000000000006E-002    -1.3976848733813987     
   7.3200000000000001E-002    -1.9046947698213110     
   7.3499999999999996E-002    -2.4617354193027814     
   7.3800000000000004E-002    -3.0527261702146520     
   7.4099999999999999E-002    -3.6570779486451719     
   7.4400000000000008E-002    -4.2504683336481399     
   7.4700000000000003E-002    -4.8104113173035508     
   7.5000000000000011E-002    -5.3162410926481751     
   7.5299999999999992E-002    -5.7526548396057873     
   7.5600000000000001E-002    -6.1122191448110366     
   7.5900000000000009E-002    -6.3927657291596702     
   7.6200000000000004E-002    -6.6008589927157928     
   7.6499999999999999E-002    -6.7481867725106701     
   7.6800000000000007E-002    -6.8503785703330511     
   7.7099999999999988E-002    -6.9255106281582695     
   7.7399999999999997E-002    -6.9885469569281833     
   7.7700000000000005E-002    -7.0503525698431764     
   7.8000000000000014E-002    -7.1130667403714360     
   7.8299999999999995E-002    -7.1680687459215324     
   7.8600000000000003E-002    -7.1959211220414812     
   7.8900000000000012E-002    -7.1656088860541098     
   7.9199999999999993E-002    -7.0383662703711458     
   7.9500000000000001E-002    -6.7718448112651641     
   7.9800000000000010E-002    -6.3252008709647889     
   8.0100000000000018E-002    -5.6668129171694037     
   8.0399999999999999E-002    -4.7797391798479092     
   8.0700000000000008E-002    -3.6657814076170894     
   8.1000000000000003E-002    -2.3491236455612894     
   8.1299999999999997E-002   -0.87297705083438704     
   8.1600000000000006E-002    0.70421142338376308     
   8.1900000000000014E-002     2.3156500265014106     
   8.2199999999999995E-002     3.8992017895098487     
   8.2500000000000004E-002     5.4048114536793754     
   8.2799999999999999E-002     6.8071637980539528     
   8.3100000000000007E-002     8.1118216265611522     
   8.3400000000000002E-002     9.3550392761272292     
   8.3700000000000011E-002     10.603796693768913     
   8.4000000000000005E-002     11.942659954724091     
   8.4300000000000000E-002     13.459793391735113     
   8.4599999999999995E-002     15.229507117011305     
   8.4900000000000003E-002     17.289141937853824     
   8.5199999999999998E-002     19.623001121475294     
   8.5500000000000007E-002     22.146874572288755     
   8.5800000000000001E-002     24.700910745072637     
   8.6100000000000010E-002     27.053664614578672     
   8.6399999999999991E-002     28.911515630878235     
   8.6699999999999999E-002     29.944191234390800     
   8.7000000000000008E-002     29.813598519151320     
   8.7300000000000003E-002     28.209685566095299     
   8.7599999999999997E-002     24.890776003673491     
   8.7900000000000006E-002     19.716853769793069     
   8.8200000000000014E-002     12.681546252822066     
   8.8499999999999995E-002     3.9314625764200688     
   8.8800000000000004E-002    -6.2302552656470684     
   8.9100000000000013E-002    -17.347236085297933     
   8.9399999999999993E-002    -28.838062822341563     
   8.9700000000000002E-002    -40.030420565771180     
   9.0000000000000011E-002    -50.210251407419072     
   9.0299999999999991E-002    -58.676122544555326     
   9.0600000000000000E-002    -64.797345678760294     
   9.0900000000000009E-002    -68.065699052806224     
   9.1200000000000017E-002    -68.142366257275256     
   9.1499999999999998E-002    -64.890233229271587     
   9.1800000000000007E-002    -58.388354747174084     
   9.2100000000000001E-002    -48.933907589393691     
   9.2399999999999996E-002    -37.019726274047258     
   9.2700000000000005E-002    -23.300993683964183     
   9.3000000000000013E-002    -8.5467315483752540     
   9.3300000000000008E-002     6.4183152005053010     
   9.3600000000000003E-002     20.771503565839929     
   9.3899999999999997E-002     33.751912154436788     
   9.4200000000000006E-002     44.708848426599985     
   9.4500000000000001E-002     53.144893463431899     
   9.4800000000000009E-002     58.739048328948357     
   9.5100000000000004E-002     61.359115494280779     
   9.5399999999999999E-002     61.057558322689268     
   9.5699999999999993E-002     58.052345179220893     
   9.6000000000000002E-002     52.702856585586915     
   9.6300000000000011E-002     45.468969100692618     
   9.6600000000000005E-002     36.875771149333048     
   9.6900000000000000E-002     27.474729154575449     
   9.7200000000000009E-002     17.802404141170125     
   9.7499999999999989E-002     8.3562756396716509     
   9.7799999999999998E-002   -0.43573938414014890     
   9.8100000000000007E-002    -8.2293027852165057     
   9.8400000000000015E-002    -14.772476596992608     
   9.8699999999999996E-002    -19.910900516941346     
   9.9000000000000005E-002    -23.580576542798404     
   9.9300000000000013E-002    -25.803206878002875     
   9.9599999999999994E-002    -26.671658087243109     
   9.9900000000000003E-002    -26.336555720933614     
  0.10020000000000001         -24.991009411452151     
  0.10049999999999999         -22.852929803407338     
  0.10080000000000000         -20.151163052085053     
  0.10110000000000001         -17.109182265418617     
  0.10140000000000000         -13.933987809096358     
  0.10170000000000000         -10.805966136967607     
  0.10200000000000001         -7.8697572529088990     
  0.10230000000000002         -5.2336999997394358     
  0.10260000000000000         -2.9659318699266874     
  0.10290000000000001         -1.0989016312877906     
  0.10320000000000000         0.36608048214785827     
  0.10350000000000001          1.4547828037109500     
  0.10380000000000000          2.2087734302935020     
  0.10410000000000001          2.6816728608826486     
  0.10440000000000001          2.9294921427212595     
  0.10470000000000000          3.0068120148205195     
  0.10500000000000000          2.9627012121355745     
  0.10530000000000000          2.8388792730284562     
  0.10560000000000000          2.6687239163348639     
  0.10590000000000001          2.4775031451309060     
  0.10620000000000000          2.2861517198795989     
  0.10650000000000001          2.1083691818784036     
  0.10679999999999999          1.9569585259519462     
  0.10710000000000000          1.8407694864990556     
  0.10740000000000001          1.7657243964437677     
  0.10770000000000000          1.7377357904457114     
  0.10800000000000000          1.7553827350024953     
  0.10830000000000001          1.8176225827013308     
  0.10859999999999999          1.9169949948824443     
  0.10890000000000000          2.0424280362892056     
  0.10920000000000001          2.1829942451671163     
  0.10950000000000001          2.3216288471817319     
  0.10979999999999999          2.4451247427901794     
  0.11009999999999999          2.5394920972036861     
  0.11040000000000001          2.5932050368580102     
  0.11070000000000001          2.6006575754082664     
  0.11100000000000000          2.5564629677812891     
  0.11130000000000000          2.4622278705046403     
  0.11160000000000002          2.3203478187149127     
  0.11190000000000001          2.1344497201584067     
  0.11220000000000001          1.9115177491583371     
  0.11250000000000000          1.6549583787459841     
  0.11280000000000000          1.3708864000599879     
  0.11309999999999999          1.0631420349178833     
  0.11340000000000001         0.73526419448926894     
  0.11369999999999998         0.39261932985388687     
  0.11400000000000000          3.8888835025113075E-002
  0.11430000000000000        -0.31820559326534292     
  0.11460000000000002        -0.67084075080693717     
  0.11489999999999999         -1.0099162023772856     
  0.11520000000000001         -1.3241462421311245     
  0.11550000000000001         -1.6041204642399340     
  0.11580000000000000         -1.8414708579300885     
  0.11609999999999999         -2.0288277846750455     
  0.11640000000000002         -2.1633058519137576     
  0.11670000000000001         -2.2442629421172509     
  0.11700000000000001         -2.2746924956585688     
  0.11730000000000000         -2.2615140543398029     
  0.11760000000000000         -2.2106189534121938     
  0.11789999999999999         -2.1318163736459312     
  0.11820000000000001         -2.0318054140323838     
  0.11850000000000001         -1.9159048827976806     
  0.11880000000000000         -1.7898184085035451     
  0.11910000000000000         -1.6521608353603037     
  0.11940000000000002         -1.5040729113242026     
  0.11970000000000001         -1.3428868385530477     
  0.12000000000000001         -1.1640495045467167     
  0.12030000000000000        -0.96809650286759430     
  0.12060000000000000        -0.75093262928297022     
  0.12089999999999999        -0.51640613632546195     
  0.12119999999999999        -0.26829603477827646     
  0.12150000000000001         -1.1425893042900717E-002
  0.12180000000000001         0.24183513797212264     
  0.12210000000000000         0.48499581633796734     
  0.12239999999999999         0.70556578649563173     
  0.12270000000000002         0.89477000470547086     
  0.12300000000000001          1.0485316971180254     
  0.12330000000000001          1.1608108358370699     
  0.12360000000000000          1.2357755985794607     
  0.12390000000000000          1.2766577659219418     
  0.12419999999999999          1.2925513091316916     
  0.12450000000000001          1.2959852930917970     
  0.12480000000000001          1.2965584952164133     
  0.12509999999999999          1.3082873362823513     
  0.12540000000000001          1.3388379390535405     
  0.12570000000000003          1.3928839437492007     
  0.12600000000000000          1.4709625002017861     
  0.12630000000000002          1.5657350070158116     
  0.12659999999999999          1.6666111103313317     
  0.12690000000000001          1.7568371439838293     
  0.12719999999999998          1.8172681386870515     
  0.12750000000000000          1.8287116689248963     
  0.12780000000000002          1.7731119945622833     
  0.12809999999999999          1.6373894443318016     
  0.12840000000000001          1.4156128711198468     
  0.12869999999999998          1.1089465895435930     
  0.12900000000000000         0.72809339274906471     
  0.12930000000000003         0.29170397039519635     
  0.12959999999999999        -0.17621261872098828     
  0.12990000000000002        -0.64615887675198758     
  0.13019999999999998         -1.0902936318268086     
  0.13050000000000000         -1.4820429811447144     
  0.13080000000000003         -1.8010931818088700     
  0.13109999999999999         -2.0374741762432134     
  0.13140000000000002         -2.1877854563044243     
  0.13169999999999998         -2.2603754419301936     
  0.13200000000000001         -2.2704274902558703     
  0.13229999999999997         -2.2374054843143441     
  0.13260000000000000         -2.1836292194972531     
  0.13290000000000002         -2.1263764927397073     
  0.13319999999999999         -2.0784810281194908     
  0.13350000000000001         -2.0432100742745725     
  0.13380000000000003         -2.0134166454947069     
  0.13410000000000000         -1.9740745223090470     
  0.13440000000000002         -1.9018362097417312     
  0.13469999999999999         -1.7713210072321468     
  0.13500000000000001         -1.5585349764509084     
  0.13529999999999998         -1.2464769028696592     
  0.13560000000000000        -0.82825584613295111     
  0.13590000000000002        -0.31124128893188452     
  0.13619999999999999         0.28169416965080779     
  0.13650000000000001         0.91658625011371464     
  0.13680000000000003          1.5450558177949387     
  0.13710000000000000          2.1174770271375079     
  0.13740000000000002          2.5823797703887337     
  0.13769999999999999          2.8940886086245317     
  0.13800000000000001          3.0243468081641711     
  0.13829999999999998          2.9550376646187226     
  0.13860000000000000          2.6932707838412586     
  0.13890000000000002          2.2627542317177363     
  0.13919999999999999          1.7026959693673684     
  0.13950000000000001          1.0711719635273833     
  0.13979999999999998         0.42583303136992368     
  0.14010000000000000        -0.16825412945928792     
  0.14040000000000002        -0.65370717639677578     
  0.14069999999999999        -0.98711420211458956     
  0.14100000000000001         -1.1342651050388270     
  0.14130000000000004         -1.0857654324939241     
  0.14160000000000000        -0.84710748690215265     
  0.14189999999999997        -0.44215952723599128     
  0.14219999999999999          8.7135675979595373E-002
  0.14250000000000002         0.69149419410912349     
  0.14279999999999998          1.3116734717631036     
  0.14310000000000000          1.8885375744533608     
  0.14339999999999997          2.3671912183142774     
  0.14369999999999999          2.6987721288784710     
  0.14400000000000002          2.8481672490969383     
  0.14429999999999998          2.7945955633455828     
  0.14460000000000001          2.5314527997786787     
  0.14490000000000003          2.0705737399466391     
  0.14520000000000000          1.4373022813422445     
  0.14550000000000002         0.66942622494062376     
  0.14579999999999999        -0.18324678613911538     
  0.14610000000000001         -1.0679834049048089     
  0.14640000000000003         -1.9275879640923990     
  0.14670000000000000         -2.7076433721200366     
  0.14699999999999996         -3.3619142209601121     
  0.14729999999999999         -3.8494491886662963     
  0.14760000000000001         -4.1456490586612968     
  0.14789999999999998         -4.2364407249509464     
  0.14820000000000000         -4.1213775333210751     