  -1.4999999999999999E-002     0.0000000000000000     
  -1.4700000000000000E-002     0.0000000000000000     
  -1.4400000000000000E-002     0.0000000000000000     
  -1.4100000000000000E-002     0.0000000000000000     
  -1.3800000000000000E-002     0.0000000000000000     
  -1.3500000000000000E-002     3.5696349202933156E-041
  -1.3200000000000000E-002    -2.0802909026015904E-035
  -1.2899999999999998E-002     1.0495501291796609E-033
  -1.2600000000000000E-002    -6.0720204159011467E-033
  -1.2299999999999998E-002     2.4423631230266073E-032
  -1.2000000000000000E-002    -4.7241492738508218E-031
  -1.1699999999999999E-002    -3.8792683401360359E-029
  -1.1399999999999999E-002     7.5178753254574485E-028
  -1.1099999999999999E-002    -1.5660461079646784E-027
  -1.0799999999999999E-002    -1.1010421604412003E-025
  -1.0499999999999999E-002     1.8199391557077304E-024
  -1.0199999999999999E-002    -1.4365723002489830E-023
  -9.8999999999999991E-003     5.9456924557178820E-023
  -9.5999999999999992E-003    -4.3067835548911205E-023
  -9.2999999999999992E-003    -1.1135777915730310E-021
  -8.9999999999999993E-003     8.7661022536055368E-021
  -8.6999999999999994E-003    -4.1112255608711866E-020
  -8.3999999999999995E-003     1.4137001777716956E-019
  -8.0999999999999996E-003    -3.6844454171203585E-019
  -7.7999999999999988E-003     7.2171788881059145E-019
  -7.4999999999999997E-003    -1.0286602015775929E-018
  -7.1999999999999998E-003     9.0952880691246965E-019
  -6.8999999999999981E-003     1.2315994163688467E-019
  -6.5999999999999982E-003    -2.2009836932749601E-018
  -6.3000000000000000E-003     6.0846793959471447E-018
  -6.0000000000000001E-003    -2.6560342500760844E-017
  -5.6999999999999985E-003     1.2308819123059106E-016
  -5.3999999999999986E-003    -3.7713762154261827E-016
  -5.1000000000000004E-003     6.2574742868690388E-016
  -4.7999999999999987E-003     2.1428217833726512E-016
  -4.5000000000000005E-003    -4.7824587383337099E-015
  -4.1999999999999989E-003     1.5577904976361916E-014
  -3.8999999999999990E-003    -2.7141204227162225E-014
  -3.5999999999999990E-003     1.4079548820785974E-014
  -3.2999999999999991E-003     6.5673710445365586E-014
  -2.9999999999999992E-003    -2.2073095794666235E-013
  -2.6999999999999993E-003     3.3203314791458316E-013
  -2.3999999999999994E-003    -1.2010985212040790E-013
  -2.0999999999999977E-003    -6.4705097066055074E-013
  -1.7999999999999995E-003     1.7020531776073826E-012
  -1.4999999999999979E-003    -2.0147167437901527E-012
  -1.1999999999999997E-003     3.4134610843961183E-013
  -8.9999999999999976E-004     3.4090179209957321E-012
  -5.9999999999999810E-004    -7.1676624380969340E-012
  -2.9999999999999992E-004     7.6497924750319996E-012
   0.0000000000000000         -3.1873022480203694E-012
   3.0000000000000165E-004    -4.2692215993553387E-012
   5.9999999999999984E-004     1.0902087750142063E-011
   9.0000000000000149E-004    -1.5428461346978672E-011
   1.2000000000000031E-003     1.9661897055542712E-011
   1.5000000000000013E-003    -1.9252576075766040E-011
   1.8000000000000030E-003    -9.8374387237641282E-012
   2.1000000000000012E-003     1.0501377547395494E-010
   2.3999999999999994E-003    -2.4498746975526238E-010
   2.7000000000000010E-003     1.9689173574967514E-010
   2.9999999999999992E-003     5.0225330139362378E-010
   3.3000000000000008E-003    -1.9999587979526079E-009
   3.6000000000000025E-003     3.0808034551771049E-009
   3.9000000000000007E-003    -1.5735822319642885E-010
   4.2000000000000023E-003    -1.2862924168078860E-008
   4.5000000000000005E-003     3.4085097027702456E-008
   4.7999999999999987E-003    -1.3454973727587949E-008
   5.1000000000000004E-003    -1.3718439856593573E-007
   5.4000000000000020E-003     2.4926445233031807E-007
   5.7000000000000037E-003     2.9819771945541991E-007
   5.9999999999999984E-003    -1.1650252260155148E-006
   6.3000000000000000E-003    -7.3673820018213363E-007
   6.6000000000000017E-003     3.4977128684366384E-006
   6.9000000000000034E-003     2.6400059014578474E-006
   7.2000000000000015E-003    -8.3761437776460820E-006
   7.5000000000000032E-003    -9.9752599621035289E-006
   7.8000000000000014E-003     2.4018362678893576E-005
   8.0999999999999996E-003     8.5209218290919483E-005
   8.4000000000000012E-003     1.3823656667077489E-004
   8.7000000000000029E-003     1.8271409996443397E-004
   9.0000000000000011E-003     2.7367565083431908E-004
   9.2999999999999992E-003     4.6325016064345038E-004
   9.6000000000000009E-003     7.5709610851621952E-004
   9.8999999999999991E-003     1.1586190003421040E-003
   1.0200000000000001E-002     1.7407617312113865E-003
   1.0500000000000002E-002     2.6370195176562039E-003
   1.0800000000000004E-002     3.9716287138958032E-003
   1.1099999999999999E-002     5.8615117295260392E-003
   1.1400000000000000E-002     8.5039329488008145E-003
   1.1700000000000002E-002     1.2209885019143291E-002
   1.2000000000000004E-002     1.7332871539622086E-002
   1.2300000000000002E-002     2.4230803398646347E-002
   1.2600000000000000E-002     3.3339547765511221E-002
   1.2900000000000002E-002     4.5217441915069004E-002
   1.3200000000000000E-002     6.0455813577648121E-002
   1.3500000000000002E-002     7.9582890716732732E-002
   1.3800000000000003E-002    0.10307357058439678     
   1.4100000000000001E-002    0.13135037518744208     
   1.4400000000000000E-002    0.16464325252820555     
   1.4700000000000001E-002    0.20281288922065505     
   1.4999999999999999E-002    0.24525199742447212     
   1.5300000000000001E-002    0.29080466166545926     
   1.5600000000000003E-002    0.33766748274360026     
   1.5899999999999997E-002    0.38325643558575445     
   1.6199999999999999E-002    0.42410651565702395     
   1.6500000000000001E-002    0.45593365011076786     
   1.6800000000000002E-002    0.47373489369657440     
   1.7100000000000004E-002    0.47189819538289757     
   1.7400000000000006E-002    0.44447993421865584     
   1.7700000000000000E-002    0.38572870392093872     
   1.8000000000000002E-002    0.29055708026749821     
   1.8300000000000004E-002    0.15490006041794196     
   1.8600000000000005E-002    -2.3783851507641063E-002
   1.8900000000000000E-002   -0.24579309672222893     
   1.9200000000000002E-002   -0.50870971937166676     
   1.9500000000000003E-002   -0.80725847121943473     
   1.9799999999999998E-002    -1.1331731211095697     
   2.0100000000000000E-002    -1.4752896495225030     
   2.0400000000000001E-002    -1.8198266141671791     
   2.0700000000000003E-002    -2.1509457350942691     
   2.0999999999999998E-002    -2.4515354185872731     
   2.1299999999999999E-002    -2.7040956384341985     
   2.1600000000000001E-002    -2.8916085208892790     
   2.1900000000000003E-002    -2.9983336024286378     
   2.2200000000000004E-002    -3.0107236039183896     
   2.2500000000000006E-002    -2.9182258169677171     
   2.2800000000000001E-002    -2.7135587659415243     
   2.3100000000000002E-002    -2.3929590086636470     
   2.3400000000000004E-002    -1.9567071673398719     
   2.3699999999999999E-002    -1.4093780072019211     
   2.4000000000000000E-002   -0.75944366390445706     
   2.4300000000000002E-002    -1.9550602490820176E-002
   2.4599999999999997E-002    0.79303241974846661     
   2.4900000000000005E-002     1.6566207195574809     
   2.5200000000000000E-002     2.5448572933185494     
   2.5499999999999995E-002     3.4271329009977483     
   2.5800000000000003E-002     4.2690572134954969     
   2.6099999999999998E-002     5.0330054459951299     
   2.6400000000000007E-002     5.6798716799572722     
   2.6700000000000002E-002     6.1708038739297590     
   2.6999999999999996E-002     6.4699173401525272     
   2.7300000000000005E-002     6.5470241064812598     
   2.7600000000000000E-002     6.3802268928683930     
   2.7900000000000008E-002     5.9591757803128855     
   2.8200000000000003E-002     5.2871860302162350     
   2.8499999999999998E-002     4.3823404318164920     
   2.8800000000000006E-002     3.2780119384272126     
   2.9100000000000001E-002     2.0216940211639312     
   2.9400000000000003E-002    0.67267829555331304     
   2.9700000000000004E-002   -0.70150161021749913     
   3.0000000000000006E-002    -2.0295219317039730     
   3.0300000000000001E-002    -3.2411934641945814     
   3.0600000000000002E-002    -4.2723929152651738     
   3.0900000000000004E-002    -5.0698351212461121     
   3.1199999999999999E-002    -5.5947070407676618     
   3.1500000000000007E-002    -5.8247049186010482     
   3.1800000000000002E-002    -5.7552677098432810     
   3.2099999999999997E-002    -5.3989809977623509     
   3.2400000000000005E-002    -4.7834564659727965     
   3.2700000000000000E-002    -3.9485174213633121     
   3.3000000000000002E-002    -2.9422349835068662     
   3.3300000000000003E-002    -1.8174539207086715     
   3.3599999999999998E-002   -0.62845162006116684     
   3.3900000000000000E-002    0.57277316223531416     
   3.4200000000000001E-002     1.7385613881572854     
   3.4500000000000003E-002     2.8266064051743824     
   3.4799999999999998E-002     3.8012486754946320     
   3.5099999999999999E-002     4.6328421467278798     
   3.5400000000000001E-002     5.2971880456886051     
   3.5699999999999996E-002     5.7750089376614877     
   3.6000000000000004E-002     6.0507458533198122     
   3.6299999999999999E-002     6.1126094454126418     
   3.6600000000000008E-002     5.9518631832231570     
   3.6900000000000002E-002     5.5631265669060568     
   3.7199999999999997E-002     4.9458794011629639     
   3.7500000000000006E-002     4.1040770615154720     
   3.7800000000000000E-002     3.0471300789550293     
   3.8100000000000009E-002     1.7912573405808927     
   3.8400000000000004E-002    0.35921889604602719     
   3.8699999999999998E-002    -1.2191350334390243     
   3.9000000000000007E-002    -2.9076372962026520     
   3.9300000000000002E-002    -4.6643760602031623     
   3.9600000000000003E-002    -6.4425579358673923     
   3.9900000000000005E-002    -8.1918740455550942     
   4.0200000000000000E-002    -9.8594092463841339     
   4.0500000000000001E-002    -11.391164224374515     
   4.0800000000000003E-002    -12.733622095444487     
   4.1100000000000005E-002    -13.834449152969954     
   4.1399999999999999E-002    -14.643903509317411     
   4.1700000000000008E-002    -15.116419404344711     
   4.2000000000000003E-002    -15.212256495040926     
   4.2299999999999997E-002    -14.898834744503921     
   4.2600000000000006E-002    -14.153005356700339     
   4.2900000000000001E-002    -12.963690657320596     
   4.3200000000000002E-002    -11.332978948670588     
   4.3500000000000004E-002    -9.2787445290790274     
   4.3799999999999999E-002    -6.8358321544840548     
   4.4100000000000000E-002    -4.0568374137697658     
   4.4400000000000002E-002    -1.0121586479385776     
   4.4700000000000004E-002     2.2117060249875373     
   4.4999999999999998E-002     5.5141352819552916     
   4.5300000000000000E-002     8.7834880926060013     
   4.5600000000000002E-002     11.902253603111161     
   4.5899999999999996E-002     14.751917979457394     
   4.6200000000000005E-002     17.217902011428681     
   4.6500000000000000E-002     19.196325830733180     
   4.6799999999999994E-002     20.599060911851357     
   4.7100000000000003E-002     21.359184293625649     
   4.7399999999999998E-002     21.434621086745828     
   4.7700000000000006E-002     20.811444548586081     
   4.8000000000000001E-002     19.506501059769811     
   4.8300000000000010E-002     17.566715041345166     
   4.8600000000000004E-002     15.068342801937867     
   4.8899999999999999E-002     12.115147315934665     
   4.9200000000000008E-002     8.8337501577612336     
   4.9500000000000002E-002     5.3680073447786700     
   4.9800000000000011E-002     1.8732077321650857     
   5.0100000000000006E-002    -1.4918422940076583     
   5.0400000000000000E-002    -4.5740592129389750     
   5.0700000000000009E-002    -7.2334738235674241     
   5.1000000000000004E-002    -9.3513450351870766     
   5.1299999999999998E-002    -10.838533916532786     
   5.1600000000000007E-002    -11.641519614066167     
   5.1900000000000002E-002    -11.746204355352569     
   5.2200000000000010E-002    -11.179530431399993     
   5.2500000000000005E-002    -10.009097375411875     
   5.2800000000000000E-002    -8.3380071900979207     
   5.3099999999999994E-002    -6.2986277158446846     
   5.3400000000000003E-002    -4.0446300839676725     
   5.3699999999999998E-002    -1.7386557521180199     
   5.4000000000000006E-002    0.45928192491613729     
   5.4300000000000001E-002     2.4021896937365610     
   5.4599999999999996E-002     3.9668853398266108     
   5.4900000000000004E-002     5.0636361949511741     
   5.5199999999999999E-002     5.6406240052754013     
   5.5499999999999994E-002     5.6856968917786412     
   5.5800000000000002E-002     5.2266793358381385     
   5.6099999999999997E-002     4.3268019976170224     
   5.6400000000000006E-002     3.0775542504659956     
   5.6700000000000000E-002     1.5899393265111432     
   5.6999999999999995E-002    -1.5437879593065251E-002
   5.7300000000000004E-002    -1.6180641891442380     
   5.7599999999999998E-002    -3.1083973127380506     
   5.7900000000000007E-002    -4.3949250003937177     
   5.8200000000000002E-002    -5.4081455003417798     
   5.8499999999999996E-002    -6.1062907784003677     
   5.8800000000000005E-002    -6.4754852770242710     
   5.9100000000000000E-002    -6.5273327209383503     
   5.9400000000000008E-002    -6.2954645242414138     
   5.9700000000000003E-002    -5.8301764644996501     
   6.0000000000000012E-002    -5.1931779503551674     
   6.0300000000000006E-002    -4.4507092391529683     
   6.0600000000000001E-002    -3.6670057450507052     
   6.0900000000000010E-002    -2.8997918900793511     
   6.1200000000000004E-002    -2.1972765187639771     
   6.1500000000000013E-002    -1.5956882662426051     
   6.1800000000000008E-002    -1.1177376767802094     
   6.2100000000000002E-002   -0.77350112936699789     
   6.2399999999999997E-002   -0.56346671658551539     
   6.2700000000000006E-002   -0.48059844242767047     
   6.3000000000000000E-002   -0.51215430482430613     
   6.3300000000000009E-002   -0.64310834945971718     
   6.3600000000000004E-002   -0.85887157861226504     
   6.3899999999999998E-002    -1.1451905770458077     
   6.4199999999999993E-002    -1.4877868990606775     
   6.4500000000000002E-002    -1.8734137662557548     
   6.4800000000000010E-002    -2.2885382839169437     
   6.5100000000000005E-002    -2.7158972280059359     
   6.5400000000000000E-002    -3.1357671835242495     
   6.5700000000000008E-002    -3.5253997573098586     
   6.5999999999999989E-002    -3.8581518536833750     
   6.6299999999999998E-002    -4.1076681086281583     
   6.6600000000000006E-002    -4.2493058789133249     
   6.6900000000000001E-002    -4.2630811600525620     
   6.7199999999999996E-002    -4.1379710119502588     
   6.7500000000000004E-002    -3.8738813297668360     
   6.7800000000000013E-002    -3.4821501391277438     
   6.8099999999999994E-002    -2.9832300060045860     
   6.8400000000000002E-002    -2.4043192654827878     
   6.8700000000000011E-002    -1.7749594965044047     
   6.8999999999999992E-002    -1.1176758881692850     
   6.9300000000000000E-002   -0.44106209967200649     
   6.9600000000000009E-002    0.26392785423332854     
   6.9900000000000004E-002     1.0292293533975014     
   7.0199999999999999E-002     1.9101579883169517     
   7.0500000000000007E-002     2.9803977153699286     
   7.0800000000000016E-002     4.3233367434178600     
   7.1099999999999997E-002     6.0196946245626819     
   7.1400000000000005E-002     8.1317175051714639     
   7.1700000000000000E-002     10.686810471414805     
   7.1999999999999995E-002     13.663172607785594     
   7.2300000000000003E-002     16.976984584964413     
   7.2600000000000012E-002     20.478039371996601     
   7.2900000000000006E-002     23.952388085682433     
   7.3200000000000001E-002     27.130340298925386     
   7.3499999999999996E-002     29.706530955465148     
   7.3800000000000004E-002     31.363742412304113     
   7.4099999999999999E-002     31.802605726908880     
   7.4400000000000008E-002     30.774393144904593     
   7.4700000000000003E-002     28.108435675693077     
   7.5000000000000011E-002     23.739922368370106     
   7.5299999999999992E-002     17.726501902148719     
   7.5600000000000001E-002     10.252227829929685     
   7.5900000000000009E-002     1.6270210150411826     
   7.6200000000000004E-002    -7.7315466659434886     
   7.6499999999999999E-002    -17.325878804646123     
   7.6800000000000007E-002    -26.611445650948859     
   7.7099999999999988E-002    -35.039856503015514     
   7.7399999999999997E-002    -42.101083086737979     
   7.7700000000000005E-002    -47.359913581853881     
   7.8000000000000014E-002    -50.493834953737561     
   7.8299999999999995E-002    -51.316469321823597     
   7.8600000000000003E-002    -49.789277052826264     
   7.8900000000000012E-002    -46.026016699185760     
   7.9199999999999993E-002    -40.277687210805965     
   7.9500000000000001E-002    -32.912813690201034     
   7.9800000000000010E-002    -24.389772062503461     
   8.0100000000000018E-002    -15.214430495124137     
   8.0399999999999999E-002    -5.9061111421651908     
   8.0700000000000008E-002     3.0374669309245492     
   8.1000000000000003E-002     11.177439455610440     
   8.1299999999999997E-002     18.154452728041605     
   8.1600000000000006E-002     23.707832787326492     
   8.1900000000000014E-002     27.686263065405246     
   8.2199999999999995E-002     30.041710901427781     
   8.2500000000000004E-002     30.825816917328218     
   8.2799999999999999E-002     30.175077506509673     
   8.3100000000000007E-002     28.287395905184162     
   8.3400000000000002E-002     25.408235847024816     
   8.3700000000000011E-002     21.806624682343422     
   8.4000000000000005E-002     17.752817301629097     
   8.4300000000000000E-002     13.508438429340789     
   8.4599999999999995E-002     9.3069273589123291     
   8.4900000000000003E-002     5.3460996938352423     
   8.5199999999999998E-002     1.7854632393142786     
   8.5500000000000007E-002    -1.2632820680787034     
   8.5800000000000001E-002    -3.7301570766029499     
   8.6100000000000010E-002    -5.5843485083101978     
   8.6399999999999991E-002    -6.8352985209236401     
   8.6699999999999999E-002    -7.5215127977207956     
   8.7000000000000008E-002    -7.7063425094663067     
   8.7300000000000003E-002    -7.4726374610190867     
   8.7599999999999997E-002    -6.9112755979602563     
   8.7900000000000006E-002    -6.1183048709456633     
   8.8200000000000014E-002    -5.1887060535323908     
   8.8499999999999995E-002    -4.2068029418354129     
   8.8800000000000004E-002    -3.2459637724105468     
   8.9100000000000013E-002    -2.3637994676659799     
   8.9399999999999993E-002    -1.5992744603878037     
   8.9700000000000002E-002   -0.97728955919157690     
   9.0000000000000011E-002   -0.50556546016362724     
   9.0299999999999991E-002   -0.17651652928009320     
   9.0600000000000000E-002     2.4023790426245029E-002
   9.0900000000000009E-002    0.11772334108666260     
   9.1200000000000017E-002    0.13002930302597093     
   9.1499999999999998E-002     8.4305062458403968E-002
   9.1800000000000007E-002     4.0790144947172036E-003
   9.2100000000000001E-002    -9.2928689007053117E-002
   9.2399999999999996E-002   -0.19368546003192350     
   9.2700000000000005E-002   -0.28683032133308883     
   9.3000000000000013E-002   -0.36689563494353655     
   9.3300000000000008E-002   -0.43088837162730359     
   9.3600000000000003E-002   -0.47548929041692478     
   9.3899999999999997E-002   -0.50154758523336151     
   9.4200000000000006E-002   -0.50890223817461033     
   9.4500000000000001E-002   -0.49670048142622492     
   9.4800000000000009E-002   -0.46799171727379374     
   9.5100000000000004E-002   -0.42307400504284520     
   9.5399999999999999E-002   -0.36345523992263878     
   9.5699999999999993E-002   -0.29346259070227804     
   9.6000000000000002E-002   -0.21437592084258184     
   9.6300000000000011E-002   -0.12860763254019900     
   9.6600000000000005E-002    -3.8436613377713980E-002
   9.6900000000000000E-002     5.7310682026032914E-002
   9.7200000000000009E-002    0.15832142792464815     
   9.7499999999999989E-002    0.26705876365065612     
   9.7799999999999998E-002    0.38809772200559434     
   9.8100000000000007E-002    0.52277078945111988     
   9.8400000000000015E-002    0.67389551442400875     
   9.8699999999999996E-002    0.84272348004909015     
   9.9000000000000005E-002     1.0253226242347755     
   9.9300000000000013E-002     1.2169473827493689     
   9.9599999999999994E-002     1.4085110823020637     
   9.9900000000000003E-002     1.5866883248283643     
  0.10020000000000001          1.7396632740000064     
  0.10049999999999999          1.8532741752079032     
  0.10080000000000000          1.9139044574176283     
  0.10110000000000001          1.9129107948898274     
  0.10140000000000000          1.8439808647495086     
  0.10170000000000000          1.7076810124181427     
  0.10200000000000001          1.5094908872056672     
  0.10230000000000002          1.2575160215999901     
  0.10260000000000000         0.96732044931411920     
  0.10290000000000001         0.65651148974340656     
  0.10320000000000000         0.34060439268183595     
  0.10350000000000001          3.7484897685027246E-002
  0.10380000000000000        -0.23866266668071856     
  0.10410000000000001        -0.47866714645896535     
  0.10440000000000001        -0.67503269785642916     
  0.10470000000000000        -0.82749774974288481     
  0.10500000000000000        -0.93993501315928008     
  0.10530000000000000         -1.0174726605948361     
  0.10560000000000000         -1.0696811827618267     
  0.10590000000000001         -1.1057208870837274     
  0.10620000000000000         -1.1348152392839266     
  0.10650000000000001         -1.1661489935822003     
  0.10679999999999999         -1.2030931741593318     
  0.10710000000000000         -1.2487081473324917     
  0.10740000000000001         -1.3040877656086449     
  0.10770000000000000         -1.3647556833524328     
  0.10800000000000000         -1.4271122361625619     
  0.10830000000000001         -1.4854416076438519     
  0.10859999999999999         -1.5322350843834500     
  0.10890000000000000         -1.5621193740882022     
  0.10920000000000001         -1.5695446407171056     
  0.10950000000000001         -1.5495574614538103     
  0.10979999999999999         -1.4993141468235074     
  0.11009999999999999         -1.4167904471387156     
  0.11040000000000001         -1.3008212513423245     
  0.11070000000000001         -1.1524153387995186     
  0.11100000000000000        -0.97283154876661282     
  0.11130000000000000        -0.76451608744484401     
  0.11160000000000002        -0.53250396092725771     
  0.11190000000000001        -0.28251822286068573     
  0.11220000000000001         -2.2824627853357336E-002
  0.11250000000000000         0.23677212557939734     
  0.11280000000000000         0.48641957636246969     
  0.11309999999999999         0.71239348134092140     
  0.11340000000000001         0.90192283642699522     
  0.11369999999999998          1.0448462853214460     
  0.11400000000000000          1.1309424771433392     
  0.11430000000000000          1.1544991241402554     
  0.11460000000000002          1.1147505405805431     
  0.11489999999999999          1.0149305754718017     
  0.11520000000000001         0.86556114646475790     
  0.11550000000000001         0.68157654103915288     
  0.11580000000000000         0.48085206960275295     
  0.11609999999999999         0.28519641055181583     
  0.11640000000000002         0.11519739118194938     
  0.11670000000000001         -1.0506128791565986E-002
  0.11700000000000001         -7.6894433371148124E-002
  0.11730000000000000         -7.7068012624235557E-002
  0.11760000000000000         -1.1372299050974893E-002
  0.11789999999999999         0.11297209630507932     
  0.11820000000000001         0.28023561497571775     
  0.11850000000000001         0.46966763465062189     
  0.11880000000000000         0.65768489444622191     
  0.11910000000000000         0.81978042607942969     
  0.11940000000000002         0.93668900497181262     
  0.11970000000000001         0.99456585979525869     
  0.12000000000000001         0.98706228685935749     
  0.12030000000000000         0.91933771567542566     
  0.12060000000000000         0.80595722895734523     
  0.12089999999999999         0.66780230684613928     
  0.12119999999999999         0.53307027832143106     
  0.12150000000000001         0.42974097535071198     
  0.12180000000000001         0.38334303307735940     
  0.12210000000000000         0.41362481487572189     
  0.12239999999999999         0.52724878776418427     
  0.12270000000000002         0.72061867100439980     
  0.12300000000000001         0.97537742539698979     
  0.12330000000000001          1.2597303432924862     
  0.12360000000000000          1.5358168198637681     
  0.12390000000000000          1.7582251559281106     
  0.12419999999999999          1.8809728638951535     
  0.12450000000000001          1.8665715526593125     
  0.12480000000000001          1.6857382059541992     
  0.12509999999999999          1.3250486524681961     
  0.12540000000000001         0.78897364817978333     
  0.12570000000000003          9.8970825269303564E-002
  0.12600000000000000        -0.70705449000929976     
  0.12630000000000002         -1.5781897599008718     
  0.12659999999999999         -2.4547133499199854     
  0.12690000000000001         -3.2738098225693046     
  0.12719999999999998         -3.9763639549890661     
  0.12750000000000000         -4.5111970753056623     
  0.12780000000000002         -4.8378744178752529     
  0.12809999999999999         -4.9327579956465648     
  0.12840000000000001         -4.7893795805354040     
  0.12869999999999998         -4.4159626527567113     
  0.12900000000000000         -3.8366526996765984     
  0.12930000000000003         -3.0871776731176244     
  0.12959999999999999         -2.2111605882213716     
  0.12990000000000002         -1.2587011980508880     
  0.13019999999999998        -0.27890015618923858     
  0.13050000000000000         0.68088150614495491     
  0.13080000000000003          1.5767862830198465     
  0.13109999999999999          2.3734378467334727     
  0.13140000000000002          3.0432897599834616     
  0.13169999999999998          3.5669577920238846     
  0.13200000000000001          3.9333929490973958     
  0.13229999999999997          4.1398180177936128     
  0.13260000000000000          4.1913037707674334     
  0.13290000000000002          4.0981718186981269     
  0.13319999999999999          3.8756462921653299     
  0.13350000000000001          3.5444145438372487     
  0.13380000000000003          3.1268889965582192     
  0.13410000000000000          2.6459235873350266     
  0.13440000000000002          2.1254060381691233     
  0.13469999999999999          1.5889651666050753     
  0.13500000000000001          1.0567445158550264     
  0.13529999999999998         0.54560276964524212     
  0.13560000000000000          6.9971681604172609E-002
  0.13590000000000002        -0.36056276088101041     
  0.13619999999999999        -0.74046867717537102     
  0.13650000000000001         -1.0667251512923288     
  0.13680000000000003         -1.3404633838025828     
  0.13710000000000000         -1.5638688924092647     
  0.13740000000000002         -1.7400831449526422     
  0.13769999999999999         -1.8723257060544753     
  0.13800000000000001         -1.9622343539139413     
  0.13829999999999998         -2.0122614930288254     
  0.13860000000000000         -2.0217972943082367     
  0.13890000000000002         -1.9886807798320856     
  0.13919999999999999         -1.9126273467558352     
  0.13950000000000001         -1.7924872026802423     
  0.13979999999999998         -1.6278355808233418     
  0.14010000000000000         -1.4216550421378678     
  0.14040000000000002         -1.1790334070712716     
  0.14069999999999999        -0.90829299976588118     
  0.14100000000000001        -0.62032629293859898     
  0.14130000000000004        -0.32856179645412581     
  0.14160000000000000         -4.7660987458724574E-002
  0.14189999999999997         0.20726780306360737     
  0.14219999999999999         0.42267147624193990     
  0.14250000000000002         0.58727358091598814     
  0.14279999999999998         0.69180887286167936     
  0.14310000000000000         0.73330499981379293     
  0.14339999999999997         0.71247624068926418     
  0.14369999999999999         0.63409709225838218     
  0.14400000000000002         0.50765542089610338     
  0.14429999999999998         0.34392754057492880     
  0.14460000000000001         0.15884762685741680     
  0.14490000000000003         -3.2100403573601770E-002
  0.14520000000000000        -0.21598744793496208     
  0.14550000000000002        -0.37785172178556276     
  0.14579999999999999        -0.50747120105023769     
  0.14610000000000001        -0.59803093031559595     
  0.14640000000000003        -0.64449912841373491     
  0.14670000000000000        -0.64781203564001766     
  0.14699999999999996        -0.61047809249910268     
  0.14729999999999999        -0.53847678467616444     
  0.14760000000000001        -0.44096309931479577     
  0.14789999999999998        -0.32670451339849876     
  0.14820000000000000        -0.20675620938525582     