  -1.4999999999999999E-002     0.0000000000000000     
  -1.4700000000000000E-002    -1.1795751263794156E-014
  -1.4400000000000000E-002    -4.9812471881903394E-013
  -1.4100000000000000E-002     3.5175686583113346E-011
  -1.3800000000000000E-002     3.3912702004835463E-011
  -1.3500000000000000E-002    -7.5125043433243561E-010
  -1.3200000000000000E-002    -8.0743557687043113E-010
  -1.2899999999999998E-002     1.2729034195176494E-009
  -1.2600000000000000E-002     1.3169322128963649E-008
  -1.2299999999999998E-002     1.4039182159400852E-008
  -1.2000000000000000E-002    -5.5758035432959875E-008
  -1.1699999999999999E-002    -1.0745393158334356E-007
  -1.1399999999999999E-002     3.3560412048608206E-008
  -1.1099999999999999E-002     3.8921595774779016E-007
  -1.0799999999999999E-002     2.3480742319069485E-007
  -1.0499999999999999E-002    -5.9093964306078144E-007
  -1.0199999999999999E-002    -5.1908143516803421E-007
  -9.8999999999999991E-003    -9.2400623567939102E-008
  -9.5999999999999992E-003    -1.5281831976199587E-007
  -9.2999999999999992E-003     9.2575395277617062E-007
  -8.9999999999999993E-003     1.8361185349480016E-006
  -8.6999999999999994E-003     9.2891624411234247E-007
  -8.3999999999999995E-003    -9.6353506236604284E-007
  -8.0999999999999996E-003    -3.5732041376423868E-006
  -7.7999999999999988E-003    -4.9618808061073978E-006
  -7.4999999999999997E-003    -1.5220957035454879E-006
  -7.1999999999999998E-003     5.9862806674776673E-006
  -6.8999999999999981E-003     9.5842495657097388E-006
  -6.5999999999999982E-003     8.6019852408509257E-006
  -6.3000000000000000E-003    -9.3612923724494191E-008
  -6.0000000000000001E-003    -2.2749553259281249E-005
  -5.6999999999999985E-003    -2.6427353891394413E-005
  -5.3999999999999986E-003     3.2678960061244494E-005
  -5.1000000000000004E-003     1.8699275448773404E-004
  -4.7999999999999987E-003     4.4159514726326737E-004
  -4.5000000000000005E-003     7.3897414569734101E-004
  -4.1999999999999989E-003     1.0442627436687887E-003
  -3.8999999999999990E-003     1.4264618354286518E-003
  -3.5999999999999990E-003     2.0676788323784928E-003
  -3.2999999999999991E-003     3.1666639595174071E-003
  -2.9999999999999992E-003     4.8798585623642619E-003
  -2.6999999999999993E-003     7.3987297605351346E-003
  -2.3999999999999994E-003     1.0979530135992325E-002
  -2.0999999999999977E-003     1.6021731135493121E-002
  -1.7999999999999995E-003     2.3073304271899756E-002
  -1.4999999999999979E-003     3.2764631655108740E-002
  -1.1999999999999997E-003     4.5758490852307349E-002
  -8.9999999999999976E-004     6.2763933735317134E-002
  -5.9999999999999810E-004     8.4599761354986230E-002
  -2.9999999999999992E-004    0.11203471405888152     
   0.0000000000000000         0.14573792579121669     
   3.0000000000000165E-004    0.18611107566558538     
   5.9999999999999984E-004    0.23290387835851190     
   9.0000000000000149E-004    0.28502463694357660     
   1.2000000000000031E-003    0.34032572131735378     
   1.5000000000000013E-003    0.39538447872838756     
   1.8000000000000030E-003    0.44504244923791170     
   2.1000000000000012E-003    0.48222735030755348     
   2.3999999999999994E-003    0.49812704592529711     
   2.7000000000000010E-003    0.48210687575327493     
   2.9999999999999992E-003    0.42201109112197527     
   3.3000000000000008E-003    0.30490018844831657     
   3.6000000000000025E-003    0.11830791630177639     
   3.9000000000000007E-003   -0.14850616443143450     
   4.2000000000000023E-003   -0.50319594689866820     
   4.5000000000000005E-003   -0.94799804390494957     
   4.7999999999999987E-003    -1.4781975363180904     
   5.1000000000000004E-003    -2.0805881984420043     
   5.4000000000000020E-003    -2.7320998226521289     
   5.7000000000000037E-003    -3.3993678181650631     
   5.9999999999999984E-003    -4.0392091608479745     
   6.3000000000000000E-003    -4.6007288889300959     
   6.6000000000000017E-003    -5.0281727113345003     
   6.9000000000000034E-003    -5.2647803745504511     
   7.2000000000000015E-003    -5.2584294244140199     
   7.5000000000000032E-003    -4.9672283372662154     
   7.8000000000000014E-003    -4.3656020918194276     
   8.0999999999999996E-003    -3.4494972484466286     
   8.4000000000000012E-003    -2.2400734081385507     
   8.7000000000000029E-003   -0.78641624299976520     
   9.0000000000000011E-003    0.83566014482979822     
   9.2999999999999992E-003     2.5266161256646407     
   9.6000000000000009E-003     4.1696954650044926     
   9.8999999999999991E-003     5.6401648483285447     
   1.0200000000000001E-002     6.8163907992094188     
   1.0500000000000002E-002     7.5925794420773167     
   1.0800000000000004E-002     7.8911488547420117     
   1.1099999999999999E-002     7.6746588172111281     
   1.1400000000000000E-002     6.9546824258156743     
   1.1700000000000002E-002     5.7974835805176195     
   1.2000000000000004E-002     4.3238589590841485     
   1.2300000000000002E-002     2.7037414958648394     
   1.2600000000000000E-002     1.1457534894866526     
   1.2900000000000002E-002   -0.12019961297417781     
   1.3200000000000000E-002   -0.86402137006893454     
   1.3500000000000002E-002   -0.88026362896585475     
   1.3800000000000003E-002    -1.3024015677481016E-002
   1.4100000000000001E-002     1.8189525276289280     
   1.4400000000000000E-002     4.6018262739257141     
   1.4700000000000001E-002     8.2146256381487248     
   1.4999999999999999E-002     12.424207474693247     
   1.5300000000000001E-002     16.893245517525926     
   1.5600000000000003E-002     21.198389590505936     
   1.5899999999999997E-002     24.860628312617123     
   1.6199999999999999E-002     27.384795378963091     
   1.6500000000000001E-002     28.306002142428923     
   1.6800000000000002E-002     27.238721461893995     
   1.7100000000000004E-002     23.922009108350409     
   1.7400000000000006E-002     18.259444357540158     
   1.7700000000000000E-002     10.343923274330038     
   1.8000000000000002E-002    0.46921231500295679     
   1.8300000000000004E-002    -10.879245333850180     
   1.8600000000000005E-002    -23.051990428508919     
   1.8900000000000000E-002    -35.278083139984730     
   1.9200000000000002E-002    -46.727622026918127     
   1.9500000000000003E-002    -56.574019792849491     
   1.9799999999999998E-002    -64.066684352951285     
   2.0100000000000000E-002    -68.594431181956367     
   2.0400000000000001E-002    -69.738867209699436     
   2.0700000000000003E-002    -67.313278741115326     
   2.0999999999999998E-002    -61.379249766604261     
   2.1299999999999999E-002    -52.243081245038454     
   2.1600000000000001E-002    -40.430907342978529     
   2.1900000000000003E-002    -26.646723308116044     
   2.2200000000000004E-002    -11.714722949536426     
   2.2500000000000006E-002     3.4856198716396776     
   2.2800000000000001E-002     18.084881611048868     
   2.3100000000000002E-002     31.288549176315570     
   2.3400000000000004E-002     42.432237901584166     
   2.3699999999999999E-002     51.017618929477138     
   2.4000000000000000E-002     56.742319483294679     
   2.4300000000000002E-002     59.504786377143446     
   2.4599999999999997E-002     59.395323875880941     
   2.4900000000000005E-002     56.675677906632217     
   2.5200000000000000E-002     51.744159217991985     
   2.5499999999999995E-002     45.093095425099307     
   2.5800000000000003E-002     37.267125091852805     
   2.6099999999999998E-002     28.817000326084838     
   2.6400000000000007E-002     20.261945201940648     
   2.6700000000000002E-002     12.057947366155176     
   2.6999999999999996E-002     4.5731833088332294     
   2.7300000000000005E-002    -1.9234364826702066     
   2.7600000000000000E-002    -7.2657793335751997     
   2.7900000000000008E-002    -11.387829731387956     
   2.8200000000000003E-002    -14.306434431520053     
   2.8499999999999998E-002    -16.108435562926232     
   2.8800000000000006E-002    -16.930004042505921     
   2.9100000000000001E-002    -16.932965909406413     
   2.9400000000000003E-002    -16.294401238433977     
   2.9700000000000004E-002    -15.183147572356468     
   3.0000000000000006E-002    -13.754743967310613     
   3.0300000000000001E-002    -12.144363763610091     
   3.0600000000000002E-002    -10.458836846881180     
   3.0900000000000004E-002    -8.7857139808673548     
   3.1199999999999999E-002    -7.1865576745591966     
   3.1500000000000007E-002    -5.7082212871719245     
   3.1800000000000002E-002    -4.3832840810252680     
   3.2099999999999997E-002    -3.2311724618654072     
   3.2400000000000005E-002    -2.2664855856542454     
   3.2700000000000000E-002    -1.4932607473792938     
   3.3000000000000002E-002   -0.91091856746554312     
   3.3300000000000003E-002   -0.51135422208181058     
   3.3599999999999998E-002   -0.27992829205138903     
   3.3900000000000000E-002   -0.19587597189889039     
   3.4200000000000001E-002   -0.23341049344642467     
   3.4500000000000003E-002   -0.36338474878268845     
   3.4799999999999998E-002   -0.55465000944295539     
   3.5099999999999999E-002   -0.77903244403561556     
   3.5400000000000001E-002    -1.0090712877442760     
   3.5699999999999996E-002    -1.2249700242712895     
   3.6000000000000004E-002    -1.4098050928354560     
   3.6299999999999999E-002    -1.5523677508549658     
   3.6600000000000008E-002    -1.6489252188993211     
   3.6900000000000002E-002    -1.6933898214915766     
   3.7199999999999997E-002    -1.6877889138406381     
   3.7500000000000006E-002    -1.6297719152523251     
   3.7800000000000000E-002    -1.5183607011235332     
   3.8100000000000009E-002    -1.3556702435758781     
   3.8400000000000004E-002    -1.1377181347658163     
   3.8699999999999998E-002   -0.87089515747825175     
   3.9000000000000007E-002   -0.55798578820833500     
   3.9300000000000002E-002   -0.20883677731848108     
   3.9600000000000003E-002    0.16037875970758575     
   3.9900000000000005E-002    0.53536338324624744     
   4.0200000000000000E-002    0.89092265921451508     
   4.0500000000000001E-002     1.2073587479856605     
   4.0800000000000003E-002     1.4643343549130625     
   4.1100000000000005E-002     1.6438231330178756     
   4.1399999999999999E-002     1.7386448547397748     
   4.1700000000000008E-002     1.7443334982319656     
   4.2000000000000003E-002     1.6671346692171425     
   4.2299999999999997E-002     1.5204487886301155     
   4.2600000000000006E-002     1.3203391839478968     
   4.2900000000000001E-002     1.0889218379723344     
   4.3200000000000002E-002    0.84759884546598907     
   4.3500000000000004E-002    0.61484337510892140     
   4.3799999999999999E-002    0.40815511829329199     
   4.4100000000000000E-002    0.23708743820565470     
   4.4400000000000002E-002    0.10800984577244405     
   4.4700000000000004E-002     2.4636196941961012E-002
   4.4999999999999998E-002    -1.6922700640323377E-002
   4.5300000000000000E-002    -1.7021751809285821E-002
   4.5600000000000002E-002     1.9092947281238032E-002
   4.5899999999999996E-002     8.5902655869962430E-002
   4.6200000000000005E-002    0.18225725160560668     
   4.6500000000000000E-002    0.29923703531901280     
   4.6799999999999994E-002    0.43427566679630925     
   4.7100000000000003E-002    0.57882488989533809     
   4.7399999999999998E-002    0.72211796003651840     
   4.7700000000000006E-002    0.85674461738534857     
   4.8000000000000001E-002    0.96616721983372678     
   4.8300000000000010E-002     1.0422586689399016     
   4.8600000000000004E-002     1.0735121652310455     
   4.8899999999999999E-002     1.0527199822270079     
   4.9200000000000008E-002    0.98159555711607216     
   4.9500000000000002E-002    0.86077505221580042     
   4.9800000000000011E-002    0.70350004929901788     
   5.0100000000000006E-002    0.52260997734307257     
   5.0400000000000000E-002    0.33543320715280495     
   5.0700000000000009E-002    0.16129186582279015     
   5.1000000000000004E-002     1.3768629601522715E-002
   5.1299999999999998E-002    -9.3713968025553790E-002
   5.1600000000000007E-002   -0.15699617098413643     
   5.1900000000000002E-002   -0.17631244491822501     
   5.2200000000000010E-002   -0.15851431896260645     
   5.2500000000000005E-002   -0.11523633700024291     
   5.2800000000000000E-002    -6.0191747683851382E-002
   5.3099999999999994E-002    -7.2528674063605785E-003
   5.3400000000000003E-002     3.2533104428126083E-002
   5.3699999999999998E-002     5.0248524234901781E-002
   5.4000000000000006E-002     4.4743502204489062E-002
   5.4300000000000001E-002     1.6306286618662909E-002
   5.4599999999999996E-002    -2.8498559556674255E-002
   5.4900000000000004E-002    -8.1310128651143024E-002
   5.5199999999999999E-002   -0.13542669193738374     
   5.5499999999999994E-002   -0.18193890725019574     
   5.5800000000000002E-002   -0.21992011348060869     
   5.6099999999999997E-002   -0.24776100212285512     
   5.6400000000000006E-002   -0.26881088101072587     
   5.6700000000000000E-002   -0.29042574248299841     
   5.6999999999999995E-002   -0.31643191975076362     
   5.7300000000000004E-002   -0.35531281180273999     
   5.7599999999999998E-002   -0.40762348719664127     
   5.7900000000000007E-002   -0.47310253227935606     
   5.8200000000000002E-002   -0.54671680053791483     
   5.8499999999999996E-002   -0.61729701066820430     
   5.8800000000000005E-002   -0.67450958578953457     
   5.9100000000000000E-002   -0.70387836266209947     
   5.9400000000000008E-002   -0.69559382057356922     
   5.9700000000000003E-002   -0.64234775274534528     
   6.0000000000000012E-002   -0.54257523789708428     
   6.0300000000000006E-002   -0.40233083704517925     
   6.0600000000000001E-002   -0.23354015346217860     
   6.0900000000000010E-002    -5.4781523814064030E-002
   6.1200000000000004E-002    0.11351496602058708     
   6.1500000000000013E-002    0.24854481988772786     
   6.1800000000000008E-002    0.33197572886828519     
   6.2100000000000002E-002    0.35016373208122975     
   6.2399999999999997E-002    0.29812960284761392     
   6.2700000000000006E-002    0.18107907343961094     
   6.3000000000000000E-002     1.1771021983148000E-002
   6.3300000000000009E-002   -0.18466492002589746     
   6.3600000000000004E-002   -0.38135997481668171     
   6.3899999999999998E-002   -0.54584108994256897     
   6.4199999999999993E-002   -0.64756409734521569     
   6.4500000000000002E-002   -0.66429347223227608     
   6.4800000000000010E-002   -0.57911217241158075     
   6.5100000000000005E-002   -0.39223709685042696     
   6.5400000000000000E-002   -0.11257879723969308     
   6.5700000000000008E-002    0.23482312271115025     
   6.5999999999999989E-002    0.61327020854109127     
   6.6299999999999998E-002    0.98192029044654472     
   6.6600000000000006E-002     1.2911989834652313     
   6.6900000000000001E-002     1.4989192933001969     
   6.7199999999999996E-002     1.5670574544656573     
   6.7500000000000004E-002     1.4713073146084641     
   6.7800000000000013E-002     1.2043554772354252     
   6.8099999999999994E-002    0.77447792860602727     
   6.8400000000000002E-002    0.21267501934478455     
   6.8700000000000011E-002   -0.43788913462728418     
   6.8999999999999992E-002    -1.1178880944858882     
   6.9300000000000000E-002    -1.7626315931909162     
   6.9600000000000009E-002    -2.3069158611321035     
   6.9900000000000004E-002    -2.6906980234086593     
   7.0199999999999999E-002    -2.8688180996997463     
   7.0500000000000007E-002    -2.8111478425301941     
   7.0800000000000016E-002    -2.5133634157607903     
   7.1099999999999997E-002    -1.9904251605315852     
   7.1400000000000005E-002    -1.2802922080761339     
   7.1700000000000000E-002   -0.44022193170364732     
   7.1999999999999995E-002    0.46373557364149076     
   7.2300000000000003E-002     1.3556676895762765     
   7.2600000000000012E-002     2.1655635986740709     
   7.2900000000000006E-002     2.8290642735629317     
   7.3200000000000001E-002     3.2970985646406632     
   7.3499999999999996E-002     3.5412946174200930     
   7.3800000000000004E-002     3.5494293818648250     
   7.4099999999999999E-002     3.3341349959717852     
   7.4400000000000008E-002     2.9225198752985824     
   7.4700000000000003E-002     2.3556844036429307     
   7.5000000000000011E-002     1.6854160690553128     
   7.5299999999999992E-002    0.96400823201520280     
   7.5600000000000001E-002    0.24451539864776528     
   7.5900000000000009E-002   -0.42661272048974808     
   7.6200000000000004E-002    -1.0121998592383428     
   7.6499999999999999E-002    -1.4846079908523302     
   7.6800000000000007E-002    -1.8281156491961328     
   7.7099999999999988E-002    -2.0375115682232798     
   7.7399999999999997E-002    -2.1152150533982614     
   7.7700000000000005E-002    -2.0734252685007926     
   7.8000000000000014E-002    -1.9278205125271286     
   7.8299999999999995E-002    -1.6978511334364523     
   7.8600000000000003E-002    -1.4085132602392609     
   7.8900000000000012E-002    -1.0800603976831975     
   7.9199999999999993E-002   -0.73792421164309663     
   7.9500000000000001E-002   -0.40359900126785253     
   7.9800000000000010E-002    -9.4601314454529739E-002
   8.0100000000000018E-002    0.16858213488409851     
   8.0399999999999999E-002    0.37792487386624662     
   8.0700000000000008E-002    0.52223347437790157     
   8.1000000000000003E-002    0.59957045749673210     
   8.1299999999999997E-002    0.61540004387415481     
   8.1600000000000006E-002    0.57217849852241986     
   8.1900000000000014E-002    0.48742630031295953     
   8.2199999999999995E-002    0.37183296845315844     
   8.2500000000000004E-002    0.24178138664386650     
   8.2799999999999999E-002    0.11566867173499978     
   8.3100000000000007E-002     1.3394932886245242E-003
   8.3400000000000002E-002    -8.5954608025768681E-002
   8.3700000000000011E-002   -0.14396105626868921     
   8.4000000000000005E-002   -0.17148087720880711     
   8.4300000000000000E-002   -0.16777104198546600     
   8.4599999999999995E-002   -0.14363762042757416     
   8.4900000000000003E-002   -0.10224690846700177     
   8.5199999999999998E-002    -5.3046106349992100E-002
   8.5500000000000007E-002    -4.9867908067653677E-003
   8.5800000000000001E-002     3.9976581642032757E-002
   8.6100000000000010E-002     7.4474071676939618E-002
   8.6399999999999991E-002     9.9500780844030190E-002
   8.6699999999999999E-002    0.11612207284529208     
   8.7000000000000008E-002    0.12286660899348489     
   8.7300000000000003E-002    0.12544237919446941     
   8.7599999999999997E-002    0.12336528006271721     
   8.7900000000000006E-002    0.11756241026167981     
   8.8200000000000014E-002    0.11169849516796226     
   8.8499999999999995E-002    0.10121207625755535     
   8.8800000000000004E-002     8.9105915476662037E-002
   8.9100000000000013E-002     7.3681135743497744E-002
   8.9399999999999993E-002     5.2008468951489147E-002
   8.9700000000000002E-002     2.9763429667632027E-002
   9.0000000000000011E-002     2.5672607728887548E-003
   9.0299999999999991E-002    -2.4804727385062939E-002
   9.0600000000000000E-002    -4.9983811906084058E-002
   9.0900000000000009E-002    -7.4846242644569461E-002
   9.1200000000000017E-002    -9.2476196639825453E-002
   9.1499999999999998E-002   -0.10694673402480624     
   9.1800000000000007E-002   -0.11576472622404788     
   9.2100000000000001E-002   -0.11804448076540261     
   9.2399999999999996E-002   -0.11863340703706443     
   9.2700000000000005E-002   -0.11338952157039812     
   9.3000000000000013E-002   -0.10604495178095211     
   9.3300000000000008E-002    -9.6060441835120872E-002
   9.3600000000000003E-002    -7.9644983539295722E-002
   9.3899999999999997E-002    -5.8774974203198757E-002
   9.4200000000000006E-002    -2.8413048621876477E-002
   9.4500000000000001E-002     1.2558545341804651E-002
   9.4800000000000009E-002     6.4034787661523471E-002
   9.5100000000000004E-002    0.12895756344518433     
   9.5399999999999999E-002    0.20349729708626074     
   9.5699999999999993E-002    0.28587458830099932     
   9.6000000000000002E-002    0.37337498026872257     
   9.6300000000000011E-002    0.45794457980884007     
   9.6600000000000005E-002    0.53603917298257842     
   9.6900000000000000E-002    0.60144277903310384     
   9.7200000000000009E-002    0.64636478544724629     
   9.7499999999999989E-002    0.67077479629431747     
   9.7799999999999998E-002    0.66798790790207530     
   9.8100000000000007E-002    0.63797183518517220     
   9.8400000000000015E-002    0.58239999331045023     
   9.8699999999999996E-002    0.49796958846411588     
   9.9000000000000005E-002    0.39233067419108963     
   9.9300000000000013E-002    0.26467350756168839     
   9.9599999999999994E-002    0.11952078426278011     
   9.9900000000000003E-002    -3.4867147072546935E-002
  0.10020000000000001        -0.19903352934832264     
  0.10049999999999999        -0.36209977740875665     
  0.10080000000000000        -0.51975670378426853     
  0.10110000000000001        -0.66757485388144444     
  0.10140000000000000        -0.79417153786946182     
  0.10170000000000000        -0.89887679394113418     
  0.10200000000000001        -0.97359788004576298     
  0.10230000000000002         -1.0143247691353694     
  0.10260000000000000         -1.0238100096372280     
  0.10290000000000001        -0.99716063809759903     
  0.10320000000000000        -0.94133113126084100     
  0.10350000000000001        -0.86098460066253080     
  0.10380000000000000        -0.75855284661999367     
  0.10410000000000001        -0.64755489923784559     
  0.10440000000000001        -0.52972866806022767     
  0.10470000000000000        -0.41315800663120056     
  0.10500000000000000        -0.30635257769715846     
  0.10530000000000000        -0.20574412168521514     
  0.10560000000000000        -0.11975873885036492     
  0.10590000000000001         -4.3929114918876286E-002
  0.10620000000000000          2.4592732245269349E-002
  0.10650000000000001          8.2630597644154841E-002
  0.10679999999999999         0.14109564946001069     
  0.10710000000000000         0.19538986163708330     
  0.10740000000000001         0.24935550814309743     
  0.10770000000000000         0.30687644781523321     
  0.10800000000000000         0.35913945957450710     
  0.10830000000000001         0.41268049052964462     
  0.10859999999999999         0.45971480826158784     
  0.10890000000000000         0.49703912151521701     
  0.10920000000000001         0.52737355565724520     
  0.10950000000000001         0.54102887909580866     
  0.10979999999999999         0.54299482576824132     
  0.11009999999999999         0.53061969036064394     
  0.11040000000000001         0.50134706096642045     
  0.11070000000000001         0.46263517552221356     
  0.11100000000000000         0.40915046475944655     
  0.11130000000000000         0.34640270615555369     
  0.11160000000000002         0.27833589743831505     
  0.11190000000000001         0.20167781415060154     
  0.11220000000000001         0.12658914329992524     
  0.11250000000000000          5.1451995828140439E-002
  0.11280000000000000         -1.9819270073128580E-002
  0.11309999999999999         -7.8313755968814236E-002
  0.11340000000000001        -0.12700362730949907     
  0.11369999999999998        -0.15543747053451906     
  0.11400000000000000        -0.16269302015101703     
  0.11430000000000000        -0.14889867579996086     
  0.11460000000000002        -0.10670629429484565     
  0.11489999999999999         -4.4536780583449127E-002
  0.11520000000000001          3.9727587566621730E-002
  0.11550000000000001         0.14141229170942385     
  0.11580000000000000         0.24920306262380265     
  0.11609999999999999         0.36322874284898099     
  0.11640000000000002         0.46953742715404356     
  0.11670000000000001         0.56307459714202579     
  0.11700000000000001         0.63896516639612644     
  0.11730000000000000         0.68679052550265318     
  0.11760000000000000         0.70920649690202886     
  0.11789999999999999         0.69995501573153129     
  0.11820000000000001         0.65979052849114039     
  0.11850000000000001         0.59267813260341351     
  0.11880000000000000         0.49673421026081582     
  0.11910000000000000         0.37901752155309770     
  0.11940000000000002         0.24234154636127020     
  0.11970000000000001          9.0042373913881923E-002
  0.12000000000000001         -7.0185181193548080E-002
  0.12030000000000000        -0.23525057202095973     
  0.12060000000000000        -0.39883082738449488     
  0.12089999999999999        -0.55310075899792088     
  0.12119999999999999        -0.69460481489492765     
  0.12150000000000001        -0.81462760287336100     
  0.12180000000000001        -0.90776622997890621     
  0.12210000000000000        -0.97082849943380944     
  0.12239999999999999        -0.99692176332527704     
  0.12270000000000002        -0.98777746741661310     
  0.12300000000000001        -0.94197105508373191     
  0.12330000000000001        -0.86116802421603100     
  0.12360000000000000        -0.75257794897114672     
  0.12390000000000000        -0.61843456935018259     
  0.12419999999999999        -0.46895325615445971     
  0.12450000000000001        -0.31134047020578587     
  0.12480000000000001        -0.15149185609046895     
  0.12509999999999999          6.7160968887220590E-004
  0.12540000000000001         0.14118649926790558     
  0.12570000000000003         0.26371131631897460     
  0.12600000000000000         0.36363190403556106     
  0.12630000000000002         0.43947403687720721     
  0.12659999999999999         0.48766454499724299     
  0.12690000000000001         0.50796396433092550     
  0.12719999999999998         0.50077061440675008     
  0.12750000000000000         0.46553391003459155     
  0.12780000000000002         0.40516127168007643     
  0.12809999999999999         0.32321670331702540     
  0.12840000000000001         0.22140075445237115     
  0.12869999999999998         0.10773704750285759     
  0.12900000000000000         -1.3613496822453892E-002
  0.12930000000000003        -0.13629929887492065     
  0.12959999999999999        -0.25096370981786259     
  0.12990000000000002        -0.35606603422093613     
  0.13019999999999998        -0.44223503195738401     
  0.13050000000000000        -0.50859337296627760     
  0.13080000000000003        -0.55416109758703924     
  0.13109999999999999        -0.57528350294203645     
  0.13140000000000002        -0.57928205084416773     
  0.13169999999999998        -0.56481136770329088     
  0.13200000000000001        -0.53714755813622650     
  0.13229999999999997        -0.50157733380947644     
  0.13260000000000000        -0.45738454323278532     
  0.13290000000000002        -0.41088665194872986     
  0.13319999999999999        -0.35969611775030902     
  0.13350000000000001        -0.30383615959789878     
  0.13380000000000003        -0.24396470145187688     
  0.13410000000000000        -0.17522239223292010     
  0.13440000000000002         -9.8914936492133898E-002
  0.13469999999999999         -1.3171215611216786E-002
  0.13500000000000001          8.2215061283957391E-002
  0.13529999999999998         0.18393116022207495     
  0.13560000000000000         0.29020112460700881     
  0.13590000000000002         0.39661946040474694     
  0.13619999999999999         0.49756415943248711     
  0.13650000000000001         0.58973338395436192     
  0.13680000000000003         0.66817556808471390     
  0.13710000000000000         0.72892504971286876     
  0.13740000000000002         0.77244427045657882     
  0.13769999999999999         0.79465708084841680     
  0.13800000000000001         0.79839619804260176     
  0.13829999999999998         0.78432140277788043     
  0.13860000000000000         0.75205725130566548     
  0.13890000000000002         0.70704027961186222     
  0.13919999999999999         0.64649436173390062     
  0.13950000000000001         0.57478720792290772     
  0.13979999999999998         0.49263970077841135     
  0.14010000000000000         0.39954930400948135     
  0.14040000000000002         0.30059381286666098     
  0.14069999999999999         0.19511565605305442     
  0.14100000000000001          8.8601025532056621E-002
  0.14130000000000004         -1.5121621194368912E-002
  0.14160000000000000        -0.11227808341663303     
  0.14189999999999997        -0.19540821453337331     
  0.14219999999999999        -0.26116052619295382     
  0.14250000000000002        -0.30470614827062170     
  0.14279999999999998        -0.32306714778372186     
  0.14310000000000000        -0.31532333865124607     
  0.14339999999999997        -0.28281031683143987     
  0.14369999999999999        -0.22797555683688708     
  0.14400000000000002        -0.15620006232566497     
  0.14429999999999998         -7.3219517264264358E-002
  0.14460000000000001          1.5395189497422784E-002
  0.14490000000000003         0.10079878672319798     
  0.14520000000000000         0.18029213528270110     
  0.14550000000000002         0.24670457215491104     
  0.14579999999999999         0.29715778626707179     
  0.14610000000000001         0.33126981809967254     
  0.14640000000000003         0.34431100907655382     
  0.14670000000000000         0.34068410621511402     
  0.14699999999999996         0.31783114445546401     
  0.14729999999999999         0.27779042525899400     
  0.14760000000000001         0.22385378274345558     
  0.14789999999999998         0.15389800426802483     
  0.14820000000000000          7.4572073090875185E-002