  -1.4999999999999999E-002     0.0000000000000000     
  -1.4700000000000000E-002     0.0000000000000000     
  -1.4400000000000000E-002     0.0000000000000000     
  -1.4100000000000000E-002     0.0000000000000000     
  -1.3800000000000000E-002     0.0000000000000000     
  -1.3500000000000000E-002     0.0000000000000000     
  -1.3200000000000000E-002     0.0000000000000000     
  -1.2899999999999998E-002     0.0000000000000000     
  -1.2600000000000000E-002     0.0000000000000000     
  -1.2299999999999998E-002     0.0000000000000000     
  -1.2000000000000000E-002     0.0000000000000000     
  -1.1699999999999999E-002     0.0000000000000000     
  -1.1399999999999999E-002     0.0000000000000000     
  -1.1099999999999999E-002     0.0000000000000000     
  -1.0799999999999999E-002     0.0000000000000000     
  -1.0499999999999999E-002     0.0000000000000000     
  -1.0199999999999999E-002     0.0000000000000000     
  -9.8999999999999991E-003     0.0000000000000000     
  -9.5999999999999992E-003     0.0000000000000000     
  -9.2999999999999992E-003     0.0000000000000000     
  -8.9999999999999993E-003     0.0000000000000000     
  -8.6999999999999994E-003     0.0000000000000000     
  -8.3999999999999995E-003     0.0000000000000000     
  -8.0999999999999996E-003     0.0000000000000000     
  -7.7999999999999988E-003     0.0000000000000000     
  -7.4999999999999997E-003     0.0000000000000000     
  -7.1999999999999998E-003     0.0000000000000000     
  -6.8999999999999981E-003     1.3693089513111870E-042
  -6.5999999999999982E-003    -8.4955923019507524E-041
  -6.3000000000000000E-003    -9.8219664478310528E-038
  -6.0000000000000001E-003     1.3328037239287012E-036
  -5.6999999999999985E-003     2.9127401064073666E-035
  -5.3999999999999986E-003    -6.3535500871188277E-034
  -5.1000000000000004E-003     3.6123893005768586E-033
  -4.7999999999999987E-003    -1.1264131367275862E-032
  -4.5000000000000005E-003    -4.4207095848688744E-033
  -4.1999999999999989E-003     2.3661292199265465E-031
  -3.8999999999999990E-003    -1.3617479862370452E-030
  -3.5999999999999990E-003     4.4208120857029321E-030
  -3.2999999999999991E-003    -6.6124833316020244E-030
  -2.9999999999999992E-003    -1.7336658130181221E-029
  -2.6999999999999993E-003     1.6164605637594332E-028
  -2.3999999999999994E-003    -6.4250631963237614E-028
  -2.0999999999999977E-003     1.6879164727997133E-027
  -1.7999999999999995E-003    -2.7433852950964244E-027
  -1.4999999999999979E-003    -9.3886217930919108E-029
  -1.1999999999999997E-003     2.0196106020794128E-026
  -8.9999999999999976E-004    -9.2881705544683200E-026
  -5.9999999999999810E-004     2.9977847451019758E-025
  -2.9999999999999992E-004    -8.1829429490720435E-025
   0.0000000000000000          2.0253724237579244E-024
   3.0000000000000165E-004    -4.7064932347688496E-024
   5.9999999999999984E-004     1.0433873490011988E-023
   9.0000000000000149E-004    -2.2159441316259248E-023
   1.2000000000000031E-003     4.5015940158875324E-023
   1.5000000000000013E-003    -8.7300516397514682E-023
   1.8000000000000030E-003     1.6180420453602920E-022
   2.1000000000000012E-003    -2.8829867136683574E-022
   2.3999999999999994E-003     4.9928607818913540E-022
   2.7000000000000010E-003    -8.5299521869965243E-022
   2.9999999999999992E-003     1.4597002892039788E-021
   3.3000000000000008E-003    -2.5295385922177542E-021
   3.6000000000000025E-003     4.4534840875320660E-021
   3.9000000000000007E-003    -7.9389979461661718E-021
   4.2000000000000023E-003     1.4247363187360626E-020
   4.5000000000000005E-003    -2.5627126208366848E-020
   4.7999999999999987E-003     4.6086676578337509E-020
   5.1000000000000004E-003    -8.2609542460491482E-020
   5.4000000000000020E-003     1.4660479105334822E-019
   5.7000000000000037E-003    -2.5457889099356791E-019
   5.9999999999999984E-003     4.2559932511718626E-019
   6.3000000000000000E-003    -6.7097793186033441E-019
   6.6000000000000017E-003     9.6702756831238749E-019
   6.9000000000000034E-003    -1.1858204996048476E-018
   7.2000000000000015E-003     9.0013878251356789E-019
   7.5000000000000032E-003     1.2197111072339452E-018
   7.8000000000000014E-003    -9.3515838113312701E-018
   8.0999999999999996E-003     3.7039248897301852E-017
   8.4000000000000012E-003    -1.3053547394840665E-016
   8.7000000000000029E-003     4.5875787669533769E-016
   9.0000000000000011E-003    -1.6694298759717733E-015
   9.2999999999999992E-003     6.2278274218451880E-015
   9.6000000000000009E-003    -2.2756080433224194E-014
   9.8999999999999991E-003     7.6220573081413456E-014
   1.0200000000000001E-002    -2.1322306602208964E-013
   1.0500000000000002E-002     4.0294135142251828E-013
   1.0800000000000004E-002     5.6163984028035157E-014
   1.1099999999999999E-002    -4.3205309224641927E-012
   1.1400000000000000E-002     1.9630854028046961E-011
   1.1700000000000002E-002    -4.6152596840314227E-011
   1.2000000000000004E-002     2.1840622908707220E-011
   1.2300000000000002E-002     2.5215829518956461E-010
   1.2600000000000000E-002    -8.5987198640062182E-010
   1.2900000000000002E-002     6.1684085529954205E-010
   1.3200000000000000E-002     3.4707911337307761E-009
   1.3500000000000002E-002    -8.8463242622407380E-009
   1.3800000000000003E-002    -4.7119245903985898E-009
   1.4100000000000001E-002     4.1668431048229985E-008
   1.4400000000000000E-002    -8.8358115786313936E-009
   1.4700000000000001E-002    -1.5537642125454594E-007
   1.4999999999999999E-002     1.7972288617796139E-008
   1.5300000000000001E-002     4.6861383920648404E-007
   1.5600000000000003E-002     1.2350484174871074E-007
   1.5899999999999997E-002    -1.2072254614556014E-006
   1.6199999999999999E-002    -8.9065677716649154E-007
   1.6500000000000001E-002     3.8682310327081428E-006
   1.6800000000000002E-002     1.1208941843190537E-005
   1.7100000000000004E-002     1.6198397228538036E-005
   1.7400000000000006E-002     1.8852252942454364E-005
   1.7700000000000000E-002     2.6746072417821652E-005
   1.8000000000000002E-002     4.6789739035594219E-005
   1.8300000000000004E-002     7.7770037485675502E-005
   1.8600000000000005E-002     1.1610574472872582E-004
   1.8900000000000000E-002     1.6823917083626388E-004
   1.9200000000000002E-002     2.5163596798917531E-004
   1.9500000000000003E-002     3.8222441948509262E-004
   1.9799999999999998E-002     5.6730540088291556E-004
   2.0100000000000000E-002     8.1619350895657090E-004
   2.0400000000000001E-002     1.1538151113969835E-003
   2.0700000000000003E-002     1.6164903547545555E-003
   2.0999999999999998E-002     2.2365775310198071E-003
   2.1299999999999999E-002     3.0410169128351938E-003
   2.1600000000000001E-002     4.0651238020703176E-003
   2.1900000000000003E-002     5.3562885003092487E-003
   2.2200000000000004E-002     6.9576514324650052E-003
   2.2500000000000006E-002     8.8941094991715312E-003
   2.2800000000000001E-002     1.1177046297315602E-002
   2.3100000000000002E-002     1.3810031189179913E-002
   2.3400000000000004E-002     1.6775154797618042E-002
   2.3699999999999999E-002     2.0009694929174648E-002
   2.4000000000000000E-002     2.3401129688014062E-002
   2.4300000000000002E-002     2.6800182342941653E-002
   2.4599999999999997E-002     3.0028298872981321E-002
   2.4900000000000005E-002     3.2866874628016074E-002
   2.5200000000000000E-002     3.5042246944742242E-002
   2.5499999999999995E-002     3.6249304542046418E-002
   2.5800000000000003E-002     3.6195012073695992E-002
   2.6099999999999998E-002     3.4614843656239999E-002
   2.6400000000000007E-002     3.1279526168642741E-002
   2.6700000000000002E-002     2.6021232781691925E-002
   2.6999999999999996E-002     1.8770419649061853E-002
   2.7300000000000005E-002     9.5812720657357138E-003
   2.7600000000000000E-002    -1.3745511060826703E-003
   2.7900000000000008E-002    -1.3817707883384352E-002
   2.8200000000000003E-002    -2.7346287440100345E-002
   2.8499999999999998E-002    -4.1451040168848763E-002
   2.8800000000000006E-002    -5.5548353261079722E-002
   2.9100000000000001E-002    -6.9009166471073149E-002
   2.9400000000000003E-002    -8.1195702841364348E-002
   2.9700000000000004E-002    -9.1493195784700609E-002
   3.0000000000000006E-002    -9.9327205063693594E-002
   3.0300000000000001E-002   -0.10417899769479554     
   3.0600000000000002E-002   -0.10559719826857640     
   3.0900000000000004E-002   -0.10322260124050273     
   3.1199999999999999E-002    -9.6812991907426149E-002
   3.1500000000000007E-002    -8.6243279397827430E-002
   3.1800000000000002E-002    -7.1548388855495942E-002
   3.2099999999999997E-002    -5.2974205604046497E-002
   3.2400000000000005E-002    -3.1033689625762438E-002
   3.2700000000000000E-002    -6.5833514688217187E-003
   3.3000000000000002E-002     1.9150489424380170E-002
   3.3300000000000003E-002     4.4566768050547823E-002
   3.3599999999999998E-002     6.7693217358019420E-002
   3.3900000000000000E-002     8.6267791754852011E-002
   3.4200000000000001E-002     9.7899887894901852E-002
   3.4500000000000003E-002    0.10033309509322248     
   3.4799999999999998E-002     9.1665138772339366E-002
   3.5099999999999999E-002     7.0623085665571878E-002
   3.5400000000000001E-002     3.6899082196788641E-002
   3.5699999999999996E-002    -8.6601303778065224E-003
   3.6000000000000004E-002    -6.3914396694248143E-002
   3.6299999999999999E-002   -0.12538322676658997     
   3.6600000000000008E-002   -0.18845200571075194     
   3.6900000000000002E-002   -0.24765380725238073     
   3.7199999999999997E-002   -0.29707435131489029     
   3.7500000000000006E-002   -0.33084545811643545     
   3.7800000000000000E-002   -0.34371956850777113     
   3.8100000000000009E-002   -0.33169345305660503     
   3.8400000000000004E-002   -0.29242416940430638     
   3.8699999999999998E-002   -0.22549186066103966     
   3.9000000000000007E-002   -0.13261005846409812     
   3.9300000000000002E-002    -1.7692834081267872E-002
   3.9600000000000003E-002    0.11338834240953745     
   3.9900000000000005E-002    0.25325590715602903     
   4.0200000000000000E-002    0.39348116960640483     
   4.0500000000000001E-002    0.52505018214070631     
   4.0800000000000003E-002    0.63897219424777263     
   4.1100000000000005E-002    0.72692621129763357     
   4.1399999999999999E-002    0.78184891836754000     
   4.1700000000000008E-002    0.79840900679192128     
   4.2000000000000003E-002    0.77337101735716063     
   4.2299999999999997E-002    0.70585882862410387     
   4.2600000000000006E-002    0.59774299170822254     
   4.2900000000000001E-002    0.45377859226706296     
   4.3200000000000002E-002    0.28152178134873557     
   4.3500000000000004E-002     9.1009843901065313E-002
   4.3799999999999999E-002   -0.10570412439228857     
   4.4100000000000000E-002   -0.29502171433246999     
   4.4400000000000002E-002   -0.46274013668032637     
   4.4700000000000004E-002   -0.59531948298064918     
   4.4999999999999998E-002   -0.68111652244901810     
   4.5300000000000000E-002   -0.71152128889653921     
   4.5600000000000002E-002   -0.68206045156710915     
   4.5899999999999996E-002   -0.59328733868772476     
   4.6200000000000005E-002   -0.45143502791774248     
   4.6500000000000000E-002   -0.26831837518331125     
   4.6799999999999994E-002    -6.0554607437540459E-002
   4.7100000000000003E-002    0.15156476333630853     
   4.7399999999999998E-002    0.34580741484192917     
   4.7700000000000006E-002    0.49993220024975793     
   4.8000000000000001E-002    0.59398616043245933     
   4.8300000000000010E-002    0.61270097515049393     
   4.8600000000000004E-002    0.54719842689022924     
   4.8899999999999999E-002    0.39604826214587446     
   4.9200000000000008E-002    0.16603638426804809     
   4.9500000000000002E-002   -0.12811045046695180     
   4.9800000000000011E-002   -0.46506385198624411     
   5.0100000000000006E-002   -0.81857388551979260     
   5.0400000000000000E-002    -1.1597886167946914     
   5.0700000000000009E-002    -1.4598843590583330     
   5.1000000000000004E-002    -1.6927986570082021     
   5.1299999999999998E-002    -1.8375139291646316     
   5.1600000000000007E-002    -1.8797579279974543     
   5.1900000000000002E-002    -1.8130144980440939     
   5.2200000000000010E-002    -1.6388093963873229     
   5.2500000000000005E-002    -1.3662140713488840     
   5.2800000000000000E-002    -1.0105969695227821     
   5.3099999999999994E-002   -0.59205584773648945     
   5.3400000000000003E-002   -0.13331464143142080     
   5.3699999999999998E-002    0.34212565353047936     
   5.4000000000000006E-002    0.81166534138526669     
   5.4300000000000001E-002     1.2549963524365468     
   5.4599999999999996E-002     1.6549765834629571     
   5.4900000000000004E-002     1.9980256383195036     
   5.5199999999999999E-002     2.2740671936997243     
   5.5499999999999994E-002     2.4762838123969653     
   5.5800000000000002E-002     2.6006134606964784     
   5.6099999999999997E-002     2.6451650318381290     
   5.6400000000000006E-002     2.6097600320926189     
   5.6700000000000000E-002     2.4958803520563255     
   5.6999999999999995E-002     2.3066623580184347     
   5.7300000000000004E-002     2.0470687036164663     
   5.7599999999999998E-002     1.7246162144572164     
   5.7900000000000007E-002     1.3497764669575090     
   5.8200000000000002E-002    0.93638887673454319     
   5.8499999999999996E-002    0.50171312309506855     
   5.8800000000000005E-002     6.6270676196623496E-002
   5.9100000000000000E-002   -0.34684444385103824     
   5.9400000000000008E-002   -0.71320749453952603     
   5.9700000000000003E-002    -1.0090897837611057     
   6.0000000000000012E-002    -1.2134824313490122     
   6.0300000000000006E-002    -1.3103981792303809     
   6.0600000000000001E-002    -1.2911052168936199     
   6.0900000000000010E-002    -1.1561246144245310     
   6.1200000000000004E-002   -0.91692301230115580     
   6.1500000000000013E-002   -0.59595387699410107     
   6.1800000000000008E-002   -0.22574899870918491     
   6.2100000000000002E-002    0.15248466242165842     
   6.2399999999999997E-002    0.49184551969222479     
   6.2700000000000006E-002    0.74391465782323718     
   6.3000000000000000E-002    0.86333955134064766     
   6.3300000000000009E-002    0.81269353619552320     
   6.3600000000000004E-002    0.56690069498669682     
   6.3899999999999998E-002    0.11669652844675399     
   6.4199999999999993E-002   -0.52857427698345183     
   6.4500000000000002E-002    -1.3401226697403990     
   6.4800000000000010E-002    -2.2711531568442851     
   6.5100000000000005E-002    -3.2595656636302475     
   6.5400000000000000E-002    -4.2328628496196998     
   6.5700000000000008E-002    -5.1140933813955165     
   6.5999999999999989E-002    -5.8284537591904026     
   6.6299999999999998E-002    -6.3102445370969180     
   6.6600000000000006E-002    -6.5092570155873082     
   6.6900000000000001E-002    -6.3953211312361118     
   6.7199999999999996E-002    -5.9618871588432905     
   6.7500000000000004E-002    -5.2267998542385712     
   6.7800000000000013E-002    -4.2308829080971702     
   6.8099999999999994E-002    -3.0345679528652392     
   6.8400000000000002E-002    -1.7125618484585861     
   6.8700000000000011E-002   -0.34724631383650673     
   6.8999999999999992E-002    0.97857677599302906     
   6.9300000000000000E-002     2.1892432500824790     
   6.9600000000000009E-002     3.2222659585931552     
   6.9900000000000004E-002     4.0331185470865281     
   7.0199999999999999E-002     4.5988254713089693     
   7.0500000000000007E-002     4.9186942199121404     
   7.0800000000000016E-002     5.0135119132970001     
   7.1099999999999997E-002     4.9221892392733118     
   7.1400000000000005E-002     4.6966522914208682     
   7.1700000000000000E-002     4.3966359505549493     
   7.1999999999999995E-002     4.0833244875833401     
   7.2300000000000003E-002     3.8126512851177825     
   7.2600000000000012E-002     3.6300095589962833     
   7.2900000000000006E-002     3.5662635536088865     
   7.3200000000000001E-002     3.6351151936899995     
   7.3499999999999996E-002     3.8319868907921739     
   7.3800000000000004E-002     4.1350111090695414     
   7.4099999999999999E-002     4.5075924546419035     
   7.4400000000000008E-002     4.9027072887929553     
   7.4700000000000003E-002     5.2679757785862673     
   7.5000000000000011E-002     5.5501007390411354     
   7.5299999999999992E-002     5.7000953056911658     
   7.5600000000000001E-002     5.6782027225992273     
   7.5900000000000009E-002     5.4574103064344417     
   7.6200000000000004E-002     5.0251760724128314     
   7.6499999999999999E-002     4.3839106217588899     
   7.6800000000000007E-002     3.5509396910159090     
   7.7099999999999988E-002     2.5569391079121182     
   7.7399999999999997E-002     1.4421148051615877     
   7.7700000000000005E-002    0.25294392833427104     
   7.8000000000000014E-002   -0.96153907150188012     
   7.8299999999999995E-002    -2.1535645876870659     
   7.8600000000000003E-002    -3.2797961305653205     
   7.8900000000000012E-002    -4.3048610033438344     
   7.9199999999999993E-002    -5.2033482825824988     
   7.9500000000000001E-002    -5.9597460359900065     
   7.9800000000000010E-002    -6.5691167845142404     
   8.0100000000000018E-002    -7.0366311299731992     
   8.0399999999999999E-002    -7.3759212427930105     
   8.0700000000000008E-002    -7.6064871759882955     
   8.1000000000000003E-002    -7.7504364531603596     
   8.1299999999999997E-002    -7.8307691146786809     
   8.1600000000000006E-002    -7.8690659122718394     
   8.1900000000000014E-002    -7.8819982165123701     
   8.2199999999999995E-002    -7.8786442246787338     
   8.2500000000000004E-002    -7.8606953889866062     
   8.2799999999999999E-002    -7.8219438873369782     
   8.3100000000000007E-002    -7.7477823057468314     
   8.3400000000000002E-002    -7.6167278812850157     
   8.3700000000000011E-002    -7.4020486966481496     
   8.4000000000000005E-002    -7.0748785904665850     
   8.4300000000000000E-002    -6.6072020088790495     
   8.4599999999999995E-002    -5.9741623529546395     
   8.4900000000000003E-002    -5.1573212489675502     
   8.5199999999999998E-002    -4.1468793088536868     
   8.5500000000000007E-002    -2.9442025258470661     
   8.5800000000000001E-002    -1.5627967300058980     
   8.6100000000000010E-002    -2.7731985581367802E-002
   8.6399999999999991E-002     1.6246652659509719     
   8.6699999999999999E-002     3.3479388350592685     
   8.7000000000000008E-002     5.0880747857463984     
   8.7300000000000003E-002     6.7860702497746876     
   8.7599999999999997E-002     8.3817039992392104     
   8.7900000000000006E-002     9.8163495591113268     
   8.8200000000000014E-002     11.035047448566660     
   8.8499999999999995E-002     11.990211829037817     
   8.8800000000000004E-002     12.644015762735219     
   8.9100000000000013E-002     12.968976392506759     
   8.9399999999999993E-002     12.949638607265120     
   8.9700000000000002E-002     12.582833868221870     
   9.0000000000000011E-002     11.877271506934965     
   9.0299999999999991E-002     10.853436780204301     
   9.0600000000000000E-002     9.5430666245396232     
   9.0900000000000009E-002     7.9881474677845485     
   9.1200000000000017E-002     6.2397784050966694     
   9.1499999999999998E-002     4.3563993321989223     
   9.1800000000000007E-002     2.4031963782628472     
   9.2100000000000001E-002    0.45096118661959417     
   9.2399999999999996E-002    -1.4280617713497119     
   9.2700000000000005E-002    -3.1612016060540862     
   9.3000000000000013E-002    -4.6786371006390803     
   9.3300000000000008E-002    -5.9179189795060863     
   9.3600000000000003E-002    -6.8269087485521975     
   9.3899999999999997E-002    -7.3690724048245659     
   9.4200000000000006E-002    -7.5260683457604891     
   9.4500000000000001E-002    -7.2996433065861934     
   9.4800000000000009E-002    -6.7149673461147792     
   9.5100000000000004E-002    -5.8189126523162766     
   9.5399999999999999E-002    -4.6785060022874880     
   9.5699999999999993E-002    -3.3779079226120814     
   9.6000000000000002E-002    -2.0108574600058544     
   9.6300000000000011E-002   -0.67580773381300285     
   9.6600000000000005E-002    0.53125153138918657     
   9.6900000000000000E-002     1.5262280699732769     
   9.7200000000000009E-002     2.2420101266760089     
   9.7499999999999989E-002     2.6334322659188567     
   9.7799999999999998E-002     2.6812416439014051     
   9.8100000000000007E-002     2.3929224235753876     
   9.8400000000000015E-002     1.8022440957172234     
   9.8699999999999996E-002    0.96526853708166138     
   9.9000000000000005E-002    -4.5191297669991526E-002
   9.9300000000000013E-002    -1.1445646390355515     
   9.9599999999999994E-002    -2.2442372238446771     
   9.9900000000000003E-002    -3.2595753718320575     
  0.10020000000000001         -4.1146476949603290     
  0.10049999999999999         -4.7488740037276607     
  0.10080000000000000         -5.1215160299135256     
  0.10110000000000001         -5.2124054572071863     
  0.10140000000000000         -5.0239117383416163     
  0.10170000000000000         -4.5792193591044832     
  0.10200000000000001         -3.9197224869305138     
  0.10230000000000002         -3.1016148752301040     
  0.10260000000000000         -2.1892959564029368     
  0.10290000000000001         -1.2510500004489495     
  0.10320000000000000        -0.35415297029454940     
  0.10350000000000001         0.44232498448270530     
  0.10380000000000000          1.0901328501963670     
  0.10410000000000001          1.5560781529264254     
  0.10440000000000001          1.8251489499983002     
  0.10470000000000000          1.8988179465121258     
  0.10500000000000000          1.7952149721671591     
  0.10530000000000000          1.5479643393908999     
  0.10560000000000000          1.2009134518587004     
  0.10590000000000001         0.80417527770071673     
  0.10620000000000000         0.40949985898038144     
  0.10650000000000001          6.4822298588390448E-002
  0.10679999999999999        -0.18853819625704349     
  0.10710000000000000        -0.32132585932451890     
  0.10740000000000001        -0.31861400850980637     
  0.10770000000000000        -0.17913833339350785     
  0.10800000000000000          8.3784325102990109E-002
  0.10830000000000001         0.44430806954900515     
  0.10859999999999999         0.86780330359713442     
  0.10890000000000000          1.3136009213498172     
  0.10920000000000001          1.7399558977797251     
  0.10950000000000001          2.1087845465972084     
  0.10979999999999999          2.3880815124281116     
  0.11009999999999999          2.5558043793585585     
  0.11040000000000001          2.6014886487168316     
  0.11070000000000001          2.5262063901611604     
  0.11100000000000000          2.3430819296406771     
  0.11130000000000000          2.0741115610785754     
  0.11160000000000002          1.7476188254219496     
  0.11190000000000001          1.3962619287118629     
  0.11220000000000001          1.0518657967547567     
  0.11250000000000000         0.74358949817385511     
  0.11280000000000000         0.49542539131464025     
  0.11309999999999999         0.32259563474051445     
  0.11340000000000001         0.23247611307627913     
  0.11369999999999998         0.22413708275026023     
  0.11400000000000000         0.28878814899933114     
  0.11430000000000000         0.41176976269003884     
  0.11460000000000002         0.57364395595183582     
  0.11489999999999999         0.75321260012677715     
  0.11520000000000001         0.93019977338450976     
  0.11550000000000001          1.0853755276086359     
  0.11580000000000000          1.2026315623796289     
  0.11609999999999999          1.2705183542914606     
  0.11640000000000002          1.2817994691069265     
  0.11670000000000001          1.2336743567471364     
  0.11700000000000001          1.1270878796457342     
  0.11730000000000000         0.96589312845284880     
  0.11760000000000000         0.75624563927232080     
  0.11789999999999999         0.50542133365831299     
  0.11820000000000001         0.22079661081731761     
  0.11850000000000001         -8.9872363036777869E-002
  0.11880000000000000        -0.41954970844181583     
  0.11910000000000000        -0.76194297430950142     
  0.11940000000000002         -1.1114582206173247     
  0.11970000000000001         -1.4634907504756973     
  0.12000000000000001         -1.8133336551865598     
  0.12030000000000000         -2.1561481955838944     
  0.12060000000000000         -2.4884100199904973     
  0.12089999999999999         -2.8058544142825852     
  0.12119999999999999         -3.1030128274266882     
  0.12150000000000001         -3.3749633674906225     
  0.12180000000000001         -3.6162761821238449     
  0.12210000000000000         -3.8205471564881517     
  0.12239999999999999         -3.9805662367115602     
  0.12270000000000002         -4.0880915286254620     
  0.12300000000000001         -4.1355017528164133     
  0.12330000000000001         -4.1150914675404699     
  0.12360000000000000         -4.0185930656407232     
  0.12390000000000000         -3.8402384580827107     
  0.12419999999999999         -3.5761739638711032     
  0.12450000000000001         -3.2256779991218956     
  0.12480000000000001         -2.7920836326999900     
  0.12509999999999999         -2.2814881865803356     
  0.12540000000000001         -1.7049969175355186     
  0.12570000000000003         -1.0775130787834102     
  0.12600000000000000        -0.41542317819964225     
  0.12630000000000002         0.26357410016735605     
  0.12659999999999999         0.94242920049655288     
  0.12690000000000001          1.6056380319176655     
  0.12719999999999998          2.2398245889342236     
  0.12750000000000000          2.8361524723112606     
  0.12780000000000002          3.3888606492863937     
  0.12809999999999999          3.8942896818830759     
  0.12840000000000001          4.3508843988533155     
  0.12869999999999998          4.7574148591129894     
  0.12900000000000000          5.1120848574982691     
  0.12930000000000003          5.4120145091388823     
  0.12959999999999999          5.6519392468956715     
  0.12990000000000002          5.8254852768181582     
  0.13019999999999998          5.9269125212788243     
  0.13050000000000000          5.9506224621126993     
  0.13080000000000003          5.8938751802643505     
  0.13109999999999999          5.7573170143330925     
  0.13140000000000002          5.5449049451430881     
  0.13169999999999998          5.2645665557672991     
  0.13200000000000001          4.9256724896213600     
  0.13229999999999997          4.5366701838719177     
  0.13260000000000000          4.1038374633764523     
  0.13290000000000002          3.6283359452851665     
  0.13319999999999999          3.1042085437906404     
  0.13350000000000001          2.5185321459114736     
  0.13380000000000003          1.8525950978864705     
  0.13410000000000000          1.0843046088120005     
  0.13440000000000002         0.19232351528758412     
  0.13469999999999999        -0.83962554307368786     
  0.13500000000000001         -2.0164246528360485     
  0.13529999999999998         -3.3280633257828627     
  0.13560000000000000         -4.7480739402669823     
  0.13590000000000002         -6.2312081930251528     
  0.13619999999999999         -7.7154114705799248     
  0.13650000000000001         -9.1277382046248885     
  0.13680000000000003         -10.389886679480160     
  0.13710000000000000         -11.427283164718801     
  0.13740000000000002         -12.176284482421458     
  0.13769999999999999         -12.592154191607337     
  0.13800000000000001         -12.656408390044605     
  0.13829999999999998         -12.377510382051895     
  0.13860000000000000         -11.790234543954574     
  0.13890000000000002         -10.951452121126692     
  0.13919999999999999         -9.9306078465687566     
  0.13950000000000001         -8.8016807883912964     
  0.13979999999999998         -7.6291851827862160     
  0.14010000000000000         -6.4552694942548863     
  0.14040000000000002         -5.2938282556266856     
  0.14069999999999999         -4.1248663323436086     
  0.14100000000000001         -2.8937395740105085     
  0.14130000000000004         -1.5155647620060735     
  0.14160000000000000         0.11250234198354869     
  0.14189999999999997          2.0919973289345952     
  0.14219999999999999          4.5086798041671514     
  0.14250000000000002          7.4132764027072975     
  0.14279999999999998          10.799381913326371     
  0.14310000000000000          14.593099287307782     
  0.14339999999999997          18.647184450372158     
  0.14369999999999999          22.741678924313675     
  0.14400000000000002          26.595961147138624     
  0.14429999999999998          29.887295116656190     
  0.14460000000000001          32.279253693741317     
  0.14490000000000003          33.452522687379073     
  0.14520000000000000          33.136091386208136     
  0.14550000000000002          31.143280606209693     
  0.14579999999999999          27.393926188706867     
  0.14610000000000001          21.930058824394177     
  0.14640000000000003          14.926311870375766     
  0.14670000000000000          6.6830442883704109     
  0.14699999999999996         -2.3915076512309472     
  0.14729999999999999         -11.808358913470125     
  0.14760000000000001         -21.030989586875315     
  0.14789999999999998         -29.516090987065478     
  0.14820000000000000         -36.755510691505535     