  -1.4999999999999999E-002     0.0000000000000000     
  -1.4700000000000000E-002     0.0000000000000000     
  -1.4400000000000000E-002     0.0000000000000000     
  -1.4100000000000000E-002     0.0000000000000000     
  -1.3800000000000000E-002     0.0000000000000000     
  -1.3500000000000000E-002     0.0000000000000000     
  -1.3200000000000000E-002     0.0000000000000000     
  -1.2899999999999998E-002     0.0000000000000000     
  -1.2600000000000000E-002     0.0000000000000000     
  -1.2299999999999998E-002     0.0000000000000000     
  -1.2000000000000000E-002     0.0000000000000000     
  -1.1699999999999999E-002     0.0000000000000000     
  -1.1399999999999999E-002     0.0000000000000000     
  -1.1099999999999999E-002     0.0000000000000000     
  -1.0799999999999999E-002     0.0000000000000000     
  -1.0499999999999999E-002     0.0000000000000000     
  -1.0199999999999999E-002     0.0000000000000000     
  -9.8999999999999991E-003     0.0000000000000000     
  -9.5999999999999992E-003     0.0000000000000000     
  -9.2999999999999992E-003     0.0000000000000000     
  -8.9999999999999993E-003     0.0000000000000000     
  -8.6999999999999994E-003     0.0000000000000000     
  -8.3999999999999995E-003     0.0000000000000000     
  -8.0999999999999996E-003     0.0000000000000000     
  -7.7999999999999988E-003     0.0000000000000000     
  -7.4999999999999997E-003     0.0000000000000000     
  -7.1999999999999998E-003     0.0000000000000000     
  -6.8999999999999981E-003     0.0000000000000000     
  -6.5999999999999982E-003     0.0000000000000000     
  -6.3000000000000000E-003     0.0000000000000000     
  -6.0000000000000001E-003     0.0000000000000000     
  -5.6999999999999985E-003     0.0000000000000000     
  -5.3999999999999986E-003     0.0000000000000000     
  -5.1000000000000004E-003     0.0000000000000000     
  -4.7999999999999987E-003     0.0000000000000000     
  -4.5000000000000005E-003     0.0000000000000000     
  -4.1999999999999989E-003     0.0000000000000000     
  -3.8999999999999990E-003     0.0000000000000000     
  -3.5999999999999990E-003     0.0000000000000000     
  -3.2999999999999991E-003     0.0000000000000000     
  -2.9999999999999992E-003     0.0000000000000000     
  -2.6999999999999993E-003     0.0000000000000000     
  -2.3999999999999994E-003     0.0000000000000000     
  -2.0999999999999977E-003     0.0000000000000000     
  -1.7999999999999995E-003     0.0000000000000000     
  -1.4999999999999979E-003     0.0000000000000000     
  -1.1999999999999997E-003     0.0000000000000000     
  -8.9999999999999976E-004     0.0000000000000000     
  -5.9999999999999810E-004     0.0000000000000000     
  -2.9999999999999992E-004     0.0000000000000000     
   0.0000000000000000          0.0000000000000000     
   3.0000000000000165E-004     0.0000000000000000     
   5.9999999999999984E-004     8.5767151921605249E-059
   9.0000000000000149E-004    -8.0259787764476620E-058
   1.2000000000000031E-003    -1.5275755892745269E-044
   1.5000000000000013E-003     1.4525881923254894E-043
   1.8000000000000030E-003    -3.8846771013673431E-044
   2.1000000000000012E-003    -1.4459474986533070E-036
   2.3999999999999994E-003     1.2599413925670863E-035
   2.7000000000000010E-003    -3.6516590113003421E-035
   2.9999999999999992E-003     3.6636845016900562E-035
   3.3000000000000008E-003     2.1510430998033154E-034
   3.6000000000000025E-003    -1.5510468741514222E-033
   3.9000000000000007E-003     3.5845297099660858E-033
   4.2000000000000023E-003    -7.6757350642716843E-033
   4.5000000000000005E-003     1.0362325027461361E-032
   4.7999999999999987E-003     7.7182495588486903E-032
   5.1000000000000004E-003    -2.3039432035325962E-031
   5.4000000000000020E-003    -1.6324106366386085E-030
   5.7000000000000037E-003     5.7881426378780275E-030
   5.9999999999999984E-003     3.0575635033869289E-029
   6.3000000000000000E-003    -1.9183162719891161E-028
   6.6000000000000017E-003    -4.8727528044308239E-029
   6.9000000000000034E-003     3.7463668983332776E-027
   7.2000000000000015E-003    -1.3858641466543927E-026
   7.5000000000000032E-003    -1.2590323180652475E-026
   7.8000000000000014E-003     3.6459065502204073E-025
   8.0999999999999996E-003    -1.7392386660064306E-024
   8.4000000000000012E-003     1.9659384717579037E-024
   8.7000000000000029E-003     2.5247857109508711E-023
   9.0000000000000011E-003    -1.9025970795542035E-022
   9.2999999999999992E-003     6.9826456798568090E-022
   9.6000000000000009E-003    -1.2090190667659031E-021
   9.8999999999999991E-003    -2.0495544413074107E-021
   1.0200000000000001E-002     2.2057760316180959E-020
   1.0500000000000002E-002    -7.5663212783388751E-020
   1.0800000000000004E-002     8.6492008465881227E-020
   1.1099999999999999E-002     6.1969097290092791E-019
   1.1400000000000000E-002    -5.3583136758464171E-018
   1.1700000000000002E-002     2.7953525633741765E-017
   1.2000000000000004E-002    -1.2436808418495913E-016
   1.2300000000000002E-002     5.2706389108018262E-016
   1.2600000000000000E-002    -2.2203445130065328E-015
   1.2900000000000002E-002     9.2682263477028767E-015
   1.3200000000000000E-002    -3.7121569635927621E-014
   1.3500000000000002E-002     1.3620215962210001E-013
   1.3800000000000003E-002    -4.3061629942697237E-013
   1.4100000000000001E-002     1.0506568424585500E-012
   1.4400000000000000E-002    -1.3202344075911038E-012
   1.4700000000000001E-002    -3.4677419655165583E-012
   1.4999999999999999E-002     2.7953809102079496E-011
   1.5300000000000001E-002    -8.9302188130205609E-011
   1.5600000000000003E-002     1.2780299873624056E-010
   1.5899999999999997E-002     1.7689310744610919E-010
   1.6199999999999999E-002    -1.2741335930985959E-009
   1.6500000000000001E-002     2.0949068825576717E-009
   1.6800000000000002E-002     2.3790265149888104E-009
   1.7100000000000004E-002    -1.3544926601138999E-008
   1.7400000000000006E-002     5.9100907093272990E-009
   1.7700000000000000E-002     4.7823072792075200E-008
   1.8000000000000002E-002    -4.8192899422002843E-008
   1.8300000000000004E-002    -1.6121928204201172E-007
   1.8600000000000005E-002     1.1900639062438171E-007
   1.8900000000000000E-002     4.8198014003754670E-007
   1.9200000000000002E-002    -1.0500940286560023E-007
   1.9500000000000003E-002    -1.2649330798414218E-006
   1.9799999999999998E-002    -3.3207319828077378E-007
   2.0100000000000000E-002     4.4036997327135500E-006
   2.0400000000000001E-002     1.0691069795899847E-005
   2.0700000000000003E-002     1.5542102427626064E-005
   2.0999999999999998E-002     2.0970745862859248E-005
   2.1299999999999999E-002     3.3167482877420838E-005
   2.1600000000000001E-002     5.5887187165942598E-005
   2.1900000000000003E-002     8.8524415350994112E-005
   2.2200000000000004E-002     1.3279038364982844E-004
   2.2500000000000006E-002     1.9838375592076733E-004
   2.2800000000000001E-002     2.9915756518927042E-004
   2.3100000000000002E-002     4.4684155740360218E-004
   2.3400000000000004E-002     6.5386171343660476E-004
   2.3699999999999999E-002     9.4163644523070531E-004
   2.4000000000000000E-002     1.3412423020254063E-003
   2.4300000000000002E-002     1.8862364672326667E-003
   2.4599999999999997E-002     2.6106286280466956E-003
   2.4900000000000005E-002     3.5550377195136614E-003
   2.5200000000000000E-002     4.7682386198630456E-003
   2.5499999999999995E-002     6.2979415881205363E-003
   2.5800000000000003E-002     8.1811578457452235E-003
   2.6099999999999998E-002     1.0442791884609667E-002
   2.6400000000000007E-002     1.3093149716083160E-002
   2.6700000000000002E-002     1.6114270779276248E-002
   2.6999999999999996E-002     1.9440999737389698E-002
   2.7300000000000005E-002     2.2950731685564749E-002
   2.7600000000000000E-002     2.6460493389988664E-002
   2.7900000000000008E-002     2.9719090377137984E-002
   2.8200000000000003E-002     3.2395433734236971E-002
   2.8499999999999998E-002     3.4078758039490349E-002
   2.8800000000000006E-002     3.4295957005348224E-002
   2.9100000000000001E-002     3.2537206029502483E-002
   2.9400000000000003E-002     2.8283272296675755E-002
   2.9700000000000004E-002     2.1048011027802696E-002
   3.0000000000000006E-002     1.0439805765484457E-002
   3.0300000000000001E-002    -3.7735740864836571E-003
   3.0600000000000002E-002    -2.1603759528350888E-002
   3.0900000000000004E-002    -4.2787328935887207E-002
   3.1199999999999999E-002    -6.6737566950998015E-002
   3.1500000000000007E-002    -9.2515443311375858E-002
   3.1800000000000002E-002   -0.11882136436175630     
   3.2099999999999997E-002   -0.14402746015413931     
   3.2400000000000005E-002   -0.16626172014250110     
   3.2700000000000000E-002   -0.18350711571151535     
   3.3000000000000002E-002   -0.19371111625687124     
   3.3300000000000003E-002   -0.19493488706073853     
   3.3599999999999998E-002   -0.18553532188326582     
   3.3900000000000000E-002   -0.16433548244706009     
   3.4200000000000001E-002   -0.13073067978240868     
   3.4500000000000003E-002    -8.4785354109140287E-002
   3.4799999999999998E-002    -2.7303672807673280E-002
   3.5099999999999999E-002     4.0152346052910452E-002
   3.5400000000000001E-002    0.11531815429342228     
   3.5699999999999996E-002    0.19529041334195124     
   3.6000000000000004E-002    0.27668185084549074     
   3.6299999999999999E-002    0.35576919567267551     
   3.6600000000000008E-002    0.42861253619907708     
   3.6900000000000002E-002    0.49122551391679919     
   3.7199999999999997E-002    0.53974384066840952     
   3.7500000000000006E-002    0.57053678911257788     
   3.7800000000000000E-002    0.58029561618913172     
   3.8100000000000009E-002    0.56616645166978430     
   3.8400000000000004E-002    0.52589701499248531     
   3.8699999999999998E-002    0.45792789975607906     
   3.9000000000000007E-002    0.36151890574492845     
   3.9300000000000002E-002    0.23693829858322932     
   3.9600000000000003E-002     8.5659810549435417E-002
   3.9900000000000005E-002    -8.9465005139544584E-002
   4.0200000000000000E-002   -0.28409175226867373     
   4.0500000000000001E-002   -0.49233735565710751     
   4.0800000000000003E-002   -0.70679152758774544     
   4.1100000000000005E-002   -0.91861695572773994     
   4.1399999999999999E-002    -1.1178783207732053     
   4.1700000000000008E-002    -1.2940552242353252     
   4.2000000000000003E-002    -1.4366199958562391     
   4.2299999999999997E-002    -1.5356808873041612     
   4.2600000000000006E-002    -1.5827082355495150     
   4.2900000000000001E-002    -1.5712771367530198     
   4.3200000000000002E-002    -1.4977239318409077     
   4.3500000000000004E-002    -1.3615528293694097     
   4.3799999999999999E-002    -1.1656126928774169     
   4.4100000000000000E-002   -0.91610931947556462     
   4.4400000000000002E-002   -0.62234276221055618     
   4.4700000000000004E-002   -0.29607751754805800     
   4.4999999999999998E-002     4.9274844302116851E-002
   4.5300000000000000E-002    0.39948910500320445     
   4.5600000000000002E-002    0.74045377929404199     
   4.5899999999999996E-002     1.0592148296280162     
   4.6200000000000005E-002     1.3447116605620395     
   4.6500000000000000E-002     1.5882948632832281     
   4.6799999999999994E-002     1.7841553690988032     
   4.7100000000000003E-002     1.9293972267102746     
   4.7399999999999998E-002     2.0237970378377130     
   4.7700000000000006E-002     2.0693936388609799     
   4.8000000000000001E-002     2.0699532087663362     
   4.8300000000000010E-002     2.0302655766947271     
   4.8600000000000004E-002     1.9554363571835116     
   4.8899999999999999E-002     1.8503538462686098     
   4.9200000000000008E-002     1.7191567519939142     
   4.9500000000000002E-002     1.5648745399684392     
   4.9800000000000011E-002     1.3893714050369828     
   5.0100000000000006E-002     1.1934182736918786     
   5.0400000000000000E-002    0.97691417568999239     
   5.0700000000000009E-002    0.73933941818535898     
   5.1000000000000004E-002    0.48025858933017401     
   5.1299999999999998E-002    0.19980870536618267     
   5.1600000000000007E-002   -0.10070650869075462     
   5.1900000000000002E-002   -0.41832506699372912     
   5.2200000000000010E-002   -0.74818420650550954     
   5.2500000000000005E-002    -1.0832893891904962     
   5.2800000000000000E-002    -1.4144463601423338     
   5.3099999999999994E-002    -1.7305027326710882     
   5.3400000000000003E-002    -2.0187680818530147     
   5.3699999999999998E-002    -2.2655558699291989     
   5.4000000000000006E-002    -2.4569382795194863     
   5.4300000000000001E-002    -2.5797188422454895     
   5.4599999999999996E-002    -2.6223054083147255     
   5.4900000000000004E-002    -2.5756714502184916     
   5.5199999999999999E-002    -2.4344699544181778     
   5.5499999999999994E-002    -2.1977212589098039     
   5.5800000000000002E-002    -1.8692549620010108     
   5.6099999999999997E-002    -1.4581782956887044     
   5.6400000000000006E-002   -0.97895510189155510     
   5.6700000000000000E-002   -0.45079327542532105     
   5.6999999999999995E-002    0.10324215314693799     
   5.7300000000000004E-002    0.65716755214468936     
   5.7599999999999998E-002     1.1834523704420361     
   5.7900000000000007E-002     1.6548168732324862     
   5.8200000000000002E-002     2.0460279107999475     
   5.8499999999999996E-002     2.3354659246041751     
   5.8800000000000005E-002     2.5064952580307178     
   5.9100000000000000E-002     2.5487029793576426     
   5.9400000000000008E-002     2.4588647155151753     
   5.9700000000000003E-002     2.2412748618353895     
   6.0000000000000012E-002     1.9073136138266187     
   6.0300000000000006E-002     1.4747673549832387     
   6.0600000000000001E-002    0.96708103587762062     
   6.0900000000000010E-002    0.41196878994099084     
   6.1200000000000004E-002   -0.16064068352067115     
   6.1500000000000013E-002   -0.72049276708720045     
   6.1800000000000008E-002    -1.2384544536695006     
   6.2100000000000002E-002    -1.6881096349329294     
   6.2399999999999997E-002    -2.0476198243821693     
   6.2700000000000006E-002    -2.3010842907998832     
   6.3000000000000000E-002    -2.4391460585108584     
   6.3300000000000009E-002    -2.4592764598407642     
   6.3600000000000004E-002    -2.3658767015383884     
   6.3899999999999998E-002    -2.1701278996379663     
   6.4199999999999993E-002    -1.8890579090328581     
   6.4500000000000002E-002    -1.5440028082309880     
   6.4800000000000010E-002    -1.1591450359259889     
   6.5100000000000005E-002   -0.76007668077339174     
   6.5400000000000000E-002   -0.37184611786804694     
   6.5700000000000008E-002    -1.6826649004647323E-002
   6.5999999999999989E-002    0.28683447529286593     
   6.6299999999999998E-002    0.52631071358557191     
   6.6600000000000006E-002    0.69514826671867425     
   6.6900000000000001E-002    0.79387305619300808     
   6.7199999999999996E-002    0.82975750417949534     
   6.7500000000000004E-002    0.81597101827316398     
   6.7800000000000013E-002    0.77036906357897250     
   6.8099999999999994E-002    0.71370812276973461     
   6.8400000000000002E-002    0.66767033861528569     
   6.8700000000000011E-002    0.65283838665414207     
   6.8999999999999992E-002    0.68640600114205619     
   6.9300000000000000E-002    0.78017394764372505     
   6.9600000000000009E-002    0.93932830678530355     
   6.9900000000000004E-002     1.1615598752537031     
   7.0199999999999999E-002     1.4367458173324403     
   7.0500000000000007E-002     1.7473744672048008     
   7.0800000000000016E-002     2.0696974271614876     
   7.1099999999999997E-002     2.3755648542028496     
   7.1400000000000005E-002     2.6346855489439145     
   7.1700000000000000E-002     2.8170368905729655     
   7.1999999999999995E-002     2.8954649106455390     
   7.2300000000000003E-002     2.8481311829189133     
   7.2600000000000012E-002     2.6606748030241718     
   7.2900000000000006E-002     2.3277602018882666     
   7.3200000000000001E-002     1.8540057861193522     
   7.3499999999999996E-002     1.2539921633780959     
   7.3800000000000004E-002    0.55156864233299696     
   7.4099999999999999E-002   -0.22141107115647327     
   7.4400000000000008E-002    -1.0271440123568378     
   7.4700000000000003E-002    -1.8246099366789599     
   7.5000000000000011E-002    -2.5724235211574165     
   7.5299999999999992E-002    -3.2313914929915244     
   7.5600000000000001E-002    -3.7669830930670591     
   7.5900000000000009E-002    -4.1517820919871209     
   7.6200000000000004E-002    -4.3671250833760054     
   7.6499999999999999E-002    -4.4036941923819599     
   7.6800000000000007E-002    -4.2616625110397601     
   7.7099999999999988E-002    -3.9503765247923286     
   7.7399999999999997E-002    -3.4871962061338824     
   7.7700000000000005E-002    -2.8958177398469602     
   7.8000000000000014E-002    -2.2044388919509612     
   7.8299999999999995E-002    -1.4439266437221652     
   7.8600000000000003E-002   -0.64614534103909615     
   7.8900000000000012E-002    0.15755578847425158     
   7.9199999999999993E-002    0.93760862333541684     
   7.9500000000000001E-002     1.6669771369103350     
   7.9800000000000010E-002     2.3213735536302016     
   8.0100000000000018E-002     2.8795000012127137     
   8.0399999999999999E-002     3.3232344027076670     
   8.0700000000000008E-002     3.6373110551035541     
   8.1000000000000003E-002     3.8093581802396130     
   8.1299999999999997E-002     3.8304088558895693     
   8.1600000000000006E-002     3.6953811907661875     
   8.1900000000000014E-002     3.4035396643325044     
   8.2199999999999995E-002     2.9593207702956881     
   8.2500000000000004E-002     2.3733784821226100     
   8.2799999999999999E-002     1.6633309800447702     
   8.3100000000000007E-002    0.85399394352965075     
   8.3400000000000002E-002    -2.2803344043564419E-002
   8.3700000000000011E-002   -0.92895832974121106     
   8.4000000000000005E-002    -1.8214064634419851     
   8.4300000000000000E-002    -2.6542247352223742     
   8.4599999999999995E-002    -3.3813751728880428     
   8.4900000000000003E-002    -3.9598129709343599     
   8.5199999999999998E-002    -4.3524986112189605     
   8.5500000000000007E-002    -4.5313702273887690     
   8.5800000000000001E-002    -4.4801478842893196     
   8.6100000000000010E-002    -4.1961813219303377     
   8.6399999999999991E-002    -3.6912088417432072     
   8.6699999999999999E-002    -2.9912051954581265     
   8.7000000000000008E-002    -2.1352347917387786     
   8.7300000000000003E-002    -1.1731091143227357     
   8.7599999999999997E-002   -0.16214411005856705     
   8.7900000000000006E-002    0.83669325147840612     
   8.8200000000000014E-002     1.7632015631368330     
   8.8499999999999995E-002     2.5619965463225043     
   8.8800000000000004E-002     3.1862264469016308     
   8.9100000000000013E-002     3.6010466284992249     
   8.9399999999999993E-002     3.7858875291931113     
   8.9700000000000002E-002     3.7356932459282088     
   9.0000000000000011E-002     3.4609806622134371     
   9.0299999999999991E-002     2.9868676538935155     
   9.0600000000000000E-002     2.3510119603445219     
   9.0900000000000009E-002     1.6007389557182199     
   9.1200000000000017E-002    0.78979206324282236     
   9.1499999999999998E-002    -2.5442886242303564E-002
   9.1800000000000007E-002   -0.78986191995095512     
   9.2100000000000001E-002    -1.4528868760506302     
   9.2399999999999996E-002    -1.9713811137768988     
   9.2700000000000005E-002    -2.3122914148689864     
   9.3000000000000013E-002    -2.4543383265022594     
   9.3300000000000008E-002    -2.3885595765385577     
   9.3600000000000003E-002    -2.1185653005529610     
   9.3899999999999997E-002    -1.6602779271397532     
   9.4200000000000006E-002    -1.0406572344374576     
   9.4500000000000001E-002   -0.29583856904573241     
   9.4800000000000009E-002    0.53089296687529974     
   9.5100000000000004E-002     1.3913639157753737     
   9.5399999999999999E-002     2.2350481059018681     
   9.5699999999999993E-002     3.0118918816707314     
   9.6000000000000002E-002     3.6749060413136134     
   9.6300000000000011E-002     4.1829919911846378     
   9.6600000000000005E-002     4.5032634657666888     
   9.6900000000000000E-002     4.6127824531211683     
   9.7200000000000009E-002     4.5003056109876329     
   9.7499999999999989E-002     4.1674761213283924     
   9.7799999999999998E-002     3.6288549229909215     
   9.8100000000000007E-002     2.9111305923559856     
   9.8400000000000015E-002     2.0519432245588183     
   9.8699999999999996E-002     1.0979875754007893     
   9.9000000000000005E-002    0.10187583032028399     
   9.9300000000000013E-002   -0.88132757126856853     
   9.9599999999999994E-002    -1.7976383455388787     
   9.9900000000000003E-002    -2.5978176921950431     
  0.10020000000000001         -3.2411320362605305     
  0.10049999999999999         -3.6984081237255415     
  0.10080000000000000         -3.9542503142251841     
  0.10110000000000001         -4.0085315316029240     
  0.10140000000000000         -3.8764764719038980     
  0.10170000000000000         -3.5876554769336200     
  0.10200000000000001         -3.1838592710823153     
  0.10230000000000002         -2.7157868503540046     
  0.10260000000000000         -2.2388342950057916     
  0.10290000000000001         -1.8080377921542383     
  0.10320000000000000         -1.4732233674757687     
  0.10350000000000001         -1.2745560873662829     
  0.10380000000000000         -1.2381117913222852     
  0.10410000000000001         -1.3726024126872038     
  0.10440000000000001         -1.6680435765943293     
  0.10470000000000000         -2.0958645110444811     
  0.10500000000000000         -2.6104743377227648     
  0.10530000000000000         -3.1525661958556759     
  0.10560000000000000         -3.6542401424354152     
  0.10590000000000001         -4.0449390596425046     
  0.10620000000000000         -4.2573609585549361     
  0.10650000000000001         -4.2340727106937681     
  0.10679999999999999         -3.9335971129677993     
  0.10710000000000000         -3.3344364394025896     
  0.10740000000000001         -2.4377293776195641     
  0.10770000000000000         -1.2686664008891040     
  0.10800000000000000         0.12451150051673020     
  0.10830000000000001          1.6737246455876158     
  0.10859999999999999          3.2959406343051758     
  0.10890000000000000          4.8988075229387089     
  0.10920000000000001          6.3871760325234348     
  0.10950000000000001          7.6700515664783149     
  0.10979999999999999          8.6672515727194224     
  0.11009999999999999          9.3147449275803993     
  0.11040000000000001          9.5690164263456694     
  0.11070000000000001          9.4096679297932813     
  0.11100000000000000          8.8405761247825243     
  0.11130000000000000          7.8894643245302136     
  0.11160000000000002          6.6054148089216609     
  0.11190000000000001          5.0550898898350471     
  0.11220000000000001          3.3186697356149248     
  0.11250000000000000          1.4847421071877067     
  0.11280000000000000        -0.35559224337280360     
  0.11309999999999999         -2.1139824842210944     
  0.11340000000000001         -3.7091405762300482     
  0.11369999999999998         -5.0713820741175688     
  0.11400000000000000         -6.1460886198890448     
  0.11430000000000000         -6.8958234903951059     
  0.11460000000000002         -7.3008694693558871     
  0.11489999999999999         -7.3598422986204310     
  0.11520000000000001         -7.0887384343666744     
  0.11550000000000001         -6.5185732725815528     
  0.11580000000000000         -5.6929693067451916     
  0.11609999999999999         -4.6653337289310075     
  0.11640000000000002         -3.4952726143854456     
  0.11670000000000001         -2.2449397793389774     
  0.11700000000000001        -0.97607687413760158     
  0.11730000000000000         0.25283202330345211     
  0.11760000000000000          1.3897471701128126     
  0.11789999999999999          2.3908217203054574     
  0.11820000000000001          3.2211978639135341     
  0.11850000000000001          3.8562832011589405     
  0.11880000000000000          4.2818169633572873     
  0.11910000000000000          4.4929337430651577     
  0.11940000000000002          4.4932975578328209     
  0.11970000000000001          4.2938995053221332     
  0.12000000000000001          3.9115316458839304     
  0.12030000000000000          3.3670091149863879     
  0.12060000000000000          2.6841036769017004     
  0.12089999999999999          1.8884577278815207     
  0.12119999999999999          1.0063496452469214     
  0.12150000000000001          6.4585284560746595E-002
  0.12180000000000001        -0.90936845376154196     
  0.12210000000000000         -1.8878475127112333     
  0.12239999999999999         -2.8427581162632660     
  0.12270000000000002         -3.7449306472969108     
  0.12300000000000001         -4.5642584443517693     
  0.12330000000000001         -5.2703827185984000     
  0.12360000000000000         -5.8330801028873553     
  0.12390000000000000         -6.2233960935337169     
  0.12419999999999999         -6.4155085298307650     
  0.12450000000000001         -6.3882539495537616     
  0.12480000000000001         -6.1269867768999520     
  0.12509999999999999         -5.6257436863520374     
  0.12540000000000001         -4.8886893729792185     
  0.12570000000000003         -3.9308210792166198     
  0.12600000000000000         -2.7781700586866855     
  0.12630000000000002         -1.4676297959307902     
  0.12659999999999999         -4.5026931902975853E-002
  0.12690000000000001          1.4378243678550104     
  0.12719999999999998          2.9249561494908383     
  0.12750000000000000          4.3595679010997017     
  0.12780000000000002          5.6881162957993832     
  0.12809999999999999          6.8630916653527665     
  0.12840000000000001          7.8443629187760227     
  0.12869999999999998          8.6011444958171985     
  0.12900000000000000          9.1135861424306128     
  0.12930000000000003          9.3716733240664869     
  0.12959999999999999          9.3734080916347011     
  0.12990000000000002          9.1241853789132339     
  0.13019999999999998          8.6350754354849215     
  0.13050000000000000          7.9207271735203353     
  0.13080000000000003          6.9981841812116006     
  0.13109999999999999          5.8867102006492189     
  0.13140000000000002          4.6077128338229691     
  0.13169999999999998          3.1856798124780057     
  0.13200000000000001          1.6504204906528637     
  0.13229999999999997          3.8027178064016870E-002
  0.13260000000000000         -1.6085127503162382     
  0.13290000000000002         -3.2376715868448165     
  0.13319999999999999         -4.7896258487500916     
  0.13350000000000001         -6.1989056752203853     
  0.13380000000000003         -7.3982865638923343     
  0.13410000000000000         -8.3226220682093821     
  0.13440000000000002         -8.9140251098894190     
  0.13469999999999999         -9.1286390669423252     
  0.13500000000000001         -8.9421614553157518     
  0.13529999999999998         -8.3537988161243657     
  0.13560000000000000         -7.3893866613456369     
  0.13590000000000002         -6.1014075935253320     
  0.13619999999999999         -4.5670086170780904     
  0.13650000000000001         -2.8840727156981463     
  0.13680000000000003         -1.1640931171343203     
  0.13710000000000000         0.47675011846436205     
  0.13740000000000002          1.9263128803169380     
  0.13769999999999999          3.0849854369279677     
  0.13800000000000001          3.8738822335812069     
  0.13829999999999998          4.2420756314851662     
  0.13860000000000000          4.1695582583017803     
  0.13890000000000002          3.6682665390423428     
  0.13919999999999999          2.7816472514060426     
  0.13950000000000001          1.5804142712423246     
  0.13979999999999998         0.15614110279886745     
  0.14010000000000000         -1.3855327689079915     
  0.14040000000000002         -2.9326741447672666     
  0.14069999999999999         -4.3757828874291347     
  0.14100000000000001         -5.6152728702814709     
  0.14130000000000004         -6.5666664323385895     
  0.14160000000000000         -7.1663077220725615     
  0.14189999999999997         -7.3752505893087763     
  0.14219999999999999         -7.1797144412486924     
  0.14250000000000002         -6.5903117658598305     
  0.14279999999999998         -5.6411521552977053     
  0.14310000000000000         -4.3867404802784318     
  0.14339999999999997         -2.8967662515394625     
  0.14369999999999999         -1.2512684911953404     
  0.14400000000000002         0.46390417368298809     
  0.14429999999999998          2.1631956559891665     
  0.14460000000000001          3.7668585801075745     
  0.14490000000000003          5.2049173941804430     
  0.14520000000000000          6.4210061342241538     
  0.14550000000000002          7.3752473879945111     
  0.14579999999999999          8.0454033795712760     
  0.14610000000000001          8.4271639788265400     
  0.14640000000000003          8.5332478634034281     
  0.14670000000000000          8.3909873383992348     
  0.14699999999999996          8.0392970823618484     
  0.14729999999999999          7.5250878553471079     
  0.14760000000000001          6.8993654943122245     
  0.14789999999999998          6.2131701679980216     
  0.14820000000000000          5.5134326622571965     