  -1.4999999999999999E-002     0.0000000000000000     
  -1.4700000000000000E-002     0.0000000000000000     
  -1.4400000000000000E-002     0.0000000000000000     
  -1.4100000000000000E-002     0.0000000000000000     
  -1.3800000000000000E-002     0.0000000000000000     
  -1.3500000000000000E-002     0.0000000000000000     
  -1.3200000000000000E-002     0.0000000000000000     
  -1.2899999999999998E-002     0.0000000000000000     
  -1.2600000000000000E-002     0.0000000000000000     
  -1.2299999999999998E-002     0.0000000000000000     
  -1.2000000000000000E-002     0.0000000000000000     
  -1.1699999999999999E-002     0.0000000000000000     
  -1.1399999999999999E-002     0.0000000000000000     
  -1.1099999999999999E-002     0.0000000000000000     
  -1.0799999999999999E-002     0.0000000000000000     
  -1.0499999999999999E-002     0.0000000000000000     
  -1.0199999999999999E-002     0.0000000000000000     
  -9.8999999999999991E-003     0.0000000000000000     
  -9.5999999999999992E-003     0.0000000000000000     
  -9.2999999999999992E-003     0.0000000000000000     
  -8.9999999999999993E-003     0.0000000000000000     
  -8.6999999999999994E-003     0.0000000000000000     
  -8.3999999999999995E-003     0.0000000000000000     
  -8.0999999999999996E-003     0.0000000000000000     
  -7.7999999999999988E-003     0.0000000000000000     
  -7.4999999999999997E-003     0.0000000000000000     
  -7.1999999999999998E-003     0.0000000000000000     
  -6.8999999999999981E-003     0.0000000000000000     
  -6.5999999999999982E-003     0.0000000000000000     
  -6.3000000000000000E-003     0.0000000000000000     
  -6.0000000000000001E-003     0.0000000000000000     
  -5.6999999999999985E-003     0.0000000000000000     
  -5.3999999999999986E-003     0.0000000000000000     
  -5.1000000000000004E-003     0.0000000000000000     
  -4.7999999999999987E-003     0.0000000000000000     
  -4.5000000000000005E-003     0.0000000000000000     
  -4.1999999999999989E-003     0.0000000000000000     
  -3.8999999999999990E-003     0.0000000000000000     
  -3.5999999999999990E-003     0.0000000000000000     
  -3.2999999999999991E-003     0.0000000000000000     
  -2.9999999999999992E-003     0.0000000000000000     
  -2.6999999999999993E-003     0.0000000000000000     
  -2.3999999999999994E-003     0.0000000000000000     
  -2.0999999999999977E-003     0.0000000000000000     
  -1.7999999999999995E-003     0.0000000000000000     
  -1.4999999999999979E-003     0.0000000000000000     
  -1.1999999999999997E-003     0.0000000000000000     
  -8.9999999999999976E-004     0.0000000000000000     
  -5.9999999999999810E-004     0.0000000000000000     
  -2.9999999999999992E-004     0.0000000000000000     
   0.0000000000000000          0.0000000000000000     
   3.0000000000000165E-004     0.0000000000000000     
   5.9999999999999984E-004     0.0000000000000000     
   9.0000000000000149E-004     0.0000000000000000     
   1.2000000000000031E-003     0.0000000000000000     
   1.5000000000000013E-003     0.0000000000000000     
   1.8000000000000030E-003     0.0000000000000000     
   2.1000000000000012E-003     0.0000000000000000     
   2.3999999999999994E-003     0.0000000000000000     
   2.7000000000000010E-003     0.0000000000000000     
   2.9999999999999992E-003     0.0000000000000000     
   3.3000000000000008E-003     0.0000000000000000     
   3.6000000000000025E-003     0.0000000000000000     
   3.9000000000000007E-003     1.0051938687309459E-042
   4.2000000000000023E-003    -1.7512487656292670E-041
   4.5000000000000005E-003    -6.9840881757447789E-039
   4.7999999999999987E-003    -1.6553991573617016E-038
   5.1000000000000004E-003     8.0687366923510164E-037
   5.4000000000000020E-003     9.0311864815761756E-036
   5.7000000000000037E-003    -4.2982645732376519E-035
   5.9999999999999984E-003    -2.8089490571275964E-034
   6.3000000000000000E-003     6.8024693665198940E-034
   6.6000000000000017E-003     5.2454138024153689E-033
   6.9000000000000034E-003    -3.7938146627844521E-033
   7.2000000000000015E-003    -5.6225175943568795E-032
   7.5000000000000032E-003    -8.4640747386449375E-032
   7.8000000000000014E-003     9.0904524781098299E-031
   8.0999999999999996E-003     1.9292993706148828E-030
   8.4000000000000012E-003    -2.5602390166807556E-029
   8.7000000000000029E-003     7.3174124197043687E-029
   9.0000000000000011E-003     9.8170669669852903E-029
   9.2999999999999992E-003    -2.1916067225415147E-027
   9.6000000000000009E-003     1.2196908186832748E-026
   9.8999999999999991E-003    -2.9519385807176770E-026
   1.0200000000000001E-002    -6.4470520372355151E-026
   1.0500000000000002E-002     8.8290289458853898E-025
   1.0800000000000004E-002    -3.7522092660637406E-024
   1.1099999999999999E-002     6.9827786170018566E-024
   1.1400000000000000E-002     1.3381023210422232E-023
   1.1700000000000002E-002    -1.4825573950009783E-022
   1.2000000000000004E-002     5.5284118176599977E-022
   1.2300000000000002E-002    -9.8044532426574750E-022
   1.2600000000000000E-002    -1.3693305852527269E-021
   1.2900000000000002E-002     1.7872747571166800E-020
   1.3200000000000000E-002    -7.9737353720014232E-020
   1.3500000000000002E-002     2.4927912361991137E-019
   1.3800000000000003E-002    -6.1434176504526083E-019
   1.4100000000000001E-002     1.2714241534373230E-018
   1.4400000000000000E-002    -2.5528438375354348E-018
   1.4700000000000001E-002     6.8741712339578407E-018
   1.4999999999999999E-002    -2.6993360118993241E-017
   1.5300000000000001E-002     1.1069597156791059E-016
   1.5600000000000003E-002    -3.6939088194009632E-016
   1.5899999999999997E-002     7.2922991674142034E-016
   1.6199999999999999E-002     1.4968201992371097E-015
   1.6500000000000001E-002    -2.5226110724198775E-014
   1.6800000000000002E-002     1.6195159627777855E-013
   1.7100000000000004E-002    -7.4438403249775471E-013
   1.7400000000000006E-002     2.6185471322611566E-012
   1.7700000000000000E-002    -6.6637280880165420E-012
   1.8000000000000002E-002     8.7781769228558601E-012
   1.8300000000000004E-002     1.6216566505673999E-011
   1.8600000000000005E-002    -1.2884470702363614E-010
   1.8900000000000000E-002     3.3397185022685868E-010
   1.9200000000000002E-002    -2.0378324341551183E-010
   1.9500000000000003E-002    -1.3717909648563309E-009
   1.9799999999999998E-002     4.0604050781705371E-009
   2.0100000000000000E-002    -3.8416190278006866E-010
   2.0400000000000001E-002    -1.7820298617490012E-008
   2.0700000000000003E-002     1.9159479323403635E-008
   2.0999999999999998E-002     5.6320363880617960E-008
   2.1299999999999999E-002    -9.5193630715922974E-008
   2.1600000000000001E-002    -1.9864669432890612E-007
   2.1900000000000003E-002     2.4789315275722049E-007
   2.2200000000000004E-002     6.4331831570232890E-007
   2.2500000000000006E-002    -3.5714357508063381E-007
   2.2800000000000001E-002    -1.7917802388019755E-006
   2.3100000000000002E-002     4.1112111020227369E-009
   2.3400000000000004E-002     6.2703145312782285E-006
   2.3699999999999999E-002     1.2825947465386329E-005
   2.4000000000000000E-002     1.6461208885901124E-005
   2.4300000000000002E-002     2.2436319479590830E-005
   2.4599999999999997E-002     3.9854260347158222E-005
   2.4900000000000005E-002     7.0734089722926602E-005
   2.5200000000000000E-002     1.1102689112987350E-004
   2.5499999999999995E-002     1.6401811441570395E-004
   2.5800000000000003E-002     2.4626561111234580E-004
   2.6099999999999998E-002     3.7686202023353522E-004
   2.6400000000000007E-002     5.6782487460361130E-004
   2.6700000000000002E-002     8.3337003446851024E-004
   2.6999999999999996E-002     1.2050912380922392E-003
   2.7300000000000005E-002     1.7295499252731816E-003
   2.7600000000000000E-002     2.4538725838278443E-003
   2.7900000000000008E-002     3.4252124948752020E-003
   2.8200000000000003E-002     4.7061353269914246E-003
   2.8499999999999998E-002     6.3791241007274090E-003
   2.8800000000000006E-002     8.5296091962592593E-003
   2.9100000000000001E-002     1.1232379058040204E-002
   2.9400000000000003E-002     1.4556956015890875E-002
   2.9700000000000004E-002     1.8570617684269663E-002
   3.0000000000000006E-002     2.3318922642662811E-002
   3.0300000000000001E-002     2.8796339278740916E-002
   3.0600000000000002E-002     3.4933967090918977E-002
   3.0900000000000004E-002     4.1599908807716642E-002
   3.1199999999999999E-002     4.8585567277212457E-002
   3.1500000000000007E-002     5.5577541041873818E-002
   3.1800000000000002E-002     6.2143843621105643E-002
   3.2099999999999997E-002     6.7753387684539049E-002
   3.2400000000000005E-002     7.1795420419633327E-002
   3.2700000000000000E-002     7.3594764546849087E-002
   3.3000000000000002E-002     7.2444197644337210E-002
   3.3300000000000003E-002     6.7658893057307601E-002
   3.3599999999999998E-002     5.8648398671131974E-002
   3.3900000000000000E-002     4.4996898400437357E-002
   3.4200000000000001E-002     2.6518213995933373E-002
   3.4500000000000003E-002     3.3153492119715675E-003
   3.4799999999999998E-002    -2.4150842216287282E-002
   3.5099999999999999E-002    -5.5028178790437574E-002
   3.5400000000000001E-002    -8.8087879714181389E-002
   3.5699999999999996E-002   -0.12176661158862562     
   3.6000000000000004E-002   -0.15423812230198955     
   3.6299999999999999E-002   -0.18352396396477788     
   3.6600000000000008E-002   -0.20763027393343655     
   3.6900000000000002E-002   -0.22471688373714155     
   3.7199999999999997E-002   -0.23327388299831298     
   3.7500000000000006E-002   -0.23227913481338014     
   3.7800000000000000E-002   -0.22130830401743209     
   3.8100000000000009E-002   -0.20062682594799480     
   3.8400000000000004E-002   -0.17122749478075988     
   3.8699999999999998E-002   -0.13481124701284203     
   3.9000000000000007E-002    -9.3681816604189699E-002
   3.9300000000000002E-002    -5.0569192587499354E-002
   3.9600000000000003E-002    -8.4509976041260079E-003
   3.9900000000000005E-002     2.9651839012451331E-002
   4.0200000000000000E-002     6.0949909517309053E-002
   4.0500000000000001E-002     8.3099946735211122E-002
   4.0800000000000003E-002     9.4382371104989343E-002
   4.1100000000000005E-002     9.3880718814334130E-002
   4.1399999999999999E-002     8.1556471154363319E-002
   4.1700000000000008E-002     5.8274201749781526E-002
   4.2000000000000003E-002     2.5764147548200726E-002
   4.2299999999999997E-002    -1.3501546147810040E-002
   4.2600000000000006E-002    -5.6428951932448276E-002
   4.2900000000000001E-002    -9.9516782329654968E-002
   4.3200000000000002E-002   -0.13913187225003601     
   4.3500000000000004E-002   -0.17171635625852968     
   4.3799999999999999E-002   -0.19407011955125442     
   4.4100000000000000E-002   -0.20360098315898426     
   4.4400000000000002E-002   -0.19850920788886539     
   4.4700000000000004E-002   -0.17801014586793543     
   4.4999999999999998E-002   -0.14244520005300523     
   4.5300000000000000E-002    -9.3289987175338096E-002
   4.5600000000000002E-002    -3.3164038922709048E-002
   4.5899999999999996E-002     3.4309249996424367E-002
   4.6200000000000005E-002    0.10475883139597535     
   4.6500000000000000E-002    0.17331988197691411     
   4.6799999999999994E-002    0.23500518235913337     
   4.7100000000000003E-002    0.28515496499598159     
   4.7399999999999998E-002    0.31977548790415222     
   4.7700000000000006E-002    0.33595458977595316     
   4.8000000000000001E-002    0.33220604151015803     
   4.8300000000000010E-002    0.30864240987202796     
   4.8600000000000004E-002    0.26709522124932994     
   4.8899999999999999E-002    0.21101545192247598     
   4.9200000000000008E-002    0.14529810789182726     
   4.9500000000000002E-002     7.6005546713293889E-002
   4.9800000000000011E-002     9.8435033228125267E-003
   5.0100000000000006E-002    -4.6369182162332399E-002
   5.0400000000000000E-002    -8.6159478156867586E-002
   5.0700000000000009E-002   -0.10394474875389217     
   5.1000000000000004E-002    -9.5528916110790285E-002
   5.1299999999999998E-002    -5.8515650643620354E-002
   5.1600000000000007E-002     7.4443562836185913E-003
   5.1900000000000002E-002    0.10063857930122742     
   5.2200000000000010E-002    0.21727643239403929     
   5.2500000000000005E-002    0.35160367829668027     
   5.2800000000000000E-002    0.49628632986894161     
   5.3099999999999994E-002    0.64283191614101676     
   5.3400000000000003E-002    0.78208255474821886     
   5.3699999999999998E-002    0.90481396758038257     
   5.4000000000000006E-002     1.0021756000114015     
   5.4300000000000001E-002     1.0663304718655173     
   5.4599999999999996E-002     1.0909609968022518     
   5.4900000000000004E-002     1.0716003403005125     
   5.5199999999999999E-002     1.0060298066398610     
   5.5499999999999994E-002    0.89434524555118711     
   5.5800000000000002E-002    0.73894071781555482     
   5.6099999999999997E-002    0.54458025552744238     
   5.6400000000000006E-002    0.31799667145512500     
   5.6700000000000000E-002     6.7465363195958208E-002
   5.6999999999999995E-002   -0.19753624895077448     
   5.7300000000000004E-002   -0.46694250084082034     
   5.7599999999999998E-002   -0.73055975697144493     
   5.7900000000000007E-002   -0.97856032674915494     
   5.8200000000000002E-002    -1.2020648520848596     
   5.8499999999999996E-002    -1.3933686810944736     
   5.8800000000000005E-002    -1.5461857552376292     
   5.9100000000000000E-002    -1.6558803160114683     
   5.9400000000000008E-002    -1.7193916926208122     
   5.9700000000000003E-002    -1.7352940733478648     
   6.0000000000000012E-002    -1.7036952143691038     
   6.0300000000000006E-002    -1.6259191080799535     
   6.0600000000000001E-002    -1.5045255202132135     
   6.0900000000000010E-002    -1.3432146283640480     
   6.1200000000000004E-002    -1.1466488955314766     
   6.1500000000000013E-002   -0.92044795281966829     
   6.1800000000000008E-002   -0.67107135250568117     
   6.2100000000000002E-002   -0.40587133698048278     
   6.2399999999999997E-002   -0.13306588448134415     
   6.2700000000000006E-002    0.13855604610893468     
   6.3000000000000000E-002    0.39971793478111511     
   6.3300000000000009E-002    0.64090505707230117     
   6.3600000000000004E-002    0.85295420879982631     
   6.3899999999999998E-002     1.0273691522040991     
   6.4199999999999993E-002     1.1568396071814950     
   6.4500000000000002E-002     1.2359719382600440     
   6.4800000000000010E-002     1.2616267060914801     
   6.5100000000000005E-002     1.2333732781204065     
   6.5400000000000000E-002     1.1537167732933762     
   6.5700000000000008E-002     1.0280780101523090     
   6.5999999999999989E-002    0.86476932454429445     
   6.6299999999999998E-002    0.67443744372424619     
   6.6600000000000006E-002    0.46936446969808654     
   6.6900000000000001E-002    0.26280431241075586     
   6.7199999999999996E-002     6.7910848486861061E-002
   6.7500000000000004E-002   -0.10320674903734661     
   6.7800000000000013E-002   -0.24035484302039112     
   6.8099999999999994E-002   -0.33636070364594650     
   6.8400000000000002E-002   -0.38748316312831688     
   6.8700000000000011E-002   -0.39376869448545160     
   6.8999999999999992E-002   -0.35934327005607536     
   6.9300000000000000E-002   -0.29203827248884412     
   6.9600000000000009E-002   -0.20286634088368566     
   6.9900000000000004E-002   -0.10518796128908758     
   7.0199999999999999E-002    -1.3508117847849652E-002
   7.0500000000000007E-002     5.7602662264509608E-002
   7.0800000000000016E-002     9.4847101944949497E-002
   7.1099999999999997E-002     8.7726190653246466E-002
   7.1400000000000005E-002     2.9438712661992883E-002
   7.1700000000000000E-002    -8.2189585244608968E-002
   7.1999999999999995E-002   -0.24424287044178733     
   7.2300000000000003E-002   -0.44852297884340708     
   7.2600000000000012E-002   -0.68171624470296610     
   7.2900000000000006E-002   -0.92650383277588344     
   7.3200000000000001E-002    -1.1628175625729340     
   7.3499999999999996E-002    -1.3690455965458170     
   7.3800000000000004E-002    -1.5237479602826243     
   7.4099999999999999E-002    -1.6076826235395787     
   7.4400000000000008E-002    -1.6054701359509502     
   7.4700000000000003E-002    -1.5069701255107166     
   7.5000000000000011E-002    -1.3081606593060700     
   7.5299999999999992E-002    -1.0117959353084804     
   7.5600000000000001E-002   -0.62768698523795963     
   7.5900000000000009E-002   -0.17201756912681898     
   7.6200000000000004E-002    0.33392503536460399     
   7.6499999999999999E-002    0.86487680482080553     
   7.6800000000000007E-002     1.3933418111934444     
   7.7099999999999988E-002     1.8915342341366483     
   7.7399999999999997E-002     2.3332098694508305     
   7.7700000000000005E-002     2.6955455302522715     
   7.8000000000000014E-002     2.9601596573871030     
   7.8299999999999995E-002     3.1140864490685303     
   7.8600000000000003E-002     3.1506601872475950     
   7.8900000000000012E-002     3.0695085658518977     
   7.9199999999999993E-002     2.8758623340282434     
   7.9500000000000001E-002     2.5799408730741122     
   7.9800000000000010E-002     2.1961368898553886     
   8.0100000000000018E-002     1.7418963855474558     
   8.0399999999999999E-002     1.2362860410449767     
   8.0700000000000008E-002    0.69892965611712909     
   8.1000000000000003E-002    0.14910756075992787     
   8.1299999999999997E-002   -0.39502808866341566     
   8.1600000000000006E-002   -0.91695208153751873     
   8.1900000000000014E-002    -1.4022293958431882     
   8.2199999999999995E-002    -1.8384664089168554     
   8.2500000000000004E-002    -2.2152646892300378     
   8.2799999999999999E-002    -2.5240688255071979     
   8.3100000000000007E-002    -2.7579881479510115     
   8.3400000000000002E-002    -2.9117770074447269     
   8.3700000000000011E-002    -2.9815371411572595     
   8.4000000000000005E-002    -2.9645971524918306     
   8.4300000000000000E-002    -2.8600180335289354     
   8.4599999999999995E-002    -2.6686542162209417     
   8.4900000000000003E-002    -2.3933881367630834     
   8.5199999999999998E-002    -2.0394350889411350     
   8.5500000000000007E-002    -1.6145721279597636     
   8.5800000000000001E-002    -1.1296353157269903     
   8.6100000000000010E-002   -0.59833268670999096     
   8.6399999999999991E-002    -3.6909298578059774E-002
   8.6699999999999999E-002    0.53606605288962095     
   8.7000000000000008E-002     1.1001992218560255     
   8.7300000000000003E-002     1.6342005486836408     
   8.7599999999999997E-002     2.1170322164773152     
   8.7900000000000006E-002     2.5288875631337158     
   8.8200000000000014E-002     2.8522409823185817     
   8.8499999999999995E-002     3.0728411655316057     
   8.8800000000000004E-002     3.1806867974288133     
   8.9100000000000013E-002     3.1706132737132826     
   8.9399999999999993E-002     3.0424565993033035     
   8.9700000000000002E-002     2.8010047593630767     
   9.0000000000000011E-002     2.4556314920786617     
   9.0299999999999991E-002     2.0197654936446741     
   9.0600000000000000E-002     1.5100931690005508     
   9.0900000000000009E-002    0.94528300755442918     
   9.1200000000000017E-002    0.34525960175986087     
   9.1499999999999998E-002   -0.26961703790413738     
   9.1800000000000007E-002   -0.87934290180105856     
   9.2100000000000001E-002    -1.4647132793245143     
   9.2399999999999996E-002    -2.0079475818779744     
   9.2700000000000005E-002    -2.4928182914975210     
   9.3000000000000013E-002    -2.9045214758095641     
   9.3300000000000008E-002    -3.2300766045291649     
   9.3600000000000003E-002    -3.4584134556365838     
   9.3899999999999997E-002    -3.5807713545782818     
   9.4200000000000006E-002    -3.5909970061988608     
   9.4500000000000001E-002    -3.4857784011772339     
   9.4800000000000009E-002    -3.2655131282131791     
   9.5100000000000004E-002    -2.9348672359682850     
   9.5399999999999999E-002    -2.5030861851762647     
   9.5699999999999993E-002    -1.9840850070140865     
   9.6000000000000002E-002    -1.3962032818351073     
   9.6300000000000011E-002   -0.76197237925235028     
   9.6600000000000005E-002   -0.10713950521952831     
   9.6900000000000000E-002    0.54077832026495498     
   9.7200000000000009E-002     1.1539695676060562     
   9.7499999999999989E-002     1.7060379844864935     
   9.7799999999999998E-002     2.1734684739182297     
   9.8100000000000007E-002     2.5374328933274217     
   9.8400000000000015E-002     2.7849002463686219     
   9.8699999999999996E-002     2.9093573117509850     
   9.9000000000000005E-002     2.9111536100028990     
   9.9300000000000013E-002     2.7973018635459943     
   9.9599999999999994E-002     2.5806335297804730     
   9.9900000000000003E-002     2.2787509431937281     
  0.10020000000000001          1.9126474314567457     
  0.10049999999999999          1.5053767203778474     
  0.10080000000000000          1.0801377112331354     
  0.10110000000000001         0.65901383790545831     
  0.10140000000000000         0.26191973377608641     
  0.10170000000000000         -9.4325588207071057E-002
  0.10200000000000001        -0.39647233130646775     
  0.10230000000000002        -0.63536672196729205     
  0.10260000000000000        -0.80595047551360544     
  0.10290000000000001        -0.90673214711337446     
  0.10320000000000000        -0.93970571121477953     
  0.10350000000000001        -0.91010874139976661     
  0.10380000000000000        -0.82585001511561540     
  0.10410000000000001        -0.69700355104690570     
  0.10440000000000001        -0.53520479467102511     
  0.10470000000000000        -0.35314578194575263     
  0.10500000000000000        -0.16417720432761365     
  0.10530000000000000          1.8153486418893368E-002
  0.10560000000000000         0.18136117352205372     
  0.10590000000000001         0.31469781631537597     
  0.10620000000000000         0.40937389803858160     
  0.10650000000000001         0.45927177117701068     
  0.10679999999999999         0.46167480872920030     
  0.10710000000000000         0.41782906816782883     
  0.10740000000000001         0.33254150303909186     
  0.10770000000000000         0.21371503625033078     
  0.10800000000000000          7.2502506293616487E-002
  0.10830000000000001         -7.7560556807158523E-002
  0.10859999999999999        -0.22199392971552173     
  0.10890000000000000        -0.34625576033351979     
  0.10920000000000001        -0.43683275095418617     
  0.10950000000000001        -0.48229923301275712     
  0.10979999999999999        -0.47458469371653156     
  0.11009999999999999        -0.40997399761428654     
  0.11040000000000001        -0.28930512652140716     
  0.11070000000000001        -0.11840599742096816     
  0.11100000000000000          9.1856651863395949E-002
  0.11130000000000000         0.32612218215428540     
  0.11160000000000002         0.56531984639984978     
  0.11190000000000001         0.78787330361099317     
  0.11220000000000001         0.97136576217951687     
  0.11250000000000000          1.0941654714344615     
  0.11280000000000000          1.1374065823400461     
  0.11309999999999999          1.0870525580243782     
  0.11340000000000001         0.93544835616705746     
  0.11369999999999998         0.68276489440249499     
  0.11400000000000000         0.33799619572430195     
  0.11430000000000000         -8.1353831518731712E-002
  0.11460000000000002        -0.54980649112768032     
  0.11489999999999999         -1.0357524046389797     
  0.11520000000000001         -1.5039371583041556     
  0.11550000000000001         -1.9182027399356074     
  0.11580000000000000         -2.2451357545162596     
  0.11609999999999999         -2.4573345619475568     
  0.11640000000000002         -2.5360916429321327     
  0.11670000000000001         -2.4735650839571175     
  0.11700000000000001         -2.2735910009514253     
  0.11730000000000000         -1.9515325237280128     
  0.11760000000000000         -1.5328176728391465     
  0.11789999999999999         -1.0499440658529560     
  0.11820000000000001        -0.53925473787427947     
  0.11850000000000001         -3.7273681370895845E-002
  0.11880000000000000         0.42337202615473379     
  0.11910000000000000         0.81687247454886858     
  0.11940000000000002          1.1261643200788343     
  0.11970000000000001          1.3445594382563588     
  0.12000000000000001          1.4751351256378160     
  0.12030000000000000          1.5288696343258981     
  0.12060000000000000          1.5225299370112020     
  0.12089999999999999          1.4756870237976620     
  0.12119999999999999          1.4075247774243811     
  0.12150000000000001          1.3340148984151856     
  0.12180000000000001          1.2657940648159729     
  0.12210000000000000          1.2073840889437510     
  0.12239999999999999          1.1570581158268416     
  0.12270000000000002          1.1079282507994948     
  0.12300000000000001          1.0501295354999323     
  0.12330000000000001         0.97246453708672931     
  0.12360000000000000         0.86526239658129245     
  0.12390000000000000         0.72288855572744670     
  0.12419999999999999         0.54437349453764372     
  0.12450000000000001         0.33424336075767813     
  0.12480000000000001         0.10250964442600544     
  0.12509999999999999        -0.13698912603271857     
  0.12540000000000001        -0.36830972861728933     
  0.12570000000000003        -0.57555965236735052     
  0.12600000000000000        -0.74516907273794153     
  0.12630000000000002        -0.86806402078228828     
  0.12659999999999999        -0.94092459427397790     
  0.12690000000000001        -0.96616010672388475     
  0.12719999999999998        -0.95172667149045376     
  0.12750000000000000        -0.91027340533002454     
  0.12780000000000002        -0.85675903946935272     
  0.12809999999999999        -0.80574895597996798     
  0.12840000000000001        -0.76958343319635225     
  0.12869999999999998        -0.75585112354336259     
  0.12900000000000000        -0.76577513145283915     
  0.12930000000000003        -0.79398841691595390     
  0.12959999999999999        -0.82810062888817282     
  0.12990000000000002        -0.84997508399314570     
  0.13019999999999998        -0.83879177636260327     
  0.13050000000000000        -0.77326552564649353     
  0.13080000000000003        -0.63469537187426861     
  0.13109999999999999        -0.41028644398409653     
  0.13140000000000002         -9.6062858979093502E-002
  0.13169999999999998         0.30077800918371805     
  0.13200000000000001         0.76231678356104626     
  0.13229999999999997          1.2597429207895152     
  0.13260000000000000          1.7545242819513782     
  0.13290000000000002          2.2025222931421018     
  0.13319999999999999          2.5576253778506661     
  0.13350000000000001          2.7757411752184922     
  0.13380000000000003          2.8202269657545380     
  0.13410000000000000          2.6655782701583393     
  0.13440000000000002          2.3007337260682417     
  0.13469999999999999          1.7314592730874465     
  0.13500000000000001         0.98061382655974105     
  0.13529999999999998          8.6959084515389778E-002
  0.13560000000000000        -0.89784003152337544     
  0.13590000000000002         -1.9127607464821677     
  0.13619999999999999         -2.8922844041968228     
  0.13650000000000001         -3.7724492103385829     
  0.13680000000000003         -4.4957443966060397     
  0.13710000000000000         -5.0151112239606466     
  0.13740000000000002         -5.2981041610349919     
  0.13769999999999999         -5.3289530626833512     
  0.13800000000000001         -5.1086217644580447     
  0.13829999999999998         -4.6543988860883250     
  0.13860000000000000         -3.9974306176002106     
  0.13890000000000002         -3.1792724297725292     
  0.13919999999999999         -2.2484854386851083     
  0.13950000000000001         -1.2557633396087144     
  0.13979999999999998        -0.25045739927053440     
  0.14010000000000000         0.72228680341782869     
  0.14040000000000002          1.6251587619247561     
  0.14069999999999999          2.4294002748357015     
  0.14100000000000001          3.1158982030335887     
  0.14130000000000004          3.6754853223839818     
  0.14160000000000000          4.1070657086166085     
  0.14189999999999997          4.4172465059261112     
  0.14219999999999999          4.6187479079661991     
  0.14250000000000002          4.7276684235668718     
  0.14279999999999998          4.7624962097353372     
  0.14310000000000000          4.7424071022803789     
  0.14339999999999997          4.6855656218258286     
  0.14369999999999999          4.6079351678304876     
  0.14400000000000002          4.5215716252904041     
  0.14429999999999998          4.4344135329933145     
  0.14460000000000001          4.3494454284109727     
  0.14490000000000003          4.2635458057035418     
  0.14520000000000000          4.1681855789820847     
  0.14550000000000002          4.0493800018599089     
  0.14579999999999999          3.8879428242166068     
  0.14610000000000001          3.6616676400271508     
  0.14640000000000003          3.3465813608593811     
  0.14670000000000000          2.9188058750581241     
  0.14699999999999996          2.3580128339130839     
  0.14729999999999999          1.6497200452151461     
  0.14760000000000001         0.78678205811103674     
  0.14789999999999998        -0.22725838538573456     
  0.14820000000000000         -1.3765087628200854     