  -1.4999999999999999E-002     0.0000000000000000     
  -1.4700000000000000E-002     0.0000000000000000     
  -1.4400000000000000E-002     0.0000000000000000     
  -1.4100000000000000E-002     0.0000000000000000     
  -1.3800000000000000E-002     0.0000000000000000     
  -1.3500000000000000E-002     0.0000000000000000     
  -1.3200000000000000E-002    -4.6840878278188736E-038
  -1.2899999999999998E-002     3.0703270306346698E-035
  -1.2600000000000000E-002    -1.3609894776822173E-033
  -1.2299999999999998E-002     1.4844996215702474E-032
  -1.2000000000000000E-002    -1.3482242274343077E-031
  -1.1699999999999999E-002     1.4725803846593648E-030
  -1.1399999999999999E-002     2.2915851930541881E-029
  -1.1099999999999999E-002    -6.7846862110072134E-028
  -1.0799999999999999E-002     3.5528590143664541E-027
  -1.0499999999999999E-002     6.3793131177009894E-026
  -1.0199999999999999E-002    -1.3166673634361999E-024
  -9.8999999999999991E-003     1.1720973834188523E-023
  -9.5999999999999992E-003    -6.1835728424643442E-023
  -9.2999999999999992E-003     1.9469627756276040E-022
  -8.9999999999999993E-003    -2.4159341636580557E-022
  -8.6999999999999994E-003    -1.0287462414287752E-021
  -8.3999999999999995E-003     8.0989813289006940E-021
  -8.0999999999999996E-003    -3.3451920692009603E-020
  -7.7999999999999988E-003     1.0374289033414230E-019
  -7.4999999999999997E-003    -2.5684479312908515E-019
  -7.1999999999999998E-003     5.2227835230618292E-019
  -6.8999999999999981E-003    -9.2674068510944362E-019
  -6.5999999999999982E-003     1.6533575686669698E-018
  -6.3000000000000000E-003    -3.3988754661394542E-018
  -6.0000000000000001E-003     6.1323794945819999E-018
  -5.6999999999999985E-003     1.0670689230336210E-018
  -5.3999999999999986E-003    -6.4054591432923778E-017
  -5.1000000000000004E-003     2.6479579355953649E-016
  -4.7999999999999987E-003    -5.8672791427345373E-016
  -4.5000000000000005E-003     5.3115640598222964E-016
  -4.1999999999999989E-003     1.3436575091021034E-015
  -3.8999999999999990E-003    -7.0185501219831809E-015
  -3.5999999999999990E-003     1.6109286729433428E-014
  -3.2999999999999991E-003    -2.0517903844640092E-014
  -2.9999999999999992E-003     2.1423377131809641E-015
  -2.6999999999999993E-003     5.6565836296834031E-014
  -2.3999999999999994E-003    -1.4488347834599182E-013
  -2.0999999999999977E-003     1.9327676189240682E-013
  -1.7999999999999995E-003    -7.9266594355872074E-014
  -1.4999999999999979E-003    -2.8684277940252725E-013
  -1.1999999999999997E-003     8.1296551179814447E-013
  -8.9999999999999976E-004    -1.1576639354159574E-012
  -5.9999999999999810E-004     9.4651871438053530E-013
  -2.9999999999999992E-004    -1.7810779496892290E-013
   0.0000000000000000         -8.2469728052579586E-013
   3.0000000000000165E-004     2.2544179610875181E-012
   5.9999999999999984E-004    -5.0897167609922367E-012
   9.0000000000000149E-004     9.0355174498803084E-012
   1.2000000000000031E-003    -9.9837990110899650E-012
   1.5000000000000013E-003     2.0209792443005912E-012
   1.8000000000000030E-003     1.6286898471182222E-011
   2.1000000000000012E-003    -3.9289751945054734E-011
   2.3999999999999994E-003     5.1042908413866207E-011
   2.7000000000000010E-003     1.7703329468686929E-012
   2.9999999999999992E-003    -2.2593009402830279E-010
   3.3000000000000008E-003     6.3585937462833981E-010
   3.6000000000000025E-003    -8.2015148863915030E-010
   3.9000000000000007E-003    -2.4857730863557550E-010
   4.2000000000000023E-003     4.1192615334878564E-009
   4.5000000000000005E-003    -1.1646188314837742E-008
   4.7999999999999987E-003     1.4353453388244316E-008
   5.1000000000000004E-003     2.2038113127192871E-008
   5.4000000000000020E-003    -1.1964494742595268E-007
   5.7000000000000037E-003     1.1064189369173762E-007
   5.9999999999999984E-003     3.4647252545896386E-007
   6.3000000000000000E-003    -7.7513293900855562E-007
   6.6000000000000017E-003    -7.7136464874523263E-007
   6.9000000000000034E-003     2.6103539937202265E-006
   7.2000000000000015E-003     2.1384566108221157E-006
   7.5000000000000032E-003    -6.9020255017916160E-006
   7.8000000000000014E-003    -9.3580900997385568E-006
   8.0999999999999996E-003     1.8025425101329891E-005
   8.4000000000000012E-003     8.3443353115518224E-005
   8.7000000000000029E-003     1.7976221505590308E-004
   9.0000000000000011E-003     3.0266436232324331E-004
   9.2999999999999992E-003     4.6170620433577360E-004
   9.6000000000000009E-003     6.8865514246992143E-004
   9.8999999999999991E-003     1.0489786746490733E-003
   1.0200000000000001E-002     1.6303678656085579E-003
   1.0500000000000002E-002     2.5296651890121327E-003
   1.0800000000000004E-002     3.8655966969558674E-003
   1.1099999999999999E-002     5.7956903683186864E-003
   1.1400000000000000E-002     8.5465397848534849E-003
   1.1700000000000002E-002     1.2442942071799218E-002
   1.2000000000000004E-002     1.7899597487760342E-002
   1.2300000000000002E-002     2.5406188004474223E-002
   1.2600000000000000E-002     3.5536569459056130E-002
   1.2900000000000002E-002     4.8967891609746364E-002
   1.3200000000000000E-002     6.6460469462448227E-002
   1.3500000000000002E-002     8.8796528319651277E-002
   1.3800000000000003E-002    0.11673585605821300     
   1.4100000000000001E-002    0.15095740920119358     
   1.4400000000000000E-002    0.19190586076363544     
   1.4700000000000001E-002    0.23961622102957186     
   1.4999999999999999E-002    0.29354459760535817     
   1.5300000000000001E-002    0.35238713885497974     
   1.5600000000000003E-002    0.41389242828117073     
   1.5899999999999997E-002    0.47463191723773374     
   1.6199999999999999E-002    0.52989955068337580     
   1.6500000000000001E-002    0.57366503715319095     
   1.6800000000000002E-002    0.59867174939222134     
   1.7100000000000004E-002    0.59662796585005839     
   1.7400000000000006E-002    0.55856741920264852     
   1.7700000000000000E-002    0.47553737236692556     
   1.8000000000000002E-002    0.33937330009523831     
   1.8300000000000004E-002    0.14362168812824289     
   1.8600000000000005E-002   -0.11527121923256885     
   1.8900000000000000E-002   -0.43704129145994430     
   1.9200000000000002E-002   -0.81661309608875787     
   1.9500000000000003E-002    -1.2433582828090750     
   1.9799999999999998E-002    -1.7009083428847460     
   2.0100000000000000E-002    -2.1671462570941253     
   2.0400000000000001E-002    -2.6148770479828141     
   2.0700000000000003E-002    -3.0131705532870119     
   2.0999999999999998E-002    -3.3291455122968197     
   2.1299999999999999E-002    -3.5305672554597503     
   2.1600000000000001E-002    -3.5882414270283993     
   2.1900000000000003E-002    -3.4787550835244829     
   2.2200000000000004E-002    -3.1872874104069142     
   2.2500000000000006E-002    -2.7094953747267971     
   2.2800000000000001E-002    -2.0529733236629122     
   2.3100000000000002E-002    -1.2379993538864793     
   2.3400000000000004E-002   -0.29686478916200432     
   2.3699999999999999E-002    0.72759075290451880     
   2.4000000000000000E-002     1.7844784644912008     
   2.4300000000000002E-002     2.8181064761101626     
   2.4599999999999997E-002     3.7715843583090329     
   2.4900000000000005E-002     4.5910707573057685     
   2.5200000000000000E-002     5.2293311367605684     
   2.5499999999999995E-002     5.6491738663963043     
   2.5800000000000003E-002     5.8260470772647945     
   2.6099999999999998E-002     5.7494489076492448     
   2.6400000000000007E-002     5.4234019560364377     
   2.6700000000000002E-002     4.8662258297522474     
   2.6999999999999996E-002     4.1088729833199968     
   2.7300000000000005E-002     3.1925686127388850     
   2.7600000000000000E-002     2.1661024588372899     
   2.7900000000000008E-002     1.0828728936646785     
   2.8200000000000003E-002    -1.8908647608532497E-003
   2.8499999999999998E-002    -1.0348944844403158     
   2.8800000000000006E-002    -1.9667218097642198     
   2.9100000000000001E-002    -2.7538452666784283     
   2.9400000000000003E-002    -3.3610959682806993     
   2.9700000000000004E-002    -3.7614939911049490     
   3.0000000000000006E-002    -3.9386556869698879     
   3.0300000000000001E-002    -3.8863232835055794     
   3.0600000000000002E-002    -3.6086917558955096     
   3.0900000000000004E-002    -3.1210289533217614     
   3.1199999999999999E-002    -2.4475927747857020     
   3.1500000000000007E-002    -1.6225712530018797     
   3.1800000000000002E-002   -0.68784302943631692     
   3.2099999999999997E-002    0.30844877632984735     
   3.2400000000000005E-002     1.3131463868163118     
   3.2700000000000000E-002     2.2718256043672795     
   3.3000000000000002E-002     3.1304674834395860     
   3.3300000000000003E-002     3.8389016013821804     
   3.3599999999999998E-002     4.3535538624632597     
   3.3900000000000000E-002     4.6400433531273473     
   3.4200000000000001E-002     4.6757660841034756     
   3.4500000000000003E-002     4.4508877656211308     
   3.4799999999999998E-002     3.9695852527672821     
   3.5099999999999999E-002     3.2492533271091544     
   3.5400000000000001E-002     2.3202650857301812     
   3.5699999999999996E-002     1.2233275218702357     
   3.6000000000000004E-002     7.3144337949807561E-003
   3.6299999999999999E-002    -1.2738397669333466     
   3.6600000000000008E-002    -2.5649128804595005     
   3.6900000000000002E-002    -3.8118451764372971     
   3.7199999999999997E-002    -4.9651404797594223     
   3.7500000000000006E-002    -5.9826780941702227     
   3.7800000000000000E-002    -6.8306023423701010     
   3.8100000000000009E-002    -7.4855315137302370     
   3.8400000000000004E-002    -7.9338156676400544     
   3.8699999999999998E-002    -8.1713430374532177     
   3.9000000000000007E-002    -8.2032701404115702     
   3.9300000000000002E-002    -8.0405952263239193     
   3.9600000000000003E-002    -7.7003432895718831     
   3.9900000000000005E-002    -7.2015811414977993     
   4.0200000000000000E-002    -6.5641309035254443     
   4.0500000000000001E-002    -5.8076272996766543     
   4.0800000000000003E-002    -4.9480696478411899     
   4.1100000000000005E-002    -3.9994543108704663     
   4.1399999999999999E-002    -2.9723041314302474     
   4.1700000000000008E-002    -1.8739092346810813     
   4.2000000000000003E-002   -0.71044388688163485     
   4.2299999999999997E-002    0.51343875583283904     
   4.2600000000000006E-002     1.7904250246024018     
   4.2900000000000001E-002     3.1104310650147653     
   4.3200000000000002E-002     4.4598118234639994     
   4.3500000000000004E-002     5.8177754113117883     
   4.3799999999999999E-002     7.1582438420170700     
   4.4100000000000000E-002     8.4497196360586759     
   4.4400000000000002E-002     9.6533701284557143     
   4.4700000000000004E-002     10.728752374511188     
   4.4999999999999998E-002     11.632863291203780     
   4.5300000000000000E-002     12.322047482804159     
   4.5600000000000002E-002     12.757787950154091     
   4.5899999999999996E-002     12.904731986664688     
   4.6200000000000005E-002     12.737030250032054     
   4.6500000000000000E-002     12.238455018277879     
   4.6799999999999994E-002     11.400977308379360     
   4.7100000000000003E-002     10.231623793111169     
   4.7399999999999998E-002     8.7477027086530654     
   4.7700000000000006E-002     6.9779048712823526     
   4.8000000000000001E-002     4.9649353404274850     
   4.8300000000000010E-002     2.7592830663793579     
   4.8600000000000004E-002    0.42241408810315628     
   4.8899999999999999E-002    -1.9754927870167451     
   4.9200000000000008E-002    -4.3602515306739695     
   4.9500000000000002E-002    -6.6506077199473124     
   4.9800000000000011E-002    -8.7659608539329934     
   5.0100000000000006E-002    -10.627632323764091     
   5.0400000000000000E-002    -12.159468851134028     
   5.0700000000000009E-002    -13.297254774924436     
   5.1000000000000004E-002    -13.987702588831846     
   5.1299999999999998E-002    -14.194025259807459     
   5.1600000000000007E-002    -13.902421212581938     
   5.1900000000000002E-002    -13.120367254299410     
   5.2200000000000010E-002    -11.881065556787396     
   5.2500000000000005E-002    -10.244644332279986     
   5.2800000000000000E-002    -8.2929259776026392     
   5.3099999999999994E-002    -6.1312109201048122     
   5.3400000000000003E-002    -3.8790939735828442     
   5.3699999999999998E-002    -1.6635876310512667     
   5.4000000000000006E-002    0.38537376572603832     
   5.4300000000000001E-002     2.1492910252006459     
   5.4599999999999996E-002     3.5263605157777218     
   5.4900000000000004E-002     4.4412126699061885     
   5.5199999999999999E-002     4.8521166060890915     
   5.5499999999999994E-002     4.7533111779663120     
   5.5800000000000002E-002     4.1787409925978301     
   5.6099999999999997E-002     3.1981778175922360     
   5.6400000000000006E-002     1.9136519315436293     
   5.6700000000000000E-002    0.45162588505611628     
   5.6999999999999995E-002    -1.0482044668349253     
   5.7300000000000004E-002    -2.4438007470775256     
   5.7599999999999998E-002    -3.6028600437237905     
   5.7900000000000007E-002    -4.4135132584488286     
   5.8200000000000002E-002    -4.7944288985369425     
   5.8499999999999996E-002    -4.7017560647523586     
   5.8800000000000005E-002    -4.1316776754784348     
   5.9100000000000000E-002    -3.1198544751645865     
   5.9400000000000008E-002    -1.7393451893136331     
   5.9700000000000003E-002    -9.1088482598822545E-002
   6.0000000000000012E-002     1.7062928184052462     
   6.0300000000000006E-002     3.5249003018584530     
   6.0600000000000001E-002     5.2428218287363189     
   6.0900000000000010E-002     6.7527715401447699     
   6.1200000000000004E-002     7.9717037139295392     
   6.1500000000000013E-002     8.8481800172444380     
   6.1800000000000008E-002     9.3608600802310367     
   6.2100000000000002E-002     9.5233518817694964     
   6.2399999999999997E-002     9.3751318174883114     
   6.2700000000000006E-002     8.9758112092304803     
   6.3000000000000000E-002     8.3996955925180412     
   6.3300000000000009E-002     7.7216684299801424     
   6.3600000000000004E-002     7.0129124504233520     
   6.3899999999999998E-002     6.3319122089057984     
   6.4199999999999993E-002     5.7200032888100329     
   6.4500000000000002E-002     5.1999408359312014     
   6.4800000000000010E-002     4.7741691174400041     
   6.5100000000000005E-002     4.4304267418065653     
   6.5400000000000000E-002     4.1416036088475288     
   6.5700000000000008E-002     3.8746148480918423     
   6.5999999999999989E-002     3.5920103838321165     
   6.6299999999999998E-002     3.2561958974621636     
   6.6600000000000006E-002     2.8351498653703358     
   6.6900000000000001E-002     2.2988835222984565     
   6.7199999999999996E-002     1.6276424577236634     
   6.7500000000000004E-002    0.80596278272626731     
   6.7800000000000013E-002   -0.17583547558539389     
   6.8099999999999994E-002    -1.3161323237767306     
   6.8400000000000002E-002    -2.6103027388968698     
   6.8700000000000011E-002    -4.0417490928634203     
   6.8999999999999992E-002    -5.5837680278836723     
   6.9300000000000000E-002    -7.2012760104890203     
   6.9600000000000009E-002    -8.8459989997008517     
   6.9900000000000004E-002    -10.462545681952147     
   7.0199999999999999E-002    -11.990734437044573     
   7.0500000000000007E-002    -13.369400406881898     
   7.0800000000000016E-002    -14.545619432648257     
   7.1099999999999997E-002    -15.478102182747666     
   7.1400000000000005E-002    -16.143972870608852     
   7.1700000000000000E-002    -16.544687756327896     
   7.1999999999999995E-002    -16.701092254449396     
   7.2300000000000003E-002    -16.652649410507692     
   7.2600000000000012E-002    -16.451071263215237     
   7.2900000000000006E-002    -16.143885129452361     
   7.3200000000000001E-002    -15.765469063433416     
   7.3499999999999996E-002    -15.321520317171062     
   7.3800000000000004E-002    -14.778458110427733     
   7.4099999999999999E-002    -14.057641502473739     
   7.4400000000000008E-002    -13.033354279060607     
   7.4700000000000003E-002    -11.544863209528749     
   7.5000000000000011E-002    -9.4087471498949231     
   7.5299999999999992E-002    -6.4442790854241778     
   7.5600000000000001E-002    -2.5008065983480687     
   7.5900000000000009E-002     2.5136605506045822     
   7.6200000000000004E-002     8.6023913221094865     
   7.6499999999999999E-002     15.659837094344422     
   7.6800000000000007E-002     23.458681719331455     
   7.7099999999999988E-002     31.650082563612482     
   7.7399999999999997E-002     39.776624028263925     
   7.7700000000000005E-002     47.298764846547677     
   7.8000000000000014E-002     53.634656849208326     
   7.8299999999999995E-002     58.209234397831281     
   7.8600000000000003E-002     60.502527529070100     
   7.8900000000000012E-002     60.104875884401103     
   7.9199999999999993E-002     56.761881104769465     
   7.9500000000000001E-002     50.405305881178222     
   7.9800000000000010E-002     41.177831339335327     
   8.0100000000000018E-002     29.431727618877112     
   8.0399999999999999E-002     15.710440329091007     
   8.0700000000000008E-002    0.72047735963202586     
   8.1000000000000003E-002    -14.724360026464826     
   8.1299999999999997E-002    -29.758622305272663     
   8.1600000000000006E-002    -43.527898496061084     
   8.1900000000000014E-002    -55.257890851868126     
   8.2199999999999995E-002    -64.302340039647390     
   8.2500000000000004E-002    -70.195345620262813     
   8.2799999999999999E-002    -72.681521230870104     
   8.3100000000000007E-002    -71.718287222234579     
   8.3400000000000002E-002    -67.486361070060809     
   8.3700000000000011E-002    -60.352186426301337     
   8.4000000000000005E-002    -50.842050392410634     
   8.4300000000000000E-002    -39.594766013276214     
   8.4599999999999995E-002    -27.303229208531750     
   8.4900000000000003E-002    -14.679746980982816     
   8.5199999999999998E-002    -2.3893567513653973     
   8.5500000000000007E-002     8.9751458483263740     
   8.5800000000000001E-002     18.930241485373990     
   8.6100000000000010E-002     27.123854809442161     
   8.6399999999999991E-002     33.333245642197014     
   8.6699999999999999E-002     37.474393367509926     
   8.7000000000000008E-002     39.580029999960821     
   8.7300000000000003E-002     39.792718413076948     
   8.7599999999999997E-002     38.335263640629094     
   8.7900000000000006E-002     35.488580001612931     
   8.8200000000000014E-002     31.571261487431762     
   8.8499999999999995E-002     26.910815130528338     
   8.8800000000000004E-002     21.832466772465565     
   8.9100000000000013E-002     16.632223580952868     
   8.9399999999999993E-002     11.573267251240098     
   8.9700000000000002E-002     6.8719736181349953     
   9.0000000000000011E-002     2.6918487185451379     
   9.0299999999999991E-002   -0.85204944075054834     
   9.0600000000000000E-002    -3.7042810870814766     
   9.0900000000000009E-002    -5.8488023803860880     
   9.1200000000000017E-002    -7.3162096384230839     
   9.1499999999999998E-002    -8.1715863676321021     
   9.1800000000000007E-002    -8.4972070107971582     
   9.2100000000000001E-002    -8.4002707624674606     
   9.2399999999999996E-002    -7.9829528646155943     
   9.2700000000000005E-002    -7.3495304548230918     
   9.3000000000000013E-002    -6.5960666731791404     
   9.3300000000000008E-002    -5.7969238018636844     
   9.3600000000000003E-002    -5.0176693346506624     
   9.3899999999999997E-002    -4.2986761219776879     
   9.4200000000000006E-002    -3.6672769468807092     
   9.4500000000000001E-002    -3.1383100272848514     
   9.4800000000000009E-002    -2.7112732536281485     
   9.5100000000000004E-002    -2.3823996112938968     
   9.5399999999999999E-002    -2.1426506511679650     
   9.5699999999999993E-002    -1.9800152023302682     
   9.6000000000000002E-002    -1.8816843455485754     
   9.6300000000000011E-002    -1.8374244391338861     
   9.6600000000000005E-002    -1.8317885824546700     
   9.6900000000000000E-002    -1.8534594023539499     
   9.7200000000000009E-002    -1.8898075085869976     
   9.7499999999999989E-002    -1.9215267191364174     
   9.7799999999999998E-002    -1.9386234785410918     
   9.8100000000000007E-002    -1.9214641371331505     
   9.8400000000000015E-002    -1.8588415902595954     
   9.8699999999999996E-002    -1.7439903514750543     
   9.9000000000000005E-002    -1.5649809107011285     
   9.9300000000000013E-002    -1.3299208084354086     
   9.9599999999999994E-002    -1.0402273257804715     
   9.9900000000000003E-002   -0.70736958869210476     
  0.10020000000000001        -0.35044116937369763     
  0.10049999999999999          1.9642256745501300E-002
  0.10080000000000000         0.37874949926129425     
  0.10110000000000001         0.71534832248507696     
  0.10140000000000000          1.0180737050530477     
  0.10170000000000000          1.2751717910981943     
  0.10200000000000001          1.4892212544518582     
  0.10230000000000002          1.6561043695663122     
  0.10260000000000000          1.7819337116870189     
  0.10290000000000001          1.8736916072460441     
  0.10320000000000000          1.9332360533980761     
  0.10350000000000001          1.9674844068555062     
  0.10380000000000000          1.9783108763977153     
  0.10410000000000001          1.9651603046603106     
  0.10440000000000001          1.9277226274284864     
  0.10470000000000000          1.8621496495686947     
  0.10500000000000000          1.7643515389919491     
  0.10530000000000000          1.6356916911020534     
  0.10560000000000000          1.4725689135272733     
  0.10590000000000001          1.2780795481073675     
  0.10620000000000000          1.0593002153487105     
  0.10650000000000001         0.81783797786745605     
  0.10679999999999999         0.56869913784081716     
  0.10710000000000000         0.31739229858290158     
  0.10740000000000001          7.1216012440959389E-002
  0.10770000000000000        -0.15487590793566433     
  0.10800000000000000        -0.36317760518834757     
  0.10830000000000001        -0.54343701544219891     
  0.10859999999999999        -0.69359202645300821     
  0.10890000000000000        -0.81710083869427197     
  0.10920000000000001        -0.90630807296853244     
  0.10950000000000001        -0.96972741606380808     
  0.10979999999999999         -1.0036902630636459     
  0.11009999999999999         -1.0063159686899033     
  0.11040000000000001        -0.98220541365627900     
  0.11070000000000001        -0.92497828008732697     
  0.11100000000000000        -0.83788391385805050     
  0.11130000000000000        -0.72176256124510973     
  0.11160000000000002        -0.57626642974232689     
  0.11190000000000001        -0.40848024573111902     
  0.11220000000000001        -0.22601295954001951     
  0.11250000000000000         -3.7825325656285665E-002
  0.11280000000000000         0.14203103996476502     
  0.11309999999999999         0.30037477819637332     
  0.11340000000000001         0.42651692696996341     
  0.11369999999999998         0.50470651259267796     
  0.11400000000000000         0.53035069771711996     
  0.11430000000000000         0.49991653579771084     
  0.11460000000000002         0.41149623249249118     
  0.11489999999999999         0.27929035404285046     
  0.11520000000000001         0.10937644597898043     
  0.11550000000000001         -7.9427813980632367E-002
  0.11580000000000000        -0.26833261255785107     
  0.11609999999999999        -0.44580166208468330     
  0.11640000000000002        -0.59091969405664235     
  0.11670000000000001        -0.69818856547687669     
  0.11700000000000001        -0.76275684598407600     
  0.11730000000000000        -0.78555436894366115     
  0.11760000000000000        -0.77747316716854475     
  0.11789999999999999        -0.74668796017961958     
  0.11820000000000001        -0.71046406773812576     
  0.11850000000000001        -0.68140465479340673     
  0.11880000000000000        -0.66970265273500817     
  0.11910000000000000        -0.68262988792957457     
  0.11940000000000002        -0.71800399634162382     
  0.11970000000000001        -0.76928181760804459     
  0.12000000000000001        -0.82149954577295903     
  0.12030000000000000        -0.85777034899316329     
  0.12060000000000000        -0.85657438667632280     
  0.12089999999999999        -0.80030206107989932     
  0.12119999999999999        -0.67539790438791358     
  0.12150000000000001        -0.47531160409825485     
  0.12180000000000001        -0.20565247832167494     
  0.12210000000000000         0.12205531583747385     
  0.12239999999999999         0.48049113995441306     
  0.12270000000000002         0.84119477247576813     
  0.12300000000000001          1.1698316711909338     
  0.12330000000000001          1.4290273685260102     
  0.12360000000000000          1.5952782003341168     
  0.12390000000000000          1.6452744594322271     
  0.12419999999999999          1.5772482708441606     
  0.12450000000000001          1.4021904925916766     
  0.12480000000000001          1.1400746437083198     
  0.12509999999999999         0.83448405738129405     
  0.12540000000000001         0.52594906162547483     
  0.12570000000000003         0.26574708693424326     
  0.12600000000000000          9.9915660035789000E-002
  0.12630000000000002          5.9498831545209505E-002
  0.12659999999999999         0.16917312878424828     
  0.12690000000000001         0.42728181609546911     
  0.12719999999999998         0.81620360197967734     
  0.12750000000000000          1.2978899792691092     
  0.12780000000000002          1.8197123388270859     
  0.12809999999999999          2.3186839462325617     
  0.12840000000000001          2.7285021412666688     
  0.12869999999999998          2.9899760510693927     
  0.12900000000000000          3.0512081485435267     
  0.12930000000000003          2.8846818274007298     
  0.12959999999999999          2.4780932588853362     
  0.12990000000000002          1.8443948904505907     
  0.13019999999999998          1.0224669515823510     
  0.13050000000000000          6.1199027867838721E-002
  0.13080000000000003        -0.96566143463380139     
  0.13109999999999999         -1.9864387025300967     
  0.13140000000000002         -2.9280432359777522     
  0.13169999999999998         -3.7183846458419216     
  0.13200000000000001         -4.3071648335876231     
  0.13229999999999997         -4.6537057743598034     
  0.13260000000000000         -4.7402426608559036     
  0.13290000000000002         -4.5703098096494283     
  0.13319999999999999         -4.1625777816483476     
  0.13350000000000001         -3.5557996108509338     
  0.13380000000000003         -2.7996541019397165     
  0.13410000000000000         -1.9493742594233923     
  0.13440000000000002         -1.0647721546347084     
  0.13469999999999999        -0.20536135842582856     
  0.13500000000000001         0.57967040683088622     
  0.13529999999999998          1.2457340377061943     
  0.13560000000000000          1.7605039677170102     
  0.13590000000000002          2.1080380387771704     
  0.13619999999999999          2.2756613248642328     
  0.13650000000000001          2.2722745865916241     
  0.13680000000000003          2.1120963939298547     
  0.13710000000000000          1.8168060309115834     
  0.13740000000000002          1.4214945395727612     
  0.13769999999999999         0.95529095137485931     
  0.13800000000000001         0.45902739847949092     
  0.13829999999999998         -3.0979845563967729E-002
  0.13860000000000000        -0.48246677386552927     
  0.13890000000000002        -0.86324814090798085     
  0.13919999999999999         -1.1521010816651962     
  0.13950000000000001         -1.3300730479337262     
  0.13979999999999998         -1.3898214618467393     
  0.14010000000000000         -1.3300673275408776     
  0.14040000000000002         -1.1587859847912885     
  0.14069999999999999        -0.89030090717569221     
  0.14100000000000001        -0.54309406555704076     
  0.14130000000000004        -0.14481370044253575     
  0.14160000000000000         0.28129771279983279     
  0.14189999999999997         0.70627458156096723     
  0.14219999999999999          1.1050663245757035     
  0.14250000000000002          1.4576552270931540     
  0.14279999999999998          1.7424346658205392     
  0.14310000000000000          1.9519639526740760     
  0.14339999999999997          2.0754659730662990     
  0.14369999999999999          2.1131363488755968     
  0.14400000000000002          2.0696919530421503     
  0.14429999999999998          1.9484317848766231     
  0.14460000000000001          1.7641318346065673     
  0.14490000000000003          1.5237901659905615     
  0.14520000000000000          1.2415912535186697     
  0.14550000000000002         0.93033722107409988     
  0.14579999999999999         0.59787144544893511     
  0.14610000000000001         0.25936107179452728     
  0.14640000000000003         -8.0487038335623470E-002
  0.14670000000000000        -0.41039985945594520     
  0.14699999999999996        -0.72167517266711501     
  0.14729999999999999         -1.0095870735611314     
  0.14760000000000001         -1.2638213964653460     
  0.14789999999999998         -1.4806871820740877     
  0.14820000000000000         -1.6527303926925065     