  -1.4999999999999999E-002     0.0000000000000000     
  -1.4700000000000000E-002     0.0000000000000000     
  -1.4400000000000000E-002     0.0000000000000000     
  -1.4100000000000000E-002     0.0000000000000000     
  -1.3800000000000000E-002     0.0000000000000000     
  -1.3500000000000000E-002     0.0000000000000000     
  -1.3200000000000000E-002     0.0000000000000000     
  -1.2899999999999998E-002     0.0000000000000000     
  -1.2600000000000000E-002     0.0000000000000000     
  -1.2299999999999998E-002     0.0000000000000000     
  -1.2000000000000000E-002     0.0000000000000000     
  -1.1699999999999999E-002     0.0000000000000000     
  -1.1399999999999999E-002     0.0000000000000000     
  -1.1099999999999999E-002     0.0000000000000000     
  -1.0799999999999999E-002     0.0000000000000000     
  -1.0499999999999999E-002     0.0000000000000000     
  -1.0199999999999999E-002     0.0000000000000000     
  -9.8999999999999991E-003     0.0000000000000000     
  -9.5999999999999992E-003     0.0000000000000000     
  -9.2999999999999992E-003     0.0000000000000000     
  -8.9999999999999993E-003     0.0000000000000000     
  -8.6999999999999994E-003     0.0000000000000000     
  -8.3999999999999995E-003     0.0000000000000000     
  -8.0999999999999996E-003     0.0000000000000000     
  -7.7999999999999988E-003     0.0000000000000000     
  -7.4999999999999997E-003     0.0000000000000000     
  -7.1999999999999998E-003     0.0000000000000000     
  -6.8999999999999981E-003     0.0000000000000000     
  -6.5999999999999982E-003     0.0000000000000000     
  -6.3000000000000000E-003     0.0000000000000000     
  -6.0000000000000001E-003     0.0000000000000000     
  -5.6999999999999985E-003     0.0000000000000000     
  -5.3999999999999986E-003     0.0000000000000000     
  -5.1000000000000004E-003     0.0000000000000000     
  -4.7999999999999987E-003     0.0000000000000000     
  -4.5000000000000005E-003     0.0000000000000000     
  -4.1999999999999989E-003     0.0000000000000000     
  -3.8999999999999990E-003     0.0000000000000000     
  -3.5999999999999990E-003     0.0000000000000000     
  -3.2999999999999991E-003     0.0000000000000000     
  -2.9999999999999992E-003     0.0000000000000000     
  -2.6999999999999993E-003     0.0000000000000000     
  -2.3999999999999994E-003     0.0000000000000000     
  -2.0999999999999977E-003     0.0000000000000000     
  -1.7999999999999995E-003     0.0000000000000000     
  -1.4999999999999979E-003     0.0000000000000000     
  -1.1999999999999997E-003     0.0000000000000000     
  -8.9999999999999976E-004     0.0000000000000000     
  -5.9999999999999810E-004     0.0000000000000000     
  -2.9999999999999992E-004     0.0000000000000000     
   0.0000000000000000          0.0000000000000000     
   3.0000000000000165E-004     0.0000000000000000     
   5.9999999999999984E-004     0.0000000000000000     
   9.0000000000000149E-004     0.0000000000000000     
   1.2000000000000031E-003     0.0000000000000000     
   1.5000000000000013E-003     0.0000000000000000     
   1.8000000000000030E-003     0.0000000000000000     
   2.1000000000000012E-003     0.0000000000000000     
   2.3999999999999994E-003     0.0000000000000000     
   2.7000000000000010E-003     0.0000000000000000     
   2.9999999999999992E-003     0.0000000000000000     
   3.3000000000000008E-003     0.0000000000000000     
   3.6000000000000025E-003     0.0000000000000000     
   3.9000000000000007E-003     7.7259675705150519E-045
   4.2000000000000023E-003    -4.9747769501764813E-043
   4.5000000000000005E-003     3.1689215427308933E-037
   4.7999999999999987E-003    -9.9293817298145144E-037
   5.1000000000000004E-003    -2.5680134996638206E-035
   5.4000000000000020E-003    -1.5300298800534297E-034
   5.7000000000000037E-003     1.2534654492279639E-034
   5.9999999999999984E-003     4.1220661081979406E-033
   6.3000000000000000E-003     1.8824828537883601E-033
   6.6000000000000017E-003    -4.1736743244769556E-032
   6.9000000000000034E-003    -6.6575044275567177E-032
   7.2000000000000015E-003    -9.5932479382956087E-032
   7.5000000000000032E-003     3.1202014645708073E-030
   7.8000000000000014E-003     6.2761789651957955E-030
   8.0999999999999996E-003    -1.1008697671948961E-028
   8.4000000000000012E-003     2.5309103452303814E-028
   8.7000000000000029E-003     1.0344924322492201E-027
   9.0000000000000011E-003    -9.6937323881759862E-027
   9.2999999999999992E-003     3.5004370703490724E-026
   9.6000000000000009E-003    -2.4555958193075782E-026
   9.8999999999999991E-003    -5.0292149000376271E-025
   1.0200000000000001E-002     3.2687544800469345E-024
   1.0500000000000002E-002    -9.6672933860217963E-024
   1.0800000000000004E-002     3.2270799913529049E-024
   1.1099999999999999E-002     1.0858550338691573E-022
   1.1400000000000000E-002    -5.5843679952667946E-022
   1.1700000000000002E-002     1.4163715216338908E-021
   1.2000000000000004E-002    -6.4952527288417726E-022
   1.2300000000000002E-002    -1.1883101070329672E-020
   1.2600000000000000E-002     6.5479548498759808E-020
   1.2900000000000002E-002    -2.1260645104673158E-019
   1.3200000000000000E-002     4.7091739487104357E-019
   1.3500000000000002E-002    -5.5320158988010186E-019
   1.3800000000000003E-002    -9.0942353468820410E-019
   1.4100000000000001E-002     8.0348076694650533E-018
   1.4400000000000000E-002    -3.0398984222264544E-017
   1.4700000000000001E-002     8.6955379153793670E-017
   1.4999999999999999E-002    -2.2261731614465798E-016
   1.5300000000000001E-002     6.5286599617604678E-016
   1.5600000000000003E-002    -2.7927092063001707E-015
   1.5899999999999997E-002     1.5035902438516125E-014
   1.6199999999999999E-002    -7.9133810655487619E-014
   1.6500000000000001E-002     3.6652479687970184E-013
   1.6800000000000002E-002    -1.4336707943949443E-012
   1.7100000000000004E-002     4.5125032981131621E-012
   1.7400000000000006E-002    -1.0108400746642442E-011
   1.7700000000000000E-002     8.0360193060255826E-012
   1.8000000000000002E-002     5.2263427878960183E-011
   1.8300000000000004E-002    -2.8448580886034019E-010
   1.8600000000000005E-002     6.7860333934396968E-010
   1.8900000000000000E-002    -3.1903341333656936E-010
   1.9200000000000002E-002    -3.2827723592886081E-009
   1.9500000000000003E-002     1.0031624247184408E-008
   1.9799999999999998E-002    -4.2442501557005468E-009
   2.0100000000000000E-002    -3.9632840307177336E-008
   2.0400000000000001E-002     7.2310213666983503E-008
   2.0700000000000003E-002     7.8857330134659096E-008
   2.0999999999999998E-002    -3.1377559071297938E-007
   2.1299999999999999E-002    -1.7193275103403445E-007
   2.1600000000000001E-002     8.9084026226472336E-007
   2.1900000000000003E-002     6.5125293916996201E-007
   2.2200000000000004E-002    -2.2016235879591771E-006
   2.2500000000000006E-002    -3.3482839779759128E-006
   2.2800000000000001E-002     5.1052023188366094E-006
   2.3100000000000002E-002     2.7121429251453013E-005
   2.3400000000000004E-002     6.0342377897658538E-005
   2.3699999999999999E-002     1.0306639601432129E-004
   2.4000000000000000E-002     1.6074638791871117E-004
   2.4300000000000002E-002     2.4693662221698709E-004
   2.4599999999999997E-002     3.8240022225262985E-004
   2.4900000000000005E-002     5.9332440636259949E-004
   2.5200000000000000E-002     9.1295890280522398E-004
   2.5499999999999995E-002     1.3881743230224298E-003
   2.5800000000000003E-002     2.0841727330206021E-003
   2.6099999999999998E-002     3.0884848898386323E-003
   2.6400000000000007E-002     4.5173832702867876E-003
   2.6700000000000002E-002     6.5206589989454571E-003
   2.6999999999999996E-002     9.2837574867746242E-003
   2.7300000000000005E-002     1.3028379134267206E-002
   2.7600000000000000E-002     1.8013975967507746E-002
   2.7900000000000008E-002     2.4535895511950435E-002
   2.8200000000000003E-002     3.2908662155321941E-002
   2.8499999999999998E-002     4.3440340631971559E-002
   2.8800000000000006E-002     5.6404294598208143E-002
   2.9100000000000001E-002     7.1997394464892728E-002
   2.9400000000000003E-002     9.0280425792490543E-002
   2.9700000000000004E-002    0.11110327801303163     
   3.0000000000000006E-002    0.13402704488758421     
   3.0300000000000001E-002    0.15824517128919657     
   3.0600000000000002E-002    0.18250445469967230     
   3.0900000000000004E-002    0.20504947877817511     
   3.1199999999999999E-002    0.22358597141111497     
   3.1500000000000007E-002    0.23530709035615033     
   3.1800000000000002E-002    0.23695801977699441     
   3.2099999999999997E-002    0.22499545736200538     
   3.2400000000000005E-002    0.19580222084553298     
   3.2700000000000000E-002    0.14599425662397353     
   3.3000000000000002E-002     7.2823269107976429E-002
   3.3300000000000003E-002    -2.5456356801990158E-002
   3.3599999999999998E-002   -0.14909505374721463     
   3.3900000000000000E-002   -0.29649343171744102     
   3.4200000000000001E-002   -0.46385566961224595     
   3.4500000000000003E-002   -0.64500461045922119     
   3.4799999999999998E-002   -0.83140597206980105     
   3.5099999999999999E-002    -1.0123725823585161     
   3.5400000000000001E-002    -1.1755839231963938     
   3.5699999999999996E-002    -1.3077488744567021     
   3.6000000000000004E-002    -1.3955813227930693     
   3.6299999999999999E-002    -1.4268604090355774     
   3.6600000000000008E-002    -1.3915441813479412     
   3.6900000000000002E-002    -1.2829006529221167     
   3.7199999999999997E-002    -1.0984286937095586     
   3.7500000000000006E-002   -0.84042576468563746     
   3.7800000000000000E-002   -0.51647911963607629     
   3.8100000000000009E-002   -0.13906480011289693     
   3.8400000000000004E-002    0.27481733876332470     
   3.8699999999999998E-002    0.70468101729863264     
   3.9000000000000007E-002     1.1280426637656009     
   3.9300000000000002E-002     1.5216992635615998     
   3.9600000000000003E-002     1.8637588657460762     
   3.9900000000000005E-002     2.1350154238308452     
   4.0200000000000000E-002     2.3203791879725419     
   4.0500000000000001E-002     2.4100500819576136     
   4.0800000000000003E-002     2.4000388862313495     
   4.1100000000000005E-002     2.2923867021895932     
   4.1399999999999999E-002     2.0949000691065924     
   4.1700000000000008E-002     1.8202198204788547     
   4.2000000000000003E-002     1.4849278487639601     
   4.2299999999999997E-002     1.1080833346067309     
   4.2600000000000006E-002    0.70980153372613930     
   4.2900000000000001E-002    0.30991583148262725     
   4.3200000000000002E-002    -7.3274252658122763E-002
   4.3500000000000004E-002   -0.42414205020795098     
   4.3799999999999999E-002   -0.73022732975955817     
   4.4100000000000000E-002   -0.98280152776704577     
   4.4400000000000002E-002    -1.1769070280259568     
   4.4700000000000004E-002    -1.3110023352823021     
   4.4999999999999998E-002    -1.3868923972767100     
   4.5300000000000000E-002    -1.4086917225490623     
   4.5600000000000002E-002    -1.3826268505027770     
   4.5899999999999996E-002    -1.3161989062251482     
   4.6200000000000005E-002    -1.2174117204495338     
   4.6500000000000000E-002    -1.0948106915714013     
   4.6799999999999994E-002   -0.95636364912985550     
   4.7100000000000003E-002   -0.80976573134964192     
   4.7399999999999998E-002   -0.66203955726619279     
   4.7700000000000006E-002   -0.51917026758222529     
   4.8000000000000001E-002   -0.38655482427007798     
   4.8300000000000010E-002   -0.26840235827506703     
   4.8600000000000004E-002   -0.16806487080679677     
   4.8899999999999999E-002    -8.7863940366936427E-002
   4.9200000000000008E-002    -2.8934737403920201E-002
   4.9500000000000002E-002     8.5849787358551199E-003
   4.9800000000000011E-002     2.5829331674932007E-002
   5.0100000000000006E-002     2.5001193557555562E-002
   5.0400000000000000E-002     9.3846302997492113E-003
   5.0700000000000009E-002    -1.6847890556166336E-002
   5.1000000000000004E-002    -4.8839919574106536E-002
   5.1299999999999998E-002    -8.1432975675004404E-002
   5.1600000000000007E-002   -0.10952585877228556     
   5.1900000000000002E-002   -0.12836775098810921     
   5.2200000000000010E-002   -0.13421994358371642     
   5.2500000000000005E-002   -0.12436607417283206     
   5.2800000000000000E-002    -9.7577244014337969E-002
   5.3099999999999994E-002    -5.4188695689536770E-002
   5.3400000000000003E-002     4.1152040716674367E-003
   5.3699999999999998E-002     7.4047874838454916E-002
   5.4000000000000006E-002    0.15157883847689901     
   5.4300000000000001E-002    0.23186586124643266     
   5.4599999999999996E-002    0.30984803211864592     
   5.4900000000000004E-002    0.38100578422568254     
   5.5199999999999999E-002    0.44113092549683580     
   5.5499999999999994E-002    0.48733796527349710     
   5.5800000000000002E-002    0.51771621711646365     
   5.6099999999999997E-002    0.53154866696348313     
   5.6400000000000006E-002    0.52935622954740191     
   5.6700000000000000E-002    0.51234196502487395     
   5.6999999999999995E-002    0.48248045598646377     
   5.7300000000000004E-002    0.44183521520502012     
   5.7599999999999998E-002    0.39250399829808075     
   5.7900000000000007E-002    0.33625414255835973     
   5.8200000000000002E-002    0.27438994662458943     
   5.8499999999999996E-002    0.20787433839594374     
   5.8800000000000005E-002    0.13711054334181227     
   5.9100000000000000E-002     6.2562464366784643E-002
   5.9400000000000008E-002    -1.5463533402315948E-002
   5.9700000000000003E-002    -9.6132335846699682E-002
   6.0000000000000012E-002   -0.17804193094141690     
   6.0300000000000006E-002   -0.25919773586923184     
   6.0600000000000001E-002   -0.33648737504085713     
   6.0900000000000010E-002   -0.40648602519462806     
   6.1200000000000004E-002   -0.46503498101195673     
   6.1500000000000013E-002   -0.50800638252368524     
   6.1800000000000008E-002   -0.53168933400300866     
   6.2100000000000002E-002   -0.53279523872350154     
   6.2399999999999997E-002   -0.50963841768192097     
   6.2700000000000006E-002   -0.46164091449607081     
   6.3000000000000000E-002   -0.39007564590243438     
   6.3300000000000009E-002   -0.29792621167861311     
   6.3600000000000004E-002   -0.18945042487742506     
   6.3899999999999998E-002    -7.0465437831262273E-002
   6.4199999999999993E-002     5.2918994051324608E-002
   6.4500000000000002E-002    0.17417144240798291     
   6.4800000000000010E-002    0.28724547436142139     
   6.5100000000000005E-002    0.38714086005474446     
   6.5400000000000000E-002    0.47000710974202548     
   6.5700000000000008E-002    0.53403900730640352     
   6.5999999999999989E-002    0.57895247702237618     
   6.6299999999999998E-002    0.60638837507619703     
   6.6600000000000006E-002    0.61944924233019083     
   6.6900000000000001E-002    0.62217657166483542     
   6.7199999999999996E-002    0.61937461648404779     
   6.7500000000000004E-002    0.61533920274651877     
   6.7800000000000013E-002    0.61395238084775072     
   6.8099999999999994E-002    0.61749873724873361     
   6.8400000000000002E-002    0.62645445352495643     
   6.8700000000000011E-002    0.63928858442992409     
   6.8999999999999992E-002    0.65195522652551230     
   6.9300000000000000E-002    0.65873000947084948     
   6.9600000000000009E-002    0.65193323270602199     
   6.9900000000000004E-002    0.62296776091383954     
   7.0199999999999999E-002    0.56307564542177024     
   7.0500000000000007E-002    0.46402509759750110     
   7.0800000000000016E-002    0.31960686322982074     
   7.1099999999999997E-002    0.12600851009355615     
   7.1400000000000005E-002   -0.11692924044563735     
   7.1700000000000000E-002   -0.40539397118971587     
   7.1999999999999995E-002   -0.73119762850777592     
   7.2300000000000003E-002    -1.0818076955291054     
   7.2600000000000012E-002    -1.4409287695181492     
   7.2900000000000006E-002    -1.7890247731294959     
   7.3200000000000001E-002    -2.1048542804490484     
   7.3499999999999996E-002    -2.3662916903596125     
   7.3800000000000004E-002    -2.5524186340862753     
   7.4099999999999999E-002    -2.6448799808946237     
   7.4400000000000008E-002    -2.6290008291767832     
   7.4700000000000003E-002    -2.4960073752973266     
   7.5000000000000011E-002    -2.2430376426484213     
   7.5299999999999992E-002    -1.8743974704955313     
   7.5600000000000001E-002    -1.4014223505058447     
   7.5900000000000009E-002   -0.84200672905015517     
   7.6200000000000004E-002   -0.22053562533903970     
   7.6499999999999999E-002    0.43479160149178264     
   7.6800000000000007E-002     1.0918986384297849     
   7.7099999999999988E-002     1.7181988372253196     
   7.7399999999999997E-002     2.2816807493979012     
   7.7700000000000005E-002     2.7528184997635847     
   7.8000000000000014E-002     3.1074887777354818     
   7.8299999999999995E-002     3.3268896563321668     
   7.8600000000000003E-002     3.4003328307711138     
   7.8900000000000012E-002     3.3247367409242305     
   7.9199999999999993E-002     3.1049927822161840     
   7.9500000000000001E-002     2.7542497387154654     
   7.9800000000000010E-002     2.2917978187507506     
   8.0100000000000018E-002     1.7428671907641966     
   8.0399999999999999E-002     1.1360059754246996     
   8.0700000000000008E-002    0.50172972338275523     
   8.1000000000000003E-002   -0.12980706979234707     
   8.1299999999999997E-002   -0.73060777540225486     
   8.1600000000000006E-002    -1.2761359931747072     
   8.1900000000000014E-002    -1.7470878950620568     
   8.2199999999999995E-002    -2.1293243657676983     
   8.2500000000000004E-002    -2.4152216136984395     
   8.2799999999999999E-002    -2.6023399016281896     
   8.3100000000000007E-002    -2.6932586800950360     
   8.3400000000000002E-002    -2.6949779182410216     
   8.3700000000000011E-002    -2.6164328290122496     
   8.4000000000000005E-002    -2.4688655631600573     
   8.4300000000000000E-002    -2.2632305004026319     
   8.4599999999999995E-002    -2.0098816824682544     
   8.4900000000000003E-002    -1.7181201752973632     
   8.5199999999999998E-002    -1.3949747968948503     
   8.5500000000000007E-002    -1.0466801926893643     
   8.5800000000000001E-002   -0.67757194483652439     
   8.6100000000000010E-002   -0.29161110960160674     
   8.6399999999999991E-002    0.10691955556948861     
   8.6699999999999999E-002    0.51336679067637603     
   8.7000000000000008E-002    0.92100640231231989     
   8.7300000000000003E-002     1.3216723903713596     
   8.7599999999999997E-002     1.7046344885728544     
   8.7900000000000006E-002     2.0575074481181317     
   8.8200000000000014E-002     2.3664867142908088     
   8.8499999999999995E-002     2.6165663414095590     
   8.8800000000000004E-002     2.7936691430341614     
   8.9100000000000013E-002     2.8843194631191791     
   8.9399999999999993E-002     2.8780934030230574     
   8.9700000000000002E-002     2.7677625884914132     
   9.0000000000000011E-002     2.5508634403138712     
   9.0299999999999991E-002     2.2303873962067944     
   9.0600000000000000E-002     1.8144284091205305     
   9.0900000000000009E-002     1.3176643606613747     
   9.1200000000000017E-002    0.75940757245668977     
   9.1499999999999998E-002    0.16395441689797580     
   9.1800000000000007E-002   -0.44086444658211493     
   9.2100000000000001E-002    -1.0261190698398241     
   9.2399999999999996E-002    -1.5616480732358429     
   9.2700000000000005E-002    -2.0204784183655100     
   9.3000000000000013E-002    -2.3782614894658365     
   9.3300000000000008E-002    -2.6165441658179684     
   9.3600000000000003E-002    -2.7240721368800394     
   9.3899999999999997E-002    -2.6959830944762695     
   9.4200000000000006E-002    -2.5370699667308396     
   9.4500000000000001E-002    -2.2583214656962687     
   9.4800000000000009E-002    -1.8781029737777122     
   9.5100000000000004E-002    -1.4202675536285798     
   9.5399999999999999E-002   -0.91117810050812209     
   9.5699999999999993E-002   -0.37986508528542490     
   9.6000000000000002E-002    0.14643038190569410     
   9.6300000000000011E-002    0.64210965672319331     
   9.6600000000000005E-002     1.0856744769140310     
   9.6900000000000000E-002     1.4605780271364563     
   9.7200000000000009E-002     1.7549694143121519     
   9.7499999999999989E-002     1.9628423974316873     
   9.7799999999999998E-002     2.0817136087326515     
   9.8100000000000007E-002     2.1136948403328004     
   9.8400000000000015E-002     2.0626386979669071     
   9.8699999999999996E-002     1.9345372362223727     
   9.9000000000000005E-002     1.7366374258255377     
   9.9300000000000013E-002     1.4756149869403581     
   9.9599999999999994E-002     1.1601608722560302     
   9.9900000000000003E-002    0.79834745799020246     
  0.10020000000000001         0.40043756093812333     
  0.10049999999999999         -2.1419245097425592E-002
  0.10080000000000000        -0.45350081433137601     
  0.10110000000000001        -0.87800070135961317     
  0.10140000000000000         -1.2763690487318586     
  0.10170000000000000         -1.6273599306027486     
  0.10200000000000001         -1.9099222983009887     
  0.10230000000000002         -2.1052290714778947     
  0.10260000000000000         -2.1969181797531281     
  0.10290000000000001         -2.1758920469763234     
  0.10320000000000000         -2.0393959850724510     
  0.10350000000000001         -1.7942878658192405     
  0.10380000000000000         -1.4567422433218171     
  0.10410000000000001         -1.0504060678812390     
  0.10440000000000001        -0.60779611569252989     
  0.10470000000000000        -0.16434612540082874     
  0.10500000000000000         0.24213241632927388     
  0.10530000000000000         0.57627175343671244     
  0.10560000000000000         0.80895910049930975     
  0.10590000000000001         0.91848436057823712     
  0.10620000000000000         0.89566698782887011     
  0.10650000000000001         0.74229077046848435     
  0.10679999999999999         0.47263444771870305     
  0.10710000000000000         0.11215903678416461     
  0.10740000000000001        -0.30608617771275926     
  0.10770000000000000        -0.74285827381101632     
  0.10800000000000000         -1.1584821657532840     
  0.10830000000000001         -1.5149111369669748     
  0.10859999999999999         -1.7798313646013473     
  0.10890000000000000         -1.9295488107689669     
  0.10920000000000001         -1.9500386221654888     
  0.10950000000000001         -1.8388916980982963     
  0.10979999999999999         -1.6037090611068068     
  0.11009999999999999         -1.2619244730805219     
  0.11040000000000001        -0.83786580758084039     
  0.11070000000000001        -0.36094041599090948     
  0.11100000000000000         0.13707415675371856     
  0.11130000000000000         0.62568490514047248     
  0.11160000000000002          1.0763778470732277     
  0.11190000000000001          1.4663999974604971     
  0.11220000000000001          1.7784714336594363     
  0.11250000000000000          2.0022995065485496     
  0.11280000000000000          2.1353406471237677     
  0.11309999999999999          2.1803125888523152     
  0.11340000000000001          2.1473650483829787     
  0.11369999999999998          2.0495824371609710     
  0.11400000000000000          1.9036981627506486     
  0.11430000000000000          1.7282533223283623     
  0.11460000000000002          1.5402278487405279     
  0.11489999999999999          1.3565871307936137     
  0.11520000000000001          1.1897075964191184     
  0.11550000000000001          1.0490706756958226     
  0.11580000000000000         0.93955983683451527     
  0.11609999999999999         0.86063649277131837     
  0.11640000000000002         0.80913796128805804     
  0.11670000000000001         0.77681996693047617     
  0.11700000000000001         0.75491651397728032     
  0.11730000000000000         0.73319503475568426     
  0.11760000000000000         0.70228854011631914     
  0.11789999999999999         0.65618900057931029     
  0.11820000000000001         0.59096823166702339     
  0.11850000000000001         0.50880901441093251     
  0.11880000000000000         0.41483177498713825     
  0.11910000000000000         0.31827174615636872     
  0.11940000000000002         0.23197764738879495     
  0.11970000000000001         0.16848320314198334     
  0.12000000000000001         0.14044739658221372     
  0.12030000000000000         0.15669469567892061     
  0.12060000000000000         0.22170066444531675     
  0.12089999999999999         0.33362696193142855     
  0.12119999999999999         0.48366803066989594     
  0.12150000000000001         0.65690490306899429     
  0.12180000000000001         0.83214517822900191     
  0.12210000000000000         0.98528232426099172     
  0.12239999999999999          1.0901505583653395     
  0.12270000000000002          1.1225418715887447     
  0.12300000000000001          1.0619033309260690     
  0.12330000000000001         0.89376322676555198     
  0.12360000000000000         0.61251151002394844     
  0.12390000000000000         0.22067033625024154     
  0.12419999999999999        -0.26921186351636389     
  0.12450000000000001        -0.83714403459665521     
  0.12480000000000001         -1.4561932675920031     
  0.12509999999999999         -2.0944790058816620     
  0.12540000000000001         -2.7190588952885073     
  0.12570000000000003         -3.2959836809195484     
  0.12600000000000000         -3.7956048208390349     
  0.12630000000000002         -4.1925572015045693     
  0.12659999999999999         -4.4674285444309145     
  0.12690000000000001         -4.6092866425773051     
  0.12719999999999998         -4.6134818573354099     
  0.12750000000000000         -4.4843429162064652     
  0.12780000000000002         -4.2324908898965790     
  0.12809999999999999         -3.8744591529687229     
  0.12840000000000001         -3.4326695414467685     
  0.12869999999999998         -2.9315714032695954     
  0.12900000000000000         -2.3987631184263019     
  0.12930000000000003         -1.8618422325181667     
  0.12959999999999999         -1.3468183042542041     
  0.12990000000000002        -0.87729864603204000     
  0.13019999999999998        -0.47174522966502280     
  0.13050000000000000        -0.14361313234968281     
  0.13080000000000003         0.10101197484543895     
  0.13109999999999999         0.26338944134039038     
  0.13140000000000002         0.35229000839561880     
  0.13169999999999998         0.38365665875680777     
  0.13200000000000001         0.37939192289479584     
  0.13229999999999997         0.36544605262809815     
  0.13260000000000000         0.36943200116042479     
  0.13290000000000002         0.41888326829819450     
  0.13319999999999999         0.53645683023616364     
  0.13350000000000001         0.73954111902225050     
  0.13380000000000003          1.0364445446889767     
  0.13410000000000000          1.4249151840921759     
  0.13440000000000002          1.8929865107657649     
  0.13469999999999999          2.4171211283166012     
  0.13500000000000001          2.9659911942105994     
  0.13529999999999998          3.5020054909165927     
  0.13560000000000000          3.9840570809583209     
  0.13590000000000002          4.3728650744713295     
  0.13619999999999999          4.6333673985092334     
  0.13650000000000001          4.7394531666652142     
  0.13680000000000003          4.6765249638369975     
  0.13710000000000000          4.4435795249120229     
  0.13740000000000002          4.0539463554518909     
  0.13769999999999999          3.5343939006071454     
  0.13800000000000001          2.9238156202471810     
  0.13829999999999998          2.2694369880268912     
  0.13860000000000000          1.6233887011889794     
  0.13890000000000002          1.0376705652473919     
  0.13919999999999999         0.55993220048093106     
  0.13950000000000001         0.22882335814903029     
  0.13979999999999998          6.9812841437466536E-002
  0.14010000000000000          9.4440272882412898E-002
  0.14040000000000002         0.29668227567182098     
  0.14069999999999999         0.65465613763642327     
  0.14100000000000001          1.1319781044951196     
  0.14130000000000004          1.6794840616423612     
  0.14160000000000000          2.2406787018952756     
  0.14189999999999997          2.7544306693542353     
  0.14219999999999999          3.1611138634829308     
  0.14250000000000002          3.4067393524262437     
  0.14279999999999998          3.4462617619914289     
  0.14310000000000000          3.2481299704696340     
  0.14339999999999997          2.7958015437885999     
  0.14369999999999999          2.0889326824279486     
  0.14400000000000002          1.1437347763403272     
  0.14429999999999998         -8.4220422529620916E-003
  0.14460000000000001         -1.3229993067120354     
  0.14490000000000003         -2.7447720935758460     
  0.14520000000000000         -4.2112620712981768     
  0.14550000000000002         -5.6564362364094434     
  0.14579999999999999         -7.0133316341306484     
  0.14610000000000001         -8.2185837607448793     
  0.14640000000000003         -9.2135645365741983     
  0.14670000000000000         -9.9499622528735721     
  0.14699999999999996         -10.388685801351940     
  0.14729999999999999         -10.503594970024329     
  0.14760000000000001         -10.282554253805623     
  0.14789999999999998         -9.7261444407470670     
  0.14820000000000000         -8.8511950205648713     