  -1.4999999999999999E-002     0.0000000000000000     
  -1.4700000000000000E-002     0.0000000000000000     
  -1.4400000000000000E-002     0.0000000000000000     
  -1.4100000000000000E-002     0.0000000000000000     
  -1.3800000000000000E-002     0.0000000000000000     
  -1.3500000000000000E-002     0.0000000000000000     
  -1.3200000000000000E-002     0.0000000000000000     
  -1.2899999999999998E-002     0.0000000000000000     
  -1.2600000000000000E-002     0.0000000000000000     
  -1.2299999999999998E-002     0.0000000000000000     
  -1.2000000000000000E-002     0.0000000000000000     
  -1.1699999999999999E-002     0.0000000000000000     
  -1.1399999999999999E-002     0.0000000000000000     
  -1.1099999999999999E-002     0.0000000000000000     
  -1.0799999999999999E-002     0.0000000000000000     
  -1.0499999999999999E-002     0.0000000000000000     
  -1.0199999999999999E-002     0.0000000000000000     
  -9.8999999999999991E-003     0.0000000000000000     
  -9.5999999999999992E-003     0.0000000000000000     
  -9.2999999999999992E-003     0.0000000000000000     
  -8.9999999999999993E-003     0.0000000000000000     
  -8.6999999999999994E-003     0.0000000000000000     
  -8.3999999999999995E-003     0.0000000000000000     
  -8.0999999999999996E-003     0.0000000000000000     
  -7.7999999999999988E-003     0.0000000000000000     
  -7.4999999999999997E-003     0.0000000000000000     
  -7.1999999999999998E-003     0.0000000000000000     
  -6.8999999999999981E-003     0.0000000000000000     
  -6.5999999999999982E-003     0.0000000000000000     
  -6.3000000000000000E-003     0.0000000000000000     
  -6.0000000000000001E-003     0.0000000000000000     
  -5.6999999999999985E-003     0.0000000000000000     
  -5.3999999999999986E-003     0.0000000000000000     
  -5.1000000000000004E-003     0.0000000000000000     
  -4.7999999999999987E-003     0.0000000000000000     
  -4.5000000000000005E-003     0.0000000000000000     
  -4.1999999999999989E-003     0.0000000000000000     
  -3.8999999999999990E-003     0.0000000000000000     
  -3.5999999999999990E-003     0.0000000000000000     
  -3.2999999999999991E-003     0.0000000000000000     
  -2.9999999999999992E-003     0.0000000000000000     
  -2.6999999999999993E-003     0.0000000000000000     
  -2.3999999999999994E-003     0.0000000000000000     
  -2.0999999999999977E-003     0.0000000000000000     
  -1.7999999999999995E-003     0.0000000000000000     
  -1.4999999999999979E-003     0.0000000000000000     
  -1.1999999999999997E-003     0.0000000000000000     
  -8.9999999999999976E-004     0.0000000000000000     
  -5.9999999999999810E-004     0.0000000000000000     
  -2.9999999999999992E-004     0.0000000000000000     
   0.0000000000000000          0.0000000000000000     
   3.0000000000000165E-004     0.0000000000000000     
   5.9999999999999984E-004     0.0000000000000000     
   9.0000000000000149E-004     0.0000000000000000     
   1.2000000000000031E-003     0.0000000000000000     
   1.5000000000000013E-003     0.0000000000000000     
   1.8000000000000030E-003     0.0000000000000000     
   2.1000000000000012E-003     0.0000000000000000     
   2.3999999999999994E-003     0.0000000000000000     
   2.7000000000000010E-003     0.0000000000000000     
   2.9999999999999992E-003     0.0000000000000000     
   3.3000000000000008E-003     0.0000000000000000     
   3.6000000000000025E-003     0.0000000000000000     
   3.9000000000000007E-003     0.0000000000000000     
   4.2000000000000023E-003     0.0000000000000000     
   4.5000000000000005E-003    -8.9437918071270017E-043
   4.7999999999999987E-003    -1.0878940708500722E-041
   5.1000000000000004E-003    -2.0171896161122510E-040
   5.4000000000000020E-003     9.1158398465697944E-038
   5.7000000000000037E-003     2.0116663348078739E-036
   5.9999999999999984E-003     6.2609282574349125E-037
   6.3000000000000000E-003    -5.5656059524168509E-035
   6.6000000000000017E-003    -5.0037795931356570E-035
   6.9000000000000034E-003     1.3075131034154887E-033
   7.2000000000000015E-003     5.0179995031148325E-034
   7.5000000000000032E-003    -2.3910293075483474E-032
   7.8000000000000014E-003     3.8248280623318492E-032
   8.0999999999999996E-003     3.6397647096881815E-031
   8.4000000000000012E-003    -2.4134773839637309E-030
   8.7000000000000029E-003     2.6114672274392649E-030
   9.0000000000000011E-003     4.5101449366753449E-029
   9.2999999999999992E-003    -2.9687753172921410E-028
   9.6000000000000009E-003     6.4010933582794407E-028
   9.8999999999999991E-003     2.4628340224847130E-027
   1.0200000000000001E-002    -2.5981982215643567E-026
   1.0500000000000002E-002     1.0047866217047847E-025
   1.0800000000000004E-002    -1.2146696097788107E-025
   1.1099999999999999E-002    -8.5249026475444437E-025
   1.1400000000000000E-002     5.9771718044016497E-024
   1.1700000000000002E-002    -1.8960820460224833E-023
   1.2000000000000004E-002     2.2484343546385102E-023
   1.2300000000000002E-002     1.0267449222078979E-022
   1.2600000000000000E-002    -7.4595461682925669E-022
   1.2900000000000002E-002     2.6109707406225007E-021
   1.3200000000000000E-002    -5.3856388247946091E-021
   1.3500000000000002E-002     8.6417036541849614E-022
   1.3800000000000003E-002     4.8939119334061727E-020
   1.4100000000000001E-002    -2.5897847332345600E-019
   1.4400000000000000E-002     8.6062712697576869E-019
   1.4700000000000001E-002    -1.9507919525897282E-018
   1.4999999999999999E-002     1.6203869943327135E-018
   1.5300000000000001E-002     1.2751445375819618E-017
   1.5600000000000003E-002    -9.8405226985306866E-017
   1.5899999999999997E-002     4.7394935704448909E-016
   1.6199999999999999E-002    -1.8657786809500220E-015
   1.6500000000000001E-002     6.2778037549101319E-015
   1.6800000000000002E-002    -1.7378400309064796E-014
   1.7100000000000004E-002     3.2452519471615328E-014
   1.7400000000000006E-002     1.3115856021628641E-014
   1.7700000000000000E-002    -4.7076295927388353E-013
   1.8000000000000002E-002     2.5496260450615731E-012
   1.8300000000000004E-002    -8.7006387981053348E-012
   1.8600000000000005E-002     1.8565986301232237E-011
   1.8900000000000000E-002    -9.1171851825121048E-012
   1.9200000000000002E-002    -1.0055420655776917E-010
   1.9500000000000003E-002     3.9273750018859714E-010
   1.9799999999999998E-002    -5.1195320098471340E-010
   2.0100000000000000E-002    -9.6548746156666188E-010
   2.0400000000000001E-002     4.7557626205146972E-009
   2.0700000000000003E-002    -3.2879027356425883E-009
   2.0999999999999998E-002    -1.7283530586527051E-008
   2.1299999999999999E-002     3.0470674433414574E-008
   2.1600000000000001E-002     4.6283055849891239E-008
   2.1900000000000003E-002    -1.3152685215071840E-007
   2.2200000000000004E-002    -1.6132104101905092E-007
   2.2500000000000006E-002     3.5391959428515633E-007
   2.2800000000000001E-002     5.7317436884094792E-007
   2.3100000000000002E-002    -6.4831443932342425E-007
   2.3400000000000004E-002    -1.7819555777182523E-006
   2.3699999999999999E-002     8.3679454672110614E-007
   2.4000000000000000E-002     7.5585806053750228E-006
   2.4300000000000002E-002     1.3731274126940575E-005
   2.4599999999999997E-002     1.7233170353162280E-005
   2.4900000000000005E-002     2.4588404235695453E-005
   2.5200000000000000E-002     4.4453760285088781E-005
   2.5499999999999995E-002     7.7533984335133982E-005
   2.5800000000000003E-002     1.1990183267087068E-004
   2.6099999999999998E-002     1.7685830328116248E-004
   2.6400000000000007E-002     2.6662589479138892E-004
   2.6700000000000002E-002     4.0790670674619106E-004
   2.6999999999999996E-002     6.1220418221612444E-004
   2.7300000000000005E-002     8.9554311917102000E-004
   2.7600000000000000E-002     1.2926058532623005E-003
   2.7900000000000008E-002     1.8518114587693577E-003
   2.8200000000000003E-002     2.6209112178837831E-003
   2.8499999999999998E-002     3.6487517852784859E-003
   2.8800000000000006E-002     5.0013236446272511E-003
   2.9100000000000001E-002     6.7637115392871726E-003
   2.9400000000000003E-002     9.0220958911929119E-003
   2.9700000000000004E-002     1.1851199209899979E-002
   3.0000000000000006E-002     1.5320270233819822E-002
   3.0300000000000001E-002     1.9495199741615982E-002
   3.0600000000000002E-002     2.4416787414854969E-002
   3.0900000000000004E-002     3.0070975550362061E-002
   3.1199999999999999E-002     3.6379096361994177E-002
   3.1500000000000007E-002     4.3197018442074069E-002
   3.1800000000000002E-002     5.0299826655520248E-002
   3.2099999999999997E-002     5.7354342794203997E-002
   3.2400000000000005E-002     6.3911653503019361E-002
   3.2700000000000000E-002     6.9421161898607336E-002
   3.3000000000000002E-002     7.3255245467495525E-002
   3.3300000000000003E-002     7.4728005562372565E-002
   3.3599999999999998E-002     7.3127060003412819E-002
   3.3900000000000000E-002     6.7772342615408765E-002
   3.4200000000000001E-002     5.8094041527316037E-002
   3.4500000000000003E-002     4.3701595463741486E-002
   3.4799999999999998E-002     2.4447871486361700E-002
   3.5099999999999999E-002     4.9813421573243529E-004
   3.5400000000000001E-002    -2.7622056055562911E-002
   3.5699999999999996E-002    -5.8996790275304738E-002
   3.6000000000000004E-002    -9.2323267239398238E-002
   3.6299999999999999E-002   -0.12596556484661880     
   3.6600000000000008E-002   -0.15804288990882193     
   3.6900000000000002E-002   -0.18653737581794627     
   3.7199999999999997E-002   -0.20943216959777811     
   3.7500000000000006E-002   -0.22490055125768008     
   3.7800000000000000E-002   -0.23147727052851930     
   3.8100000000000009E-002   -0.22819457058174517     
   3.8400000000000004E-002   -0.21473334826083335     
   3.8699999999999998E-002   -0.19148839370032092     
   3.9000000000000007E-002   -0.15959901305493018     
   3.9300000000000002E-002   -0.12090877511193990     
   3.9600000000000003E-002    -7.7886498329441708E-002
   3.9900000000000005E-002    -3.3432793853916613E-002
   4.0200000000000000E-002     9.3165329109244736E-003
   4.0500000000000001E-002     4.7222722140491814E-002
   4.0800000000000003E-002     7.7377097698267186E-002
   4.1100000000000005E-002     9.7329950061010237E-002
   4.1399999999999999E-002    0.10533141118069303     
   4.1700000000000008E-002    0.10043634894452452     
   4.2000000000000003E-002     8.2613227682315521E-002
   4.2299999999999997E-002     5.2785101706521592E-002
   4.2600000000000006E-002     1.2764396461921665E-002
   4.2900000000000001E-002    -3.4815337425378172E-002
   4.3200000000000002E-002    -8.6653347604539147E-002
   4.3500000000000004E-002   -0.13901277771434317     
   4.3799999999999999E-002   -0.18793931331503269     
   4.4100000000000000E-002   -0.22948519175581639     
   4.4400000000000002E-002   -0.26000472595031393     
   4.4700000000000004E-002   -0.27637041584210081     
   4.4999999999999998E-002   -0.27621743887425187     
   4.5300000000000000E-002   -0.25816507237509317     
   4.5600000000000002E-002   -0.22194537681695645     
   4.5899999999999996E-002   -0.16845058913955013     
   4.6200000000000005E-002    -9.9776369693266767E-002
   4.6500000000000000E-002    -1.9210579962324011E-002
   4.6799999999999994E-002     6.8990589867921531E-002
   4.7100000000000003E-002    0.15985017036632004     
   4.7399999999999998E-002    0.24793413993305918     
   4.7700000000000006E-002    0.32772387314975521     
   4.8000000000000001E-002    0.39404408582875217     
   4.8300000000000010E-002    0.44244051689824676     
   4.8600000000000004E-002    0.46955416587189602     
   4.8899999999999999E-002    0.47346289725465174     
   4.9200000000000008E-002    0.45385634094587363     
   4.9500000000000002E-002    0.41212659022580023     
   4.9800000000000011E-002    0.35139353397846101     
   5.0100000000000006E-002    0.27633436157264213     
   5.0400000000000000E-002    0.19288040178589458     
   5.0700000000000009E-002    0.10778446981844049     
   5.1000000000000004E-002     2.8198062906556319E-002
   5.1299999999999998E-002    -3.8791069445329125E-002
   5.1600000000000007E-002    -8.6744650199477177E-002
   5.1900000000000002E-002   -0.11036880345405355     
   5.2200000000000010E-002   -0.10589862665090888     
   5.2500000000000005E-002    -7.1432379337548368E-002
   5.2800000000000000E-002    -7.1322637805460911E-003
   5.3099999999999994E-002     8.4704036378118658E-002
   5.3400000000000003E-002    0.19968930261862206     
   5.3699999999999998E-002    0.33152596395325185     
   5.4000000000000006E-002    0.47239809997630072     
   5.4300000000000001E-002    0.61342940420601533     
   5.4599999999999996E-002    0.74513368821344739     
   5.4900000000000004E-002    0.85798380278514175     
   5.5199999999999999E-002    0.94301501358972262     
   5.5499999999999994E-002    0.99250888017405159     
   5.5800000000000002E-002     1.0004126935386515     
   5.6099999999999997E-002    0.96270507379967585     
   5.6400000000000006E-002    0.87779044702488007     
   5.6700000000000000E-002    0.74664962531290036     
   5.6999999999999995E-002    0.57282890396461061     
   5.7300000000000004E-002    0.36220943022464830     
   5.7599999999999998E-002    0.12264277842659282     
   5.7900000000000007E-002   -0.13633143385525673     
   5.8200000000000002E-002   -0.40411672005738342     
   5.8499999999999996E-002   -0.66977944673108103     
   5.8800000000000005E-002   -0.92250503192846423     
   5.9100000000000000E-002    -1.1521872634294978     
   5.9400000000000008E-002    -1.3499638670158798     
   5.9700000000000003E-002    -1.5085366961484361     
   6.0000000000000012E-002    -1.6224695787902130     
   6.0300000000000006E-002    -1.6882993244714439     
   6.0600000000000001E-002    -1.7045098787304735     
   6.0900000000000010E-002    -1.6714170556121775     
   6.1200000000000004E-002    -1.5910031743368847     
   6.1500000000000013E-002    -1.4667807195576261     
   6.1800000000000008E-002    -1.3034392491754974     
   6.2100000000000002E-002    -1.1065566408499465     
   6.2399999999999997E-002   -0.88261553106416524     
   6.2700000000000006E-002   -0.63876418072262187     
   6.3000000000000000E-002   -0.38257509430408199     
   6.3300000000000009E-002   -0.12197114975213136     
   6.3600000000000004E-002    0.13484212353585412     
   6.3899999999999998E-002    0.37952096435128119     
   6.4199999999999993E-002    0.60390943287679000     
   6.4500000000000002E-002    0.80024736212958025     
   6.4800000000000010E-002    0.96144163241193192     
   6.5100000000000005E-002     1.0814868199029222     
   6.5400000000000000E-002     1.1558498118991061     
   6.5700000000000008E-002     1.1818590791018115     
   6.5999999999999989E-002     1.1590481924447200     
   6.6299999999999998E-002     1.0893556506590247     
   6.6600000000000006E-002    0.97717849626073683     
   6.6900000000000001E-002    0.82934177629263084     
   6.7199999999999996E-002    0.65487462270997021     
   6.7500000000000004E-002    0.46447425813454435     
   6.7800000000000013E-002    0.26982306017101765     
   6.8099999999999994E-002     8.2884181398334644E-002
   6.8400000000000002E-002    -8.4831901901317897E-002
   6.8700000000000011E-002   -0.22325269791723529     
   6.8999999999999992E-002   -0.32460289136499915     
   6.9300000000000000E-002   -0.38394064919300791     
   6.9600000000000009E-002   -0.39971271526275720     
   6.9900000000000004E-002   -0.37402181546762575     
   7.0199999999999999E-002   -0.31252607242957231     
   7.0500000000000007E-002   -0.22417985885344591     
   7.0800000000000016E-002   -0.12062435967009053     
   7.1099999999999997E-002    -1.5331347681141850E-002
   7.1400000000000005E-002     7.7510975828102985E-002
   7.1700000000000000E-002    0.14424387903588254     
   7.1999999999999995E-002    0.17282624402089286     
   7.2300000000000003E-002    0.15413383710381745     
   7.2600000000000012E-002     8.2999469627840008E-002
   7.2900000000000006E-002    -4.1150179303425169E-002
   7.3200000000000001E-002   -0.21381368272283813     
   7.3499999999999996E-002   -0.42539952858492974     
   7.3800000000000004E-002   -0.66178238641823961     
   7.4099999999999999E-002   -0.90521095731048518     
   7.4400000000000008E-002    -1.1354991691723939     
   7.4700000000000003E-002    -1.3315363382249159     
   7.5000000000000011E-002    -1.4730332727698239     
   7.5299999999999992E-002    -1.5423352646876995     
   7.5600000000000001E-002    -1.5259522325752708     
   7.5900000000000009E-002    -1.4157461800046041     
   7.6200000000000004E-002    -1.2098032632338158     
   7.6499999999999999E-002   -0.91295862727632571     
   7.6800000000000007E-002   -0.53656088169559535     
   7.7099999999999988E-002    -9.7669822946201412E-002
   7.7399999999999997E-002    0.38214400117750702     
   7.7700000000000005E-002    0.87819685445405149     
   7.8000000000000014E-002     1.3643186698967567     
   7.8299999999999995E-002     1.8148902668268911     
   7.8600000000000003E-002     2.2067053521591404     
   7.8900000000000012E-002     2.5202163247273877     
   7.9199999999999993E-002     2.7404746660431565     
   7.9500000000000001E-002     2.8580458358661631     
   7.9800000000000010E-002     2.8694407217217299     
   8.0100000000000018E-002     2.7767074759848609     
   8.0399999999999999E-002     2.5866056903313441     
   8.0700000000000008E-002     2.3099834677710636     
   8.1000000000000003E-002     1.9608279407257294     
   8.1299999999999997E-002     1.5549710937036010     
   8.1600000000000006E-002     1.1090674621313781     
   8.1900000000000014E-002    0.63954091906267929     
   8.2199999999999995E-002    0.16203735736079677     
   8.2500000000000004E-002   -0.30897451612726656     
   8.2799999999999999E-002   -0.76069021306796947     
   8.3100000000000007E-002    -1.1819713101699794     
   8.3400000000000002E-002    -1.5631490179132770     
   8.3700000000000011E-002    -1.8958050563422981     
   8.4000000000000005E-002    -2.1726522319663188     
   8.4300000000000000E-002    -2.3874556799527502     
   8.4599999999999995E-002    -2.5347867364351826     
   8.4900000000000003E-002    -2.6100611777876597     
   8.5199999999999998E-002    -2.6098193566294592     
   8.5500000000000007E-002    -2.5319666948900243     
   8.5800000000000001E-002    -2.3760440273079477     
   8.6100000000000010E-002    -2.1436367009839152     
   8.6399999999999991E-002    -1.8389138053725196     
   8.6699999999999999E-002    -1.4686667133132587     
   8.7000000000000008E-002    -1.0426548060114276     
   8.7300000000000003E-002   -0.57360027726850804     
   8.7599999999999997E-002    -7.6728126556431214E-002
   8.7900000000000006E-002    0.43045579332691175     
   8.8200000000000014E-002    0.92877329174502810     
   8.8499999999999995E-002     1.3984471996754508     
   8.8800000000000004E-002     1.8200731503813610     
   8.9100000000000013E-002     2.1756740263766661     
   8.9399999999999993E-002     2.4496269030566480     
   8.9700000000000002E-002     2.6296393725604847     
   9.0000000000000011E-002     2.7079009770482894     
   9.0299999999999991E-002     2.6813548483328580     
   9.0600000000000000E-002     2.5515768519332900     
   9.0900000000000009E-002     2.3249046246689398     
   9.1200000000000017E-002     2.0120882379825042     
   9.1499999999999998E-002     1.6273249711534787     
   9.1800000000000007E-002     1.1872135845498288     
   9.2100000000000001E-002    0.70958470584964461     
   9.2399999999999996E-002    0.21255804729511929     
   9.2700000000000005E-002   -0.28624804916008706     
   9.3000000000000013E-002   -0.77075855092548107     
   9.3300000000000008E-002    -1.2270097488742211     
   9.3600000000000003E-002    -1.6432624067152986     
   9.3899999999999997E-002    -2.0098303904779673     
   9.4200000000000006E-002    -2.3188282368444511     
   9.4500000000000001E-002    -2.5640724550000424     
   9.4800000000000009E-002    -2.7407358367238306     
   9.5100000000000004E-002    -2.8447849966468923     
   9.5399999999999999E-002    -2.8729211498153751     
   9.5699999999999993E-002    -2.8228727129173459     
   9.6000000000000002E-002    -2.6934551885863911     
   9.6300000000000011E-002    -2.4852224197815551     
   9.6600000000000005E-002    -2.2009422173735809     
   9.6900000000000000E-002    -1.8458788683497920     
   9.7200000000000009E-002    -1.4286227967620322     
   9.7499999999999989E-002   -0.96133818313310071     
   9.7799999999999998E-002   -0.45941728326879860     
   9.8100000000000007E-002     5.8929117098628359E-002
   9.8400000000000015E-002    0.57345955107624547     
   9.8699999999999996E-002     1.0624876118906348     
   9.9000000000000005E-002     1.5044314516542596     
   9.9300000000000013E-002     1.8795938599356836     
   9.9599999999999994E-002     2.1710822726324137     
   9.9900000000000003E-002     2.3660506561751893     
  0.10020000000000001          2.4566765636811434     
  0.10049999999999999          2.4407611673626892     
  0.10080000000000000          2.3221474745315156     
  0.10110000000000001          2.1103122597261388     
  0.10140000000000000          1.8195498151705978     
  0.10170000000000000          1.4682671709592332     
  0.10200000000000001          1.0779089197580884     
  0.10230000000000002         0.67131034034606607     
  0.10260000000000000         0.27147532688632431     
  0.10290000000000001         -9.9696530168614073E-002
  0.10320000000000000        -0.42284222913401959     
  0.10350000000000001        -0.68182769136589394     
  0.10380000000000000        -0.86474466927986626     
  0.10410000000000001        -0.96429046498396565     
  0.10440000000000001        -0.97795657522715662     
  0.10470000000000000        -0.90821105005205505     
  0.10500000000000000        -0.76190506430741012     
  0.10530000000000000        -0.55004584724202821     
  0.10560000000000000        -0.28723252887204709     
  0.10590000000000001          9.4053382504498129E-003
  0.10620000000000000         0.32068024636712539     
  0.10650000000000001         0.62649585128243201     
  0.10679999999999999         0.90701770996639430     
  0.10710000000000000          1.1432550181724799     
  0.10740000000000001          1.3180880495305312     
  0.10770000000000000          1.4175392651810754     
  0.10800000000000000          1.4314419056322492     
  0.10830000000000001          1.3539372646209054     
  0.10859999999999999          1.1841308888612103     
  0.10890000000000000         0.92650518370345525     
  0.10920000000000001         0.59110738309835797     
  0.10950000000000001         0.19313192174753258     
  0.10979999999999999        -0.24762943957452227     
  0.11009999999999999        -0.70720540007662946     
  0.11040000000000001         -1.1588123036007776     
  0.11070000000000001         -1.5740628706431372     
  0.11100000000000000         -1.9244782710624362     
  0.11130000000000000         -2.1837118346781055     
  0.11160000000000002         -2.3289690069009352     
  0.11190000000000001         -2.3425781289078151     
  0.11220000000000001         -2.2142211089814330     
  0.11250000000000000         -1.9425045049459273     
  0.11280000000000000         -1.5355026909567067     
  0.11309999999999999         -1.0110218561848883     
  0.11340000000000001        -0.39652656271599773     
  0.11369999999999998         0.27157722205842705     
  0.11400000000000000         0.95017026116209191     
  0.11430000000000000          1.5924881346083180     
  0.11460000000000002          2.1507976538327860     
  0.11489999999999999          2.5803349431760982     
  0.11520000000000001          2.8434920877254743     
  0.11550000000000001          2.9129153936561116     
  0.11580000000000000          2.7748788965483691     
  0.11609999999999999          2.4314168148585957     
  0.11640000000000002          1.9009272924344867     
  0.11670000000000001          1.2175953627155349     
  0.11700000000000001         0.42907003225032114     
  0.11730000000000000        -0.40680232867517152     
  0.11760000000000000         -1.2267189497643542     
  0.11789999999999999         -1.9675705391711147     
  0.11820000000000001         -2.5718359883451276     
  0.11850000000000001         -2.9927911954781532     
  0.11880000000000000         -3.1988030663386242     
  0.11910000000000000         -3.1762075209055021     
  0.11940000000000002         -2.9305823998735661     
  0.11970000000000001         -2.4862094396462862     
  0.12000000000000001         -1.8831545927393241     
  0.12030000000000000         -1.1734384331625445     
  0.12060000000000000        -0.41644439216592521     
  0.12089999999999999         0.32711877362633468     
  0.12119999999999999          1.0009104362062862     
  0.12150000000000001          1.5576372922793158     
  0.12180000000000001          1.9627365854229195     
  0.12210000000000000          2.1964874000365482     
  0.12239999999999999          2.2550804683456107     
  0.12270000000000002          2.1497191121339809     
  0.12300000000000001          1.9037975126165652     
  0.12330000000000001          1.5495744540412502     
  0.12360000000000000          1.1245450975637696     
  0.12390000000000000         0.66743994819808516     
  0.12419999999999999         0.21429162692443471     
  0.12450000000000001        -0.20445408961884470     
  0.12480000000000001        -0.56573373517596948     
  0.12509999999999999        -0.85431821515053030     
  0.12540000000000001         -1.0631032473466373     
  0.12570000000000003         -1.1920794528433376     
  0.12600000000000000         -1.2459551282849213     
  0.12630000000000002         -1.2326375818167044     
  0.12659999999999999         -1.1614748208867298     
  0.12690000000000001         -1.0416854052335109     
  0.12719999999999998        -0.88165380979044983     
  0.12750000000000000        -0.68820144507862868     
  0.12780000000000002        -0.46727069576205360     
  0.12809999999999999        -0.22505354849196907     
  0.12840000000000001          3.1479238376405663E-002
  0.12869999999999998         0.29332237206399125     
  0.12900000000000000         0.54866649061663231     
  0.12930000000000003         0.78312285420375582     
  0.12959999999999999         0.97990382504612317     
  0.12990000000000002          1.1213558496473195     
  0.13019999999999998          1.1909355407865831     
  0.13050000000000000          1.1753085093290478     
  0.13080000000000003          1.0669623273953464     
  0.13109999999999999         0.86620670721244553     
  0.13140000000000002         0.58249850834314754     
  0.13169999999999998         0.23562490734969482     
  0.13200000000000001        -0.14561834476795038     
  0.13229999999999997        -0.52544527453157919     
  0.13260000000000000        -0.86334968831384373     
  0.13290000000000002         -1.1185610275810010     
  0.13319999999999999         -1.2545204086430486     
  0.13350000000000001         -1.2433389153647458     
  0.13380000000000003         -1.0698482970987673     
  0.13410000000000000        -0.73443566077556155     
  0.13440000000000002        -0.25475648162188963     
  0.13469999999999999         0.33432329753839296     
  0.13500000000000001         0.98291976531173608     
  0.13529999999999998          1.6295733581859635     
  0.13560000000000000          2.2066959646277446     
  0.13590000000000002          2.6473158561390902     
  0.13619999999999999          2.8907818278325350     
  0.13650000000000001          2.8890899172521078     
  0.13680000000000003          2.6132448676093452     
  0.13710000000000000          2.0570096233211910     
  0.13740000000000002          1.2380000846676706     
  0.13769999999999999         0.19795820265047404     
  0.13800000000000001        -0.99982496644281804     
  0.13829999999999998         -2.2747059328088599     
  0.13860000000000000         -3.5355584660495669     
  0.13890000000000002         -4.6882830187906119     
  0.13919999999999999         -5.6429205427187448     
  0.13950000000000001         -6.3217654766916800     
  0.13979999999999998         -6.6656722166116706     
  0.14010000000000000         -6.6388270488485901     
  0.14040000000000002         -6.2320887449942690     
  0.14069999999999999         -5.4636943522425483     
  0.14100000000000001         -4.3771561520186015     
  0.14130000000000004         -3.0379610106206547     
  0.14160000000000000         -1.5283264169600987     
  0.14189999999999997          5.9809582210356149E-002
  0.14219999999999999          1.6319894320523205     
  0.14250000000000002          3.0981381117431681     
  0.14279999999999998          4.3791247884997828     
  0.14310000000000000          5.4119782136392072     
  0.14339999999999997          6.1541488970937648     
  0.14369999999999999          6.5847881464958329     
  0.14400000000000002          6.7050065748556698     
  0.14429999999999998          6.5369908944358741     
  0.14460000000000001          6.1202493080088329     
  0.14490000000000003          5.5076471773900995     
  0.14520000000000000          4.7609809598219179     
  0.14550000000000002          3.9455794406080589     
  0.14579999999999999          3.1257954914025223     
  0.14610000000000001          2.3603714012606876     
  0.14640000000000003          1.6985500582034692     
  0.14670000000000000          1.1775194531123720     
  0.14699999999999996         0.82052878796626483     
  0.14729999999999999         0.63590464351558973     
  0.14760000000000001         0.61659511171174963     
  0.14789999999999998         0.74132563982342425     
  0.14820000000000000         0.97687881445016433     