  -1.4999999999999999E-002     0.0000000000000000     
  -1.4700000000000000E-002     0.0000000000000000     
  -1.4400000000000000E-002     0.0000000000000000     
  -1.4100000000000000E-002     0.0000000000000000     
  -1.3800000000000000E-002     0.0000000000000000     
  -1.3500000000000000E-002     0.0000000000000000     
  -1.3200000000000000E-002     0.0000000000000000     
  -1.2899999999999998E-002     0.0000000000000000     
  -1.2600000000000000E-002     0.0000000000000000     
  -1.2299999999999998E-002     0.0000000000000000     
  -1.2000000000000000E-002     0.0000000000000000     
  -1.1699999999999999E-002     0.0000000000000000     
  -1.1399999999999999E-002     0.0000000000000000     
  -1.1099999999999999E-002     0.0000000000000000     
  -1.0799999999999999E-002     0.0000000000000000     
  -1.0499999999999999E-002     0.0000000000000000     
  -1.0199999999999999E-002     0.0000000000000000     
  -9.8999999999999991E-003     0.0000000000000000     
  -9.5999999999999992E-003     0.0000000000000000     
  -9.2999999999999992E-003     0.0000000000000000     
  -8.9999999999999993E-003     0.0000000000000000     
  -8.6999999999999994E-003     0.0000000000000000     
  -8.3999999999999995E-003     0.0000000000000000     
  -8.0999999999999996E-003     0.0000000000000000     
  -7.7999999999999988E-003     0.0000000000000000     
  -7.4999999999999997E-003     0.0000000000000000     
  -7.1999999999999998E-003     0.0000000000000000     
  -6.8999999999999981E-003     0.0000000000000000     
  -6.5999999999999982E-003     0.0000000000000000     
  -6.3000000000000000E-003     0.0000000000000000     
  -6.0000000000000001E-003     0.0000000000000000     
  -5.6999999999999985E-003     0.0000000000000000     
  -5.3999999999999986E-003     0.0000000000000000     
  -5.1000000000000004E-003     0.0000000000000000     
  -4.7999999999999987E-003     0.0000000000000000     
  -4.5000000000000005E-003     0.0000000000000000     
  -4.1999999999999989E-003     0.0000000000000000     
  -3.8999999999999990E-003     0.0000000000000000     
  -3.5999999999999990E-003     0.0000000000000000     
  -3.2999999999999991E-003     0.0000000000000000     
  -2.9999999999999992E-003     0.0000000000000000     
  -2.6999999999999993E-003     0.0000000000000000     
  -2.3999999999999994E-003     0.0000000000000000     
  -2.0999999999999977E-003     0.0000000000000000     
  -1.7999999999999995E-003     0.0000000000000000     
  -1.4999999999999979E-003     0.0000000000000000     
  -1.1999999999999997E-003     0.0000000000000000     
  -8.9999999999999976E-004     0.0000000000000000     
  -5.9999999999999810E-004     0.0000000000000000     
  -2.9999999999999992E-004     0.0000000000000000     
   0.0000000000000000          0.0000000000000000     
   3.0000000000000165E-004     0.0000000000000000     
   5.9999999999999984E-004     0.0000000000000000     
   9.0000000000000149E-004     0.0000000000000000     
   1.2000000000000031E-003     0.0000000000000000     
   1.5000000000000013E-003     0.0000000000000000     
   1.8000000000000030E-003     0.0000000000000000     
   2.1000000000000012E-003     0.0000000000000000     
   2.3999999999999994E-003     0.0000000000000000     
   2.7000000000000010E-003     0.0000000000000000     
   2.9999999999999992E-003     0.0000000000000000     
   3.3000000000000008E-003     0.0000000000000000     
   3.6000000000000025E-003     0.0000000000000000     
   3.9000000000000007E-003     0.0000000000000000     
   4.2000000000000023E-003     0.0000000000000000     
   4.5000000000000005E-003     0.0000000000000000     
   4.7999999999999987E-003     0.0000000000000000     
   5.1000000000000004E-003     0.0000000000000000     
   5.4000000000000020E-003     0.0000000000000000     
   5.7000000000000037E-003     0.0000000000000000     
   5.9999999999999984E-003     0.0000000000000000     
   6.3000000000000000E-003     0.0000000000000000     
   6.6000000000000017E-003     0.0000000000000000     
   6.9000000000000034E-003     0.0000000000000000     
   7.2000000000000015E-003     0.0000000000000000     
   7.5000000000000032E-003     0.0000000000000000     
   7.8000000000000014E-003     0.0000000000000000     
   8.0999999999999996E-003     0.0000000000000000     
   8.4000000000000012E-003     0.0000000000000000     
   8.7000000000000029E-003     0.0000000000000000     
   9.0000000000000011E-003     0.0000000000000000     
   9.2999999999999992E-003     0.0000000000000000     
   9.6000000000000009E-003     0.0000000000000000     
   9.8999999999999991E-003     0.0000000000000000     
   1.0200000000000001E-002     0.0000000000000000     
   1.0500000000000002E-002     0.0000000000000000     
   1.0800000000000004E-002     0.0000000000000000     
   1.1099999999999999E-002     4.4135000068513920E-044
   1.1400000000000000E-002     3.1891070028362399E-043
   1.1700000000000002E-002    -2.2305823310454103E-037
   1.2000000000000004E-002    -2.4159864330243611E-035
   1.2300000000000002E-002     2.7711476816575063E-035
   1.2600000000000000E-002     9.9816421672132092E-034
   1.2900000000000002E-002    -1.0059935018540339E-033
   1.3200000000000000E-002    -3.6775829171475499E-032
   1.3500000000000002E-002     1.1880369147435663E-031
   1.3800000000000003E-002     5.7783472854298482E-031
   1.4100000000000001E-002    -4.5926751342910391E-030
   1.4400000000000000E-002     5.3086121206284170E-030
   1.4700000000000001E-002     6.4402058515108226E-029
   1.4999999999999999E-002    -3.7642062807145605E-028
   1.5300000000000001E-002     6.7137350259862243E-028
   1.5600000000000003E-002     2.8211092483973327E-027
   1.5899999999999997E-002    -2.3658768638778522E-026
   1.6199999999999999E-002     7.0001101576460408E-026
   1.6500000000000001E-002    -3.9231693576946258E-027
   1.6800000000000002E-002    -8.1882831283519629E-025
   1.7100000000000004E-002     3.3648750716113045E-024
   1.7400000000000006E-002    -4.4871219138101740E-024
   1.7700000000000000E-002    -1.8955284770081001E-023
   1.8000000000000002E-002     1.3423923771767515E-022
   1.8300000000000004E-002    -4.1051423882341530E-022
   1.8600000000000005E-002     5.1031978030224136E-022
   1.8900000000000000E-002     1.7316858520375583E-021
   1.9200000000000002E-002    -1.2552037489578388E-020
   1.9500000000000003E-002     3.5909875823177607E-020
   1.9799999999999998E-002    -3.5699632640368428E-021
   2.0100000000000000E-002    -5.8913294066651272E-019
   2.0400000000000001E-002     4.1844503670536405E-018
   2.0700000000000003E-002    -2.0719400798667723E-017
   2.0999999999999998E-002     8.7268593412534382E-017
   2.1299999999999999E-002    -3.3617066130626888E-016
   2.1600000000000001E-002     1.2261365766939753E-015
   2.1900000000000003E-002    -4.2842281999926558E-015
   2.2200000000000004E-002     1.4206839010739049E-014
   2.2500000000000006E-002    -4.3270226078795515E-014
   2.2800000000000001E-002     1.1284921597040674E-013
   2.3100000000000002E-002    -2.0866323388950364E-013
   2.3400000000000004E-002     1.1206577835931782E-014
   2.3699999999999999E-002     2.0134761445717102E-012
   2.4000000000000000E-002    -1.0139347796509908E-011
   2.4300000000000002E-002     2.9030260428301488E-011
   2.4599999999999997E-002    -4.0293134494449347E-011
   2.4900000000000005E-002    -5.9672945987334463E-011
   2.5200000000000000E-002     4.5914485424574518E-010
   2.5499999999999995E-002    -9.4684316883189097E-010
   2.5800000000000003E-002    -2.1706807827107843E-010
   2.6099999999999998E-002     5.2991847321055457E-009
   2.6400000000000007E-002    -7.9618420803780365E-009
   2.6700000000000002E-002    -1.1952243609355823E-008
   2.6999999999999996E-002     4.2474533870174279E-008
   2.7300000000000005E-002     1.4424510412358109E-008
   2.7600000000000000E-002    -1.5083166286575606E-007
   2.7900000000000008E-002    -5.1288282489175814E-008
   2.8200000000000003E-002     4.1226238896889589E-007
   2.8499999999999998E-002     2.8931735903978614E-007
   2.8800000000000006E-002    -9.3724596347666088E-007
   2.9100000000000001E-002    -1.2795584513981599E-006
   2.9400000000000003E-002     2.0573132932910045E-006
   2.9700000000000004E-002     8.3541662505408472E-006
   3.0000000000000006E-002     1.3743164449634661E-005
   3.0300000000000001E-002     1.7639677198647068E-005
   3.0600000000000002E-002     2.6063621986029007E-005
   3.0900000000000004E-002     4.5802084501700382E-005
   3.1199999999999999E-002     7.7612103914766225E-005
   3.1500000000000007E-002     1.1983935453581820E-004
   3.1800000000000002E-002     1.7861492532561966E-004
   3.2099999999999997E-002     2.6977481667241017E-004
   3.2400000000000005E-002     4.0983220162530874E-004
   3.2700000000000000E-002     6.1122591027003368E-004
   3.3000000000000002E-002     8.9127432042973120E-004
   3.3300000000000003E-002     1.2824126917397531E-003
   3.3599999999999998E-002     1.8286584166393660E-003
   3.3900000000000000E-002     2.5755190593747127E-003
   3.4200000000000001E-002     3.5707990559515077E-003
   3.4500000000000003E-002     4.8751151649022240E-003
   3.4799999999999998E-002     6.5638847256979426E-003
   3.5099999999999999E-002     8.7149944786805694E-003
   3.5400000000000001E-002     1.1397482897812783E-002
   3.5699999999999996E-002     1.4671593045786460E-002
   3.6000000000000004E-002     1.8587345324793281E-002
   3.6299999999999999E-002     2.3171814212219623E-002
   3.6600000000000008E-002     2.8405176503510959E-002
   3.6900000000000002E-002     3.4205667657972630E-002
   3.7199999999999997E-002     4.0426611815811156E-002
   3.7500000000000006E-002     4.6843234270803030E-002
   3.7800000000000000E-002     5.3141012485361037E-002
   3.8100000000000009E-002     5.8908853222411045E-002
   3.8400000000000004E-002     6.3641316542908680E-002
   3.8699999999999998E-002     6.6764920084575713E-002
   3.9000000000000007E-002     6.7669174458400649E-002
   3.9300000000000002E-002     6.5725973376179012E-002
   3.9600000000000003E-002     6.0362624251040387E-002
   3.9900000000000005E-002     5.1106510698386981E-002
   4.0200000000000000E-002     3.7643195883610085E-002
   4.0500000000000001E-002     1.9909331272006531E-002
   4.0800000000000003E-002    -1.8745848082436431E-003
   4.1100000000000005E-002    -2.7167562650641623E-002
   4.1399999999999999E-002    -5.5078053887480619E-002
   4.1700000000000008E-002    -8.4381075259230637E-002
   4.2000000000000003E-002   -0.11354277386912784     
   4.2299999999999997E-002   -0.14082454184129400     
   4.2600000000000006E-002   -0.16438397727746551     
   4.2900000000000001E-002   -0.18238419171489478     
   4.3200000000000002E-002   -0.19317567135797023     
   4.3500000000000004E-002   -0.19541741605415888     
   4.3799999999999999E-002   -0.18824679763967850     
   4.4100000000000000E-002   -0.17137300511038897     
   4.4400000000000002E-002   -0.14515909040790634     
   4.4700000000000004E-002   -0.11066882512366336     
   4.4999999999999998E-002    -6.9586748304222817E-002
   4.5300000000000000E-002    -2.4208551486115448E-002
   4.5600000000000002E-002     2.2718933704679943E-002
   4.5899999999999996E-002     6.8211410761987348E-002
   4.6200000000000005E-002    0.10922209517808738     
   4.6500000000000000E-002    0.14281410224239283     
   4.6799999999999994E-002    0.16642297942971720     
   4.7100000000000003E-002    0.17803727120744015     
   4.7399999999999998E-002    0.17635583806118282     
   4.7700000000000006E-002    0.16083600956260458     
   4.8000000000000001E-002    0.13180054491612989     
   4.8300000000000010E-002     9.0429549073607743E-002
   4.8600000000000004E-002     3.8631205153230173E-002
   4.8899999999999999E-002    -2.0978887872033128E-002
   4.9200000000000008E-002    -8.5268656807200166E-002
   4.9500000000000002E-002   -0.15080031997578533     
   4.9800000000000011E-002   -0.21399323827909192     
   5.0100000000000006E-002   -0.27133447047292047     
   5.0400000000000000E-002   -0.31956395546984506     
   5.0700000000000009E-002   -0.35585465992293369     
   5.1000000000000004E-002   -0.37804415718661399     
   5.1299999999999998E-002   -0.38465294082347778     
   5.1600000000000007E-002   -0.37496578493359400     
   5.1900000000000002E-002   -0.34914904610744851     
   5.2200000000000010E-002   -0.30814793481692543     
   5.2500000000000005E-002   -0.25363516600371050     
   5.2800000000000000E-002   -0.18800341911942611     
   5.3099999999999994E-002   -0.11402673899590375     
   5.3400000000000003E-002    -3.4842781145755342E-002
   5.3699999999999998E-002     4.6228825922608824E-002
   5.4000000000000006E-002    0.12600913559629429     
   5.4300000000000001E-002    0.20145578528229838     
   5.4599999999999996E-002    0.26995509644130555     
   5.4900000000000004E-002    0.32939651335554948     
   5.5199999999999999E-002    0.37814673465437537     
   5.5499999999999994E-002    0.41523542654217332     
   5.5800000000000002E-002    0.44021451110570364     
   5.6099999999999997E-002    0.45316534867270813     
   5.6400000000000006E-002    0.45459091303154270     
   5.6700000000000000E-002    0.44530626787254490     
   5.6999999999999995E-002    0.42635342156635470     
   5.7300000000000004E-002    0.39886587562400549     
   5.7599999999999998E-002    0.36407062144685187     
   5.7900000000000007E-002    0.32306715607943121     
   5.8200000000000002E-002    0.27696111587414751     
   5.8499999999999996E-002    0.22683590465791240     
   5.8800000000000005E-002    0.17365145522040232     
   5.9100000000000000E-002    0.11853360246819539     
   5.9400000000000008E-002     6.2595075707091621E-002
   5.9700000000000003E-002     7.1479026406216090E-003
   6.0000000000000012E-002    -4.6164014079690431E-002
   6.0300000000000006E-002    -9.5621340303373603E-002
   6.0600000000000001E-002   -0.13911110159681317     
   6.0900000000000010E-002   -0.17433623925822009     
   6.1200000000000004E-002   -0.19899491878932707     
   6.1500000000000013E-002   -0.21066398787246302     
   6.1800000000000008E-002   -0.20724429016500817     
   6.2100000000000002E-002   -0.18707084446879790     
   6.2399999999999997E-002   -0.14903744822089457     
   6.2700000000000006E-002    -9.2982587786751447E-002
   6.3000000000000000E-002    -1.9745377403732965E-002
   6.3300000000000009E-002     6.8700516650702911E-002
   6.3600000000000004E-002    0.16917845736850487     
   6.3899999999999998E-002    0.27736112517243433     
   6.4199999999999993E-002    0.38795113495540434     
   6.4500000000000002E-002    0.49482974214028363     
   6.4800000000000010E-002    0.59145980737647863     
   6.5100000000000005E-002    0.67125111341659260     
   6.5400000000000000E-002    0.72787361726191879     
   6.5700000000000008E-002    0.75586294400992005     
   6.5999999999999989E-002    0.75087081571583958     
   6.6299999999999998E-002    0.70998494950737534     
   6.6600000000000006E-002    0.63209014255677687     
   6.6900000000000001E-002    0.51798336860771055     
   6.7199999999999996E-002    0.37036787712725827     
   6.7500000000000004E-002    0.19380942860079173     
   6.7800000000000013E-002    -5.4412193055089755E-003
   6.8099999999999994E-002   -0.21976123980707940     
   6.8400000000000002E-002   -0.44055104249522675     
   6.8700000000000011E-002   -0.65853875617242286     
   6.8999999999999992E-002   -0.86436616859492710     
   6.9300000000000000E-002    -1.0490280313374265     
   6.9600000000000009E-002    -1.2042931218852033     
   6.9900000000000004E-002    -1.3231145023964823     
   7.0199999999999999E-002    -1.3999686105185662     
   7.0500000000000007E-002    -1.4311772436891712     
   7.0800000000000016E-002    -1.4150370204152727     
   7.1099999999999997E-002    -1.3520117840833799     
   7.1400000000000005E-002    -1.2445728624732311     
   7.1700000000000000E-002    -1.0970550629351465     
   7.1999999999999995E-002   -0.91573451614322177     
   7.2300000000000003E-002   -0.70815049432943800     
   7.2600000000000012E-002   -0.48296435698300116     
   7.2900000000000006E-002   -0.24951607736198808     
   7.3200000000000001E-002    -1.7148482247980178E-002
   7.3499999999999996E-002    0.20488202824864521     
   7.3800000000000004E-002    0.40813380485557060     
   7.4099999999999999E-002    0.58537238607784903     
   7.4400000000000008E-002    0.73060011418993009     
   7.4700000000000003E-002    0.83962654434062967     
   7.5000000000000011E-002    0.91005145716166436     
   7.5299999999999992E-002    0.94115691472317375     
   7.5600000000000001E-002    0.93415175886988833     
   7.5900000000000009E-002    0.89183412968190023     
   7.6200000000000004E-002    0.81827246135703657     
   7.6499999999999999E-002    0.71880482666195011     
   7.6800000000000007E-002    0.59946136785838533     
   7.7099999999999988E-002    0.46676032960163416     
   7.7399999999999997E-002    0.32762625166826609     
   7.7700000000000005E-002    0.18864277990386077     
   7.8000000000000014E-002     5.6029129882969479E-002
   7.8299999999999995E-002    -6.4360427082199856E-002
   7.8600000000000003E-002   -0.16772712860362093     
   7.8900000000000012E-002   -0.25001165254787389     
   7.9199999999999993E-002   -0.30825811520230373     
   7.9500000000000001E-002   -0.34097993212548600     
   7.9800000000000010E-002   -0.34764355230866029     
   8.0100000000000018E-002   -0.32916149304560205     
   8.0399999999999999E-002   -0.28794973922441913     
   8.0700000000000008E-002   -0.22757646321588640     
   8.1000000000000003E-002   -0.15301416757732711     
   8.1299999999999997E-002    -7.0272274505406893E-002
   8.1600000000000006E-002     1.3982846406812072E-002
   8.1900000000000014E-002     9.2386661369005085E-002
   8.2199999999999995E-002    0.15755356635692527     
   8.2500000000000004E-002    0.20265027638200625     
   8.2799999999999999E-002    0.22164474182154284     
   8.3100000000000007E-002    0.21012739622453810     
   8.3400000000000002E-002    0.16561767311979919     
   8.3700000000000011E-002     8.7660587832330925E-002
   8.4000000000000005E-002    -2.1307638981171027E-002
   8.4300000000000000E-002   -0.15630553427168109     
   8.4599999999999995E-002   -0.31019171666683665     
   8.4900000000000003E-002   -0.47340911042201522     
   8.5199999999999998E-002   -0.63508897262870700     
   8.5500000000000007E-002   -0.78348403259125288     
   8.5800000000000001E-002   -0.90654223117810950     
   8.6100000000000010E-002   -0.99341248337036725     
   8.6399999999999991E-002    -1.0347027661699342     
   8.6699999999999999E-002    -1.0232910994056328     
   8.7000000000000008E-002   -0.95529811484505467     
   8.7300000000000003E-002   -0.82995324362095846     
   8.7599999999999997E-002   -0.65004979776043359     
   8.7900000000000006E-002   -0.42207848464682735     
   8.8200000000000014E-002   -0.15526732505535432     
   8.8499999999999995E-002    0.13845963782526224     
   8.8800000000000004E-002    0.44519591030637401     
   8.9100000000000013E-002    0.75036566844301655     
   8.9399999999999993E-002     1.0390825182000551     
   8.9700000000000002E-002     1.2972788694606856     
   9.0000000000000011E-002     1.5127599101156164     
   9.0299999999999991E-002     1.6753314578164025     
   9.0600000000000000E-002     1.7777970862400565     
   9.0900000000000009E-002     1.8162445850162903     
   9.1200000000000017E-002     1.7897784539266826     
   9.1499999999999998E-002     1.7009117440122743     
   9.1800000000000007E-002     1.5548539011600346     
   9.2100000000000001E-002     1.3591468201605383     
   9.2399999999999996E-002     1.1234948524022770     
   9.2700000000000005E-002    0.85857253397932332     
   9.3000000000000013E-002    0.57553320507304562     
   9.3300000000000008E-002    0.28574412701808555     
   9.3600000000000003E-002    -1.7514843968610827E-004
   9.3899999999999997E-002   -0.27262115362315392     
   9.4200000000000006E-002   -0.52323168194283209     
   9.4500000000000001E-002   -0.74551259977428297     
   9.4800000000000009E-002   -0.93446593846050485     
   9.5100000000000004E-002    -1.0865805075565151     
   9.5399999999999999E-002    -1.2002576509355740     
   9.5699999999999993E-002    -1.2750303661537197     
   9.6000000000000002E-002    -1.3115984116967281     
   9.6300000000000011E-002    -1.3118094123671857     
   9.6600000000000005E-002    -1.2777383249332896     
   9.6900000000000000E-002    -1.2122157739352468     
   9.7200000000000009E-002    -1.1183216505670748     
   9.7499999999999989E-002   -0.99893766049311372     
   9.7799999999999998E-002   -0.85734027102916655     
   9.8100000000000007E-002   -0.69650917792973799     
   9.8400000000000015E-002   -0.51934140528379069     
   9.8699999999999996E-002   -0.32921021840115927     
   9.9000000000000005E-002   -0.12943957459077218     
   9.9300000000000013E-002     7.6327683974612204E-002
   9.9599999999999994E-002    0.28376060922408630     
   9.9900000000000003E-002    0.48816982065303566     
  0.10020000000000001         0.68407034977676084     
  0.10049999999999999         0.86526829043965525     
  0.10080000000000000          1.0253001447979750     
  0.10110000000000001          1.1572476613140938     
  0.10140000000000000          1.2542875982604251     
  0.10170000000000000          1.3102189269178102     
  0.10200000000000001          1.3193273499720755     
  0.10230000000000002          1.2776665632006317     
  0.10260000000000000          1.1833314831214168     
  0.10290000000000001          1.0362399745647097     
  0.10320000000000000         0.83916305757673082     
  0.10350000000000001         0.59757881634204768     
  0.10380000000000000         0.31943490440206990     
  0.10410000000000001          1.5298463515829851E-002
  0.10440000000000001        -0.30260461955458051     
  0.10470000000000000        -0.62102031901111476     
  0.10500000000000000        -0.92576777908267915     
  0.10530000000000000         -1.2032889101839728     
  0.10560000000000000         -1.4414598893468529     
  0.10590000000000001         -1.6298273733022617     
  0.10620000000000000         -1.7609374438152390     
  0.10650000000000001         -1.8302162789445746     
  0.10679999999999999         -1.8361645834509255     
  0.10710000000000000         -1.7810858385528769     
  0.10740000000000001         -1.6699432037755888     
  0.10770000000000000         -1.5099387081753326     
  0.10800000000000000         -1.3104360029379687     
  0.10830000000000001         -1.0815671622118161     
  0.10859999999999999        -0.83399080763916822     
  0.10890000000000000        -0.57789212120891031     
  0.10920000000000001        -0.32177152966367234     
  0.10950000000000001         -7.2816645270388780E-002
  0.10979999999999999         0.16365067907257402     
  0.11009999999999999         0.38464802809296234     
  0.11040000000000001         0.58918399018479761     
  0.11070000000000001         0.77811968839899848     
  0.11100000000000000         0.95362318189811701     
  0.11130000000000000          1.1182255815848490     
  0.11160000000000002          1.2749447896186681     
  0.11190000000000001          1.4262111255898660     
  0.11220000000000001          1.5729084069337964     
  0.11250000000000000          1.7143982677947323     
  0.11280000000000000          1.8479517691391236     
  0.11309999999999999          1.9683060592801875     
  0.11340000000000001          2.0683910739372791     
  0.11369999999999998          2.1390316320103353     
  0.11400000000000000          2.1694519292780421     
  0.11430000000000000          2.1489972784015383     
  0.11460000000000002          2.0670115613771820     
  0.11489999999999999          1.9143577442099644     
  0.11520000000000001          1.6848290764871967     
  0.11550000000000001          1.3754145701943741     
  0.11580000000000000         0.98763897191167127     
  0.11609999999999999         0.52816786918297276     
  0.11640000000000002          8.4717175153025959E-003
  0.11670000000000001        -0.55476083470722359     
  0.11700000000000001         -1.1406471850310931     
  0.11730000000000000         -1.7254091525185031     
  0.11760000000000000         -2.2824308795107049     
  0.11789999999999999         -2.7850086512119603     
  0.11820000000000001         -3.2081639497985952     
  0.11850000000000001         -3.5288884290945308     
  0.11880000000000000         -3.7288188521411971     
  0.11910000000000000         -3.7953376312456135     
  0.11940000000000002         -3.7214195245721067     
  0.11970000000000001         -3.5074471940772987     
  0.12000000000000001         -3.1603111750315755     
  0.12030000000000000         -2.6927425423831681     
  0.12060000000000000         -2.1236648170257708     
  0.12089999999999999         -1.4758060840668925     
  0.12119999999999999        -0.77523419607762267     
  0.12150000000000001         -5.0446453885115511E-002
  0.12180000000000001         0.67033965588528799     
  0.12210000000000000          1.3592003632897747     
  0.12239999999999999          1.9895801526047625     
  0.12270000000000002          2.5382766643845662     
  0.12300000000000001          2.9850001199553846     
  0.12330000000000001          3.3136496358705498     
  0.12360000000000000          3.5131950151353997     
  0.12390000000000000          3.5766875481595539     
  0.12419999999999999          3.5026397414320445     
  0.12450000000000001          3.2953025984058955     
  0.12480000000000001          2.9633350049706584     
  0.12509999999999999          2.5209343108297069     
  0.12540000000000001          1.9865423123691557     
  0.12570000000000003          1.3821506200708886     
  0.12600000000000000         0.73364284916519573     
  0.12630000000000002          6.7957959552057856E-002
  0.12659999999999999        -0.58741839517975747     
  0.12690000000000001         -1.2050316451280314     
  0.12719999999999998         -1.7599424173824967     
  0.12750000000000000         -2.2305824735647355     
  0.12780000000000002         -2.5994889643417896     
  0.12809999999999999         -2.8546049434154579     
  0.12840000000000001         -2.9893255013000823     
  0.12869999999999998         -3.0024723736805239     
  0.12900000000000000         -2.8985263997487190     
  0.12930000000000003         -2.6864723839209206     
  0.12959999999999999         -2.3787192980425544     
  0.12990000000000002         -1.9909339847143530     
  0.13019999999999998         -1.5397746306587352     
  0.13050000000000000         -1.0425708092807209     
  0.13080000000000003        -0.51699315177564165     
  0.13109999999999999          2.0917277735167817E-002
  0.13140000000000002         0.55602085336360951     
  0.13169999999999998          1.0739384783595962     
  0.13200000000000001          1.5619497118496386     
  0.13229999999999997          2.0077256910791914     
  0.13260000000000000          2.3993384540651230     
  0.13290000000000002          2.7255768442968109     
  0.13319999999999999          2.9754078037584448     
  0.13350000000000001          3.1388449319282579     
  0.13380000000000003          3.2072493700395186     
  0.13410000000000000          3.1738829319980884     
  0.13440000000000002          3.0357362982813578     
  0.13469999999999999          2.7940363707032536     
  0.13500000000000001          2.4543359175179931     
  0.13529999999999998          2.0280203791038693     
  0.13560000000000000          1.5319459486091833     
  0.13590000000000002         0.98725445261635225     
  0.13619999999999999         0.41934071790349692     
  0.13650000000000001        -0.14481145846988350     
  0.13680000000000003        -0.67810199063817378     
  0.13710000000000000         -1.1550816027643462     
  0.13740000000000002         -1.5544699168634830     
  0.13769999999999999         -1.8607291941180453     
  0.13800000000000001         -2.0653970052755253     
  0.13829999999999998         -2.1672773232342402     
  0.13860000000000000         -2.1722762525119075     
  0.13890000000000002         -2.0931167615820123     
  0.13919999999999999         -1.9478942241001920     
  0.13950000000000001         -1.7575673014761608     
  0.13979999999999998         -1.5440300903928992     
  0.14010000000000000         -1.3289776082692637     
  0.14040000000000002         -1.1313841589951155     
  0.14069999999999999        -0.96606686105063821     
  0.14100000000000001        -0.84321161182078386     
  0.14130000000000004        -0.76708824964124200     
  0.14160000000000000        -0.73774344538155623     
  0.14189999999999997        -0.75049984421818783     
  0.14219999999999999        -0.79652099838229062     
  0.14250000000000002        -0.86526153554348173     
  0.14279999999999998        -0.94402918360438959     
  0.14310000000000000         -1.0198346009316053     
  0.14339999999999997         -1.0806511205307137     
  0.14369999999999999         -1.1149048320941888     
  0.14400000000000002         -1.1129689898097639     
  0.14429999999999998         -1.0674248422253902     
  0.14460000000000001        -0.97311694533773130     
  0.14490000000000003        -0.82734753329392485     
  0.14520000000000000        -0.63002201337465713     
  0.14550000000000002        -0.38403279006350116     
  0.14579999999999999         -9.4771237100649039E-002
  0.14610000000000001         0.22949065380697423     
  0.14640000000000003         0.57787941662436937     
  0.14670000000000000         0.93774155229724909     
  0.14699999999999996          1.2946097476767409     
  0.14729999999999999          1.6331411123315991     
  0.14760000000000001          1.9378319423055352     
  0.14789999999999998          2.1942271581494164     
  0.14820000000000000          2.3897470807627208     