  -1.4999999999999999E-002     0.0000000000000000     
  -1.4700000000000000E-002     0.0000000000000000     
  -1.4400000000000000E-002     0.0000000000000000     
  -1.4100000000000000E-002     0.0000000000000000     
  -1.3800000000000000E-002     2.2828192184627219E-066
  -1.3500000000000000E-002     4.9761384728865197E-044
  -1.3200000000000000E-002     2.5325938654645973E-034
  -1.2899999999999998E-002    -1.3297801330094405E-032
  -1.2600000000000000E-002    -9.9672159856356671E-032
  -1.2299999999999998E-002     1.6628930866543039E-030
  -1.2000000000000000E-002    -1.2080644941130214E-029
  -1.1699999999999999E-002     6.2159285233556017E-028
  -1.1399999999999999E-002    -6.3473538633890128E-027
  -1.1099999999999999E-002    -4.0098833549677798E-026
  -1.0799999999999999E-002     1.5183841371562706E-024
  -1.0499999999999999E-002    -1.5437568720280495E-023
  -1.0199999999999999E-002     6.5131481516075416E-023
  -9.8999999999999991E-003     9.7113307015697323E-023
  -9.5999999999999992E-003    -2.8150979284810718E-021
  -9.2999999999999992E-003     1.8313841979259219E-020
  -8.9999999999999993E-003    -7.5474831851729598E-020
  -8.6999999999999994E-003     2.2603425608033405E-019
  -8.3999999999999995E-003    -4.7721498688437350E-019
  -8.0999999999999996E-003     5.3384565708308941E-019
  -7.7999999999999988E-003     5.1126647521615280E-019
  -7.4999999999999997E-003    -3.9831404980918829E-018
  -7.1999999999999998E-003     1.1000879032973091E-017
  -6.8999999999999981E-003    -2.1495221335047262E-017
  -6.5999999999999982E-003     3.3125869260158769E-017
  -6.3000000000000000E-003    -5.7452479535088300E-017
  -6.0000000000000001E-003     1.6708000385178166E-016
  -5.6999999999999985E-003    -4.4076932247294304E-016
  -5.3999999999999986E-003     5.2477411402522568E-016
  -5.1000000000000004E-003     1.1775828121589206E-015
  -4.7999999999999987E-003    -7.7016439922126558E-015
  -4.5000000000000005E-003     1.9935226659402320E-014
  -4.1999999999999989E-003    -2.5265198449854330E-014
  -3.8999999999999990E-003    -1.3142117181770168E-014
  -3.5999999999999990E-003     1.3237984606463275E-013
  -3.2999999999999991E-003    -2.8337742277354365E-013
  -2.9999999999999992E-003     2.4312463950012371E-013
  -2.6999999999999993E-003     2.8375053143821689E-013
  -2.3999999999999994E-003    -1.2233425250642408E-012
  -2.0999999999999977E-003     1.6654123769042017E-012
  -1.7999999999999995E-003    -2.4455912984854028E-013
  -1.4999999999999979E-003    -3.2248602665452280E-012
  -1.1999999999999997E-003     6.2177056432624791E-012
  -8.9999999999999976E-004    -4.5840856947440629E-012
  -5.9999999999999810E-004    -3.1759842039142538E-012
  -2.9999999999999992E-004     1.2515562757659158E-011
   0.0000000000000000         -1.5543391774611389E-011
   3.0000000000000165E-004     8.0362821003707528E-012
   5.9999999999999984E-004     6.6230926187795401E-012
   9.0000000000000149E-004    -1.8436277578171921E-011
   1.2000000000000031E-003     1.2731519369920374E-011
   1.5000000000000013E-003     1.9975467572231905E-011
   1.8000000000000030E-003    -3.0948245531965728E-011
   2.1000000000000012E-003    -1.6832339563062859E-010
   2.3999999999999994E-003     7.3919546243096081E-010
   2.7000000000000010E-003    -1.1044780285898746E-009
   2.9999999999999992E-003    -5.5652699883174099E-010
   3.3000000000000008E-003     5.9936504976713973E-009
   3.6000000000000025E-003    -1.2959442936287493E-008
   3.9000000000000007E-003     6.6493648295288467E-009
   4.2000000000000023E-003     4.5761946489752351E-008
   4.5000000000000005E-003    -1.2413162501193526E-007
   4.7999999999999987E-003    -1.1196219705751382E-008
   5.1000000000000004E-003     5.3045504807729137E-007
   5.4000000000000020E-003    -3.9698016611695912E-007
   5.7000000000000037E-003    -1.7900376715784242E-006
   5.9999999999999984E-003     1.3856983661600512E-006
   6.3000000000000000E-003     5.3525801154729216E-006
   6.6000000000000017E-003    -2.2933214553806241E-006
   6.9000000000000034E-003    -1.4784813387207331E-005
   7.2000000000000015E-003     8.9744299803361322E-007
   7.5000000000000032E-003     5.8643112333900998E-005
   7.8000000000000014E-003     1.2387409587918748E-004
   8.0999999999999996E-003     1.6641057297704252E-004
   8.4000000000000012E-003     2.2244504880351840E-004
   8.7000000000000029E-003     3.6334898810183402E-004
   9.0000000000000011E-003     6.1868397731990228E-004
   9.2999999999999992E-003     9.7582905683943593E-004
   9.6000000000000009E-003     1.4635114660009731E-003
   9.8999999999999991E-003     2.1976749154398083E-003
   1.0200000000000001E-002     3.3235726491359788E-003
   1.0500000000000002E-002     4.9582812347297583E-003
   1.0800000000000004E-002     7.2434660263419760E-003
   1.1099999999999999E-002     1.0433367373379392E-002
   1.1400000000000000E-002     1.4874594190380720E-002
   1.1700000000000002E-002     2.0921861643587142E-002
   1.2000000000000004E-002     2.8954790808122875E-002
   1.2300000000000002E-002     3.9464753071259240E-002
   1.2600000000000000E-002     5.3029391942217043E-002
   1.2900000000000002E-002     7.0186160656843952E-002
   1.3200000000000000E-002     9.1383926939749102E-002
   1.3500000000000002E-002    0.11701995206511358     
   1.3800000000000003E-002    0.14738205198091070     
   1.4100000000000001E-002    0.18244950665058543     
   1.4400000000000000E-002    0.22171089338343195     
   1.4700000000000001E-002    0.26411882452148255     
   1.4999999999999999E-002    0.30806696980489717     
   1.5300000000000001E-002    0.35121906557119575     
   1.5600000000000003E-002    0.39034176846111018     
   1.5899999999999997E-002    0.42134473950371332     
   1.6199999999999999E-002    0.43939019741933150     
   1.6500000000000001E-002    0.43902291635909285     
   1.6800000000000002E-002    0.41447233204032896     
   1.7100000000000004E-002    0.36004548535855274     
   1.7400000000000006E-002    0.27050566091907435     
   1.7700000000000000E-002    0.14156892355041301     
   1.8000000000000002E-002    -2.9491647045569180E-002
   1.8300000000000004E-002   -0.24323561217850859     
   1.8600000000000005E-002   -0.49754978636446257     
   1.8900000000000000E-002   -0.78735308996108766     
   1.9200000000000002E-002    -1.1045327199644697     
   1.9500000000000003E-002    -1.4379710093277542     
   1.9799999999999998E-002    -1.7737068214640781     
   2.0100000000000000E-002    -2.0954628427342015     
   2.0400000000000001E-002    -2.3856409203249158     
   2.0700000000000003E-002    -2.6262713258364849     
   2.0999999999999998E-002    -2.7997423162634347     
   2.1299999999999999E-002    -2.8898097175217528     
   2.1600000000000001E-002    -2.8828598276281721     
   2.1900000000000003E-002    -2.7686432691736087     
   2.2200000000000004E-002    -2.5406686185687901     
   2.2500000000000006E-002    -2.1966735212008133     
   2.2800000000000001E-002    -1.7390485996645959     
   2.3100000000000002E-002    -1.1748324470398093     
   2.3400000000000004E-002   -0.51551844833156302     
   2.3699999999999999E-002    0.22289936870085389     
   2.4000000000000000E-002     1.0201713831437840     
   2.4300000000000002E-002     1.8520263589486048     
   2.4599999999999997E-002     2.6904211586852447     
   2.4900000000000005E-002     3.5041109066941183     
   2.5200000000000000E-002     4.2595349674229865     
   2.5499999999999995E-002     4.9216696496565904     
   2.5800000000000003E-002     5.4553391511755844     
   2.6099999999999998E-002     5.8273303315746574     
   2.6400000000000007E-002     6.0085918853488538     
   2.6700000000000002E-002     5.9764826292566928     
   2.6999999999999996E-002     5.7172844342495708     
   2.7300000000000005E-002     5.2284199951586467     
   2.7600000000000000E-002     4.5197522121030174     
   2.7900000000000008E-002     3.6144484578702412     
   2.8200000000000003E-002     2.5489655574437138     
   2.8499999999999998E-002     1.3716354889524760     
   2.8800000000000006E-002    0.13989132392142614     
   2.9100000000000001E-002    -1.0832105251015109     
   2.9400000000000003E-002    -2.2326394204569535     
   2.9700000000000004E-002    -3.2460257144211653     
   3.0000000000000006E-002    -4.0684706653378173     
   3.0300000000000001E-002    -4.6562492571503933     
   3.0600000000000002E-002    -4.9794995612509911     
   3.0900000000000004E-002    -5.0237409861608899     
   3.1199999999999999E-002    -4.7903687576582197     
   3.1500000000000007E-002    -4.2962295335939311     
   3.1800000000000002E-002    -3.5716351386019749     
   3.2099999999999997E-002    -2.6573375091586433     
   3.2400000000000005E-002    -1.6013503352773104     
   3.2700000000000000E-002   -0.45585653279964922     
   3.3000000000000002E-002    0.72560384436455305     
   3.3300000000000003E-002     1.8909942100815784     
   3.3599999999999998E-002     2.9918789335356761     
   3.3900000000000000E-002     3.9844360223435209     
   3.4200000000000001E-002     4.8302848522585338     
   3.4500000000000003E-002     5.4965927998930120     
   3.4799999999999998E-002     5.9561174427703962     
   3.5099999999999999E-002     6.1873248148106672     
   3.5400000000000001E-002     6.1743095359872857     
   3.5699999999999996E-002     5.9066274424883201     
   3.6000000000000004E-002     5.3794295778843768     
   3.6299999999999999E-002     4.5942365764750290     
   3.6600000000000008E-002     3.5592571905436547     
   3.6900000000000002E-002     2.2895105991083340     
   3.7199999999999997E-002    0.80733268972001193     
   3.7500000000000006E-002   -0.85767406896671539     
   3.7800000000000000E-002    -2.6688252227111660     
   3.8100000000000009E-002    -4.5824042804196381     
   3.8400000000000004E-002    -6.5481073647296792     
   3.8699999999999998E-002    -8.5102160523743056     
   3.9000000000000007E-002    -10.408419024192458     
   3.9300000000000002E-002    -12.178090538230384     
   3.9600000000000003E-002    -13.751896417148545     
   3.9900000000000005E-002    -15.062115291285773     
   4.0200000000000000E-002    -16.042086276528721     
   4.0500000000000001E-002    -16.628065778552003     
   4.0800000000000003E-002    -16.762974479116970     
   4.1100000000000005E-002    -16.400397046200382     
   4.1399999999999999E-002    -15.507561413040738     
   4.1700000000000008E-002    -14.068909335088202     
   4.2000000000000003E-002    -12.090287788609999     
   4.2299999999999997E-002    -9.6014237558240296     
   4.2600000000000006E-002    -6.6570633890882913     
   4.2900000000000001E-002    -3.3373832829085810     
   4.3200000000000002E-002    0.25344760745917838     
   4.3500000000000004E-002     3.9911208697820597     
   4.3799999999999999E-002     7.7362916270672573     
   4.4100000000000000E-002     11.340975189213335     
   4.4400000000000002E-002     14.655394137077883     
   4.4700000000000004E-002     17.536692342811705     
   4.4999999999999998E-002     19.857231936740551     
   4.5300000000000000E-002     21.511115009688247     
   4.5600000000000002E-002     22.420516010747821     
   4.5899999999999996E-002     22.540749572762831     
   4.6200000000000005E-002     21.863017094617643     
   4.6500000000000000E-002     20.415450061189166     
   4.6799999999999994E-002     18.262936474528271     
   4.7100000000000003E-002     15.504414326182729     
   4.7399999999999998E-002     12.267914398311033     
   4.7700000000000006E-002     8.7051967989071848     
   4.8000000000000001E-002     4.9852201997016801     
   4.8300000000000010E-002     1.2850145768291563     
   4.8600000000000004E-002    -2.2196870900644967     
   4.8899999999999999E-002    -5.3628995650869129     
   4.9200000000000008E-002    -7.9981149804397997     
   4.9500000000000002E-002    -10.007359047335409     
   4.9800000000000011E-002    -11.308313931087724     
   5.0100000000000006E-002    -11.860194792583730     
   5.0400000000000000E-002    -11.666785810760544     
   5.0700000000000009E-002    -10.776529828358846     
   5.1000000000000004E-002    -9.2792810908733827     
   5.1299999999999998E-002    -7.3013261122496340     
   5.1600000000000007E-002    -4.9966117781084662     
   5.1900000000000002E-002    -2.5342936967899892     
   5.2200000000000010E-002    -8.7315829075646764E-002
   5.2500000000000005E-002     2.1788873351247782     
   5.2800000000000000E-002     4.1194108158249527     
   5.3099999999999994E-002     5.6205042675179229     
   5.3400000000000003E-002     6.6056894432784512     
   5.3699999999999998E-002     7.0396689483666295     
   5.4000000000000006E-002     6.9298175481811377     
   5.4300000000000001E-002     6.3225071841862119     
   5.4599999999999996E-002     5.2960426310752453     
   5.4900000000000004E-002     3.9534769902130118     
   5.5199999999999999E-002     2.4129373779963808     
   5.5499999999999994E-002    0.79516499171325161     
   5.5800000000000002E-002   -0.78622959509020540     
   5.6099999999999997E-002    -2.2317233686333471     
   5.6400000000000006E-002    -3.4630328365378071     
   5.6700000000000000E-002    -4.4281238576006645     
   5.6999999999999995E-002    -5.1019262420380578     
   5.7300000000000004E-002    -5.4846366878969217     
   5.7599999999999998E-002    -5.5987132759046947     
   5.7900000000000007E-002    -5.4842542015137878     
   5.8200000000000002E-002    -5.1929419423043504     
   5.8499999999999996E-002    -4.7824861971499990     
   5.8800000000000005E-002    -4.3108064724745221     
   5.9100000000000000E-002    -3.8308619750851545     
   5.9400000000000008E-002    -3.3889442962229457     
   5.9700000000000003E-002    -3.0223733342949051     
   6.0000000000000012E-002    -2.7571059571720991     
   6.0300000000000006E-002    -2.6085809576973449     
   6.0600000000000001E-002    -2.5836058982548256     
   6.0900000000000010E-002    -2.6802986992073961     
   6.1200000000000004E-002    -2.8881076667218784     
   6.1500000000000013E-002    -3.1905482996283339     
   6.1800000000000008E-002    -3.5664440199616370     
   6.2100000000000002E-002    -3.9890957617260288     
   6.2399999999999997E-002    -4.4281735838564265     
   6.2700000000000006E-002    -4.8527221740419400     
   6.3000000000000000E-002    -5.2325930290842013     
   6.3300000000000009E-002    -5.5404795956187245     
   6.3600000000000004E-002    -5.7556966803223917     
   6.3899999999999998E-002    -5.8669623173927885     
   6.4199999999999993E-002    -5.8732803938651132     
   6.4500000000000002E-002    -5.7849534512936849     
   6.4800000000000010E-002    -5.6217244516743357     
   6.5100000000000005E-002    -5.4091323114032406     
   6.5400000000000000E-002    -5.1737425765910423     
   6.5700000000000008E-002    -4.9357597861477993     
   6.5999999999999989E-002    -4.7006847302302548     
   6.6299999999999998E-002    -4.4531065081475516     
   6.6600000000000006E-002    -4.1528716192720676     
   6.6900000000000001E-002    -3.7328020594438867     
   6.7199999999999996E-002    -3.1007159185598292     
   6.7500000000000004E-002    -2.1481906926373586     
   6.7800000000000013E-002   -0.76260401676878475     
   6.8099999999999994E-002     1.1589039480322216     
   6.8400000000000002E-002     3.6916962280434507     
   6.8700000000000011E-002     6.8649088755987817     
   6.8999999999999992E-002     10.647215354966340     
   6.9300000000000000E-002     14.937886442707539     
   6.9600000000000009E-002     19.561511879684993     
   6.9900000000000004E-002     24.272202974966024     
   7.0199999999999999E-002     28.766320341932772     
   7.0500000000000007E-002     32.702059505957195     
   7.0800000000000016E-002     35.726042202622502     
   7.1099999999999997E-002     37.504087629943633     
   7.1400000000000005E-002     37.751627027095665     
   7.1700000000000000E-002     36.263532696771136     
   7.1999999999999995E-002     32.939291189938082     
   7.2300000000000003E-002     27.799919579625957     
   7.2600000000000012E-002     20.994713660096100     
   7.2900000000000006E-002     12.796387069833877     
   7.3200000000000001E-002     3.5889343564165395     
   7.3499999999999996E-002    -6.1572732718087435     
   7.3800000000000004E-002    -15.919235138391166     
   7.4099999999999999E-002    -25.156834020093598     
   7.4400000000000008E-002    -33.353700610370318     
   7.4700000000000003E-002    -40.054231339037436     
   7.5000000000000011E-002    -44.895623720649276     
   7.5299999999999992E-002    -47.634519152032333     
   7.5600000000000001E-002    -48.162446713639611     
   7.5900000000000009E-002    -46.510232960142773     
   7.6200000000000004E-002    -42.842096770472409     
   7.6499999999999999E-002    -37.437777493599633     
   7.6800000000000007E-002    -30.669536141290820     
   7.7099999999999988E-002    -22.971506205997358     
   7.7399999999999997E-002    -14.805367110811904     
   7.7700000000000005E-002    -6.6286579060011555     
   7.8000000000000014E-002     1.1369240551032995     
   7.8299999999999995E-002     8.1301538997385876     
   7.8600000000000003E-002     14.068418597346346     
   7.8900000000000012E-002     18.759727533786769     
   7.9199999999999993E-002     22.103317380633921     
   7.9500000000000001E-002     24.086073195261793     
   7.9800000000000010E-002     24.774765512953632     
   8.0100000000000018E-002     24.299565135069709     
   8.0399999999999999E-002     22.837515955165397     
   8.0700000000000008E-002     20.595786531803526     
   8.1000000000000003E-002     17.793960357924050     
   8.1299999999999997E-002     14.650080745327665     
   8.1600000000000006E-002     11.366729087839040     
   8.1900000000000014E-002     8.1217532398657308     
   8.2199999999999995E-002     5.0638901504602503     
   8.2500000000000004E-002     2.3077531129355258     
   8.2799999999999999E-002    -6.7502999432157956E-002
   8.3100000000000007E-002    -2.0160068725422637     
   8.3400000000000002E-002    -3.5220353242165894     
   8.3700000000000011E-002    -4.5959050990577843     
   8.4000000000000005E-002    -5.2696164921218962     
   8.4300000000000000E-002    -5.5907654726399318     
   8.4599999999999995E-002    -5.6159316223591293     
   8.4900000000000003E-002    -5.4067537657017377     
   8.5199999999999998E-002    -5.0249870761318904     
   8.5500000000000007E-002    -4.5270933595651197     
   8.5800000000000001E-002    -3.9616215493486995     
   8.6100000000000010E-002    -3.3685563464353132     
   8.6399999999999991E-002    -2.7782269778066326     
   8.6699999999999999E-002    -2.2108761357091833     
   8.7000000000000008E-002    -1.6790960189315676     
   8.7300000000000003E-002    -1.1900664867180410     
   8.7599999999999997E-002   -0.74752803179448668     
   8.7900000000000006E-002   -0.35318910564360279     
   8.8200000000000014E-002    -8.9876314818125060E-003
   8.8499999999999995E-002    0.28141152048720880     
   8.8800000000000004E-002    0.51406694846553380     
   8.9100000000000013E-002    0.68510565496904952     
   8.9399999999999993E-002    0.79036711611772303     
   8.9700000000000002E-002    0.82840854174663237     
   9.0000000000000011E-002    0.80116660594409794     
   9.0299999999999991E-002    0.71405186096687268     
   9.0600000000000000E-002    0.57683648850037283     
   9.0900000000000009E-002    0.40258451554050412     
   9.1200000000000017E-002    0.20723906705471726     
   9.1499999999999998E-002     7.1363225873619894E-003
   9.1800000000000007E-002   -0.18264823216071374     
   9.2100000000000001E-002   -0.34829240912559956     
   9.2399999999999996E-002   -0.47982595157742736     
   9.2700000000000005E-002   -0.57168318550111463     
   9.3000000000000013E-002   -0.62189313349626907     
   9.3300000000000008E-002   -0.63210407178801398     
   9.3600000000000003E-002   -0.60637740057315737     
   9.3899999999999997E-002   -0.55012379076370121     
   9.4200000000000006E-002   -0.46939421642864060     
   9.4500000000000001E-002   -0.36974645333425588     
   9.4800000000000009E-002   -0.25591829642300673     
   9.5100000000000004E-002   -0.13184152210132014     
   9.5399999999999999E-002    -6.6031208081689466E-004
   9.5699999999999993E-002    0.13390967219224409     
   9.6000000000000002E-002    0.26822816264208937     
   9.6300000000000011E-002    0.39853032700459007     
   9.6600000000000005E-002    0.52004020904344861     
   9.6900000000000000E-002    0.62778114909597771     
   9.7200000000000009E-002    0.71721952887468143     
   9.7499999999999989E-002    0.78509855093917214     
   9.7799999999999998E-002    0.82964414317198076     
   9.8100000000000007E-002    0.85132265261730666     
   9.8400000000000015E-002    0.85386479360141976     
   9.8699999999999996E-002    0.84275073632336805     
   9.9000000000000005E-002    0.82481409354732071     
   9.9300000000000013E-002    0.80794163236553207     
   9.9599999999999994E-002    0.79922702035372484     
   9.9900000000000003E-002    0.80414089075581452     
  0.10020000000000001         0.82525947549306455     
  0.10049999999999999         0.86180713934841935     
  0.10080000000000000         0.91013935627173259     
  0.10110000000000001         0.96247783967798994     
  0.10140000000000000          1.0094906481171504     
  0.10170000000000000          1.0414606747475368     
  0.10200000000000001          1.0483440601673319     
  0.10230000000000002          1.0221014489225864     
  0.10260000000000000         0.95749973169209412     
  0.10290000000000001         0.85316668973146303     
  0.10320000000000000         0.71141247934484153     
  0.10350000000000001         0.53766648721291332     
  0.10380000000000000         0.34037951908338321     
  0.10410000000000001         0.13016400288352264     
  0.10440000000000001         -8.2708206499884321E-002
  0.10470000000000000        -0.28871174257224463     
  0.10500000000000000        -0.47980987947885101     
  0.10530000000000000        -0.65086455445704428     
  0.10560000000000000        -0.79952725424412907     
  0.10590000000000001        -0.92691675699086151     
  0.10620000000000000         -1.0365633258446674     
  0.10650000000000001         -1.1329315270892149     
  0.10679999999999999         -1.2219445124212214     
  0.10710000000000000         -1.3089231884586123     
  0.10740000000000001         -1.3968802128489901     
  0.10770000000000000         -1.4873905793906339     
  0.10800000000000000         -1.5791378605072786     
  0.10830000000000001         -1.6675096112934771     
  0.10859999999999999         -1.7457898194885191     
  0.10890000000000000         -1.8052973074421432     
  0.10920000000000001         -1.8372338335962479     
  0.10950000000000001         -1.8324195673703474     
  0.10979999999999999         -1.7834004707046536     
  0.11009999999999999         -1.6864967902215067     
  0.11040000000000001         -1.5402999480612702     
  0.11070000000000001         -1.3466734231560131     
  0.11100000000000000         -1.1124839079250588     
  0.11130000000000000        -0.84693215350105755     
  0.11160000000000002        -0.56057044705669223     
  0.11190000000000001        -0.26557816353168151     
  0.11220000000000001          2.6098027524771625E-002
  0.11250000000000000         0.30402591320620020     
  0.11280000000000000         0.56074170683631319     
  0.11309999999999999         0.79057830698699438     
  0.11340000000000001         0.99012882975858618     
  0.11369999999999998          1.1591156351492049     
  0.11400000000000000          1.2978338843483166     
  0.11430000000000000          1.4063247043641647     
  0.11460000000000002          1.4845303982622651     
  0.11489999999999999          1.5306168130708573     
  0.11520000000000001          1.5409173114091905     
  0.11550000000000001          1.5104091313656853     
  0.11580000000000000          1.4335736005945441     
  0.11609999999999999          1.3056278064725484     
  0.11640000000000002          1.1246478321661424     
  0.11670000000000001         0.89345649508295844     
  0.11700000000000001         0.61954466879538661     
  0.11730000000000000         0.31671887428660395     
  0.11760000000000000          5.3026300447250726E-003
  0.11789999999999999        -0.29005196008522804     
  0.11820000000000001        -0.54215723717405362     
  0.11850000000000001        -0.72471260084464240     
  0.11880000000000000        -0.81444542062163083     
  0.11910000000000000        -0.79561190643620838     
  0.11940000000000002        -0.66270375535729498     
  0.11970000000000001        -0.42109560697491022     
  0.12000000000000001         -8.8054559787421188E-002
  0.12030000000000000         0.30872904590837591     
  0.12060000000000000         0.73345123306358662     
  0.12089999999999999          1.1449501636673030     
  0.12119999999999999          1.5025994651168648     
  0.12150000000000001          1.7702079753665145     
  0.12180000000000001          1.9191986075244230     
  0.12210000000000000          1.9324781807983078     
  0.12239999999999999          1.8058643555839258     
  0.12270000000000002          1.5483195222275097     
  0.12300000000000001          1.1804813084801771     
  0.12330000000000001         0.73241929943151995     
  0.12360000000000000         0.24085039818552775     
  0.12390000000000000        -0.25610563684383975     
  0.12419999999999999        -0.72217577724367021     
  0.12450000000000001         -1.1255612760886753     
  0.12480000000000001         -1.4427727790636704     
  0.12509999999999999         -1.6596214007401857     
  0.12540000000000001         -1.7711494642531300     
  0.12570000000000003         -1.7817140670876319     
  0.12600000000000000         -1.7040357908868946     
  0.12630000000000002         -1.5567400106053582     
  0.12659999999999999         -1.3620004847730516     
  0.12690000000000001         -1.1434963468531074     
  0.12719999999999998        -0.92466223224537969     
  0.12750000000000000        -0.72521910987195293     
  0.12780000000000002        -0.56091297508920512     
  0.12809999999999999        -0.44286658959786124     
  0.12840000000000001        -0.37563526771994593     
  0.12869999999999998        -0.35760935664345705     
  0.12900000000000000        -0.38195062504612959     
  0.12930000000000003        -0.43718988907498690     
  0.12959999999999999        -0.50815940785396319     
  0.12990000000000002        -0.57730880467318146     
  0.13019999999999998        -0.62701331638553248     
  0.13050000000000000        -0.64150495387797646     
  0.13080000000000003        -0.60792210983224138     
  0.13109999999999999        -0.51739835690818825     
  0.13140000000000002        -0.36682447980259447     
  0.13169999999999998        -0.15849990752203222     
  0.13200000000000001          9.9316189894264328E-002
  0.13229999999999997         0.39387471430527510     
  0.13260000000000000         0.70891911776649708     
  0.13290000000000002          1.0255898286605210     
  0.13319999999999999          1.3256767945866352     
  0.13350000000000001          1.5921956134811099     
  0.13380000000000003          1.8099573543241014     
  0.13410000000000000          1.9682364007497273     
  0.13440000000000002          2.0604315390843406     
  0.13469999999999999          2.0841858830044298     
  0.13500000000000001          2.0403919529248555     
  0.13529999999999998          1.9325640390317023     
  0.13560000000000000          1.7677834112919577     
  0.13590000000000002          1.5535507180880952     
  0.13619999999999999          1.2972926983064110     
  0.13650000000000001          1.0076757478661116     
  0.13680000000000003         0.69314781170840967     
  0.13710000000000000         0.36251684689292152     
  0.13740000000000002          2.4539252534612931E-002
  0.13769999999999999        -0.31197027875391936     
  0.13800000000000001        -0.63671921701568435     
  0.13829999999999998        -0.93936830212866318     
  0.13860000000000000         -1.2095865589241275     
  0.13890000000000002         -1.4375405917045023     
  0.13919999999999999         -1.6140940811778992     
  0.13950000000000001         -1.7318078906208494     
  0.13979999999999998         -1.7862642426887565     
  0.14010000000000000         -1.7759024489606394     
  0.14040000000000002         -1.7016778526300091     
  0.14069999999999999         -1.5684055552555587     
  0.14100000000000001         -1.3843183886366535     
  0.14130000000000004         -1.1595688121393961     
  0.14160000000000000        -0.90569431868463224     
  0.14189999999999997        -0.63651281514946578     
  0.14219999999999999        -0.36644558630423435     
  0.14250000000000002        -0.10889911834043542     
  0.14279999999999998         0.12352944414870623     
  0.14310000000000000         0.31937428285859465     
  0.14339999999999997         0.46910324373034379     
  0.14369999999999999         0.56589722725485059     
  0.14400000000000002         0.60640162420764776     
  0.14429999999999998         0.58997410535972672     
  0.14460000000000001         0.51975577620245395     
  0.14490000000000003         0.40267362073471230     
  0.14520000000000000         0.24895253319431870     
  0.14550000000000002          7.1967289657241154E-002
  0.14579999999999999        -0.11388901807065191     
  0.14610000000000001        -0.29304881857548443     
  0.14640000000000003        -0.44965416182050938     
  0.14670000000000000        -0.57081938749452898     
  0.14699999999999996        -0.64659543692536681     
  0.14729999999999999        -0.67122187854429782     
  0.14760000000000001        -0.64375338242405256     
  0.14789999999999998        -0.56756375016426297     
  0.14820000000000000        -0.45140070814737204     