  -1.4999999999999999E-002     0.0000000000000000     
  -1.4700000000000000E-002     0.0000000000000000     
  -1.4400000000000000E-002     0.0000000000000000     
  -1.4100000000000000E-002     0.0000000000000000     
  -1.3800000000000000E-002     0.0000000000000000     
  -1.3500000000000000E-002     0.0000000000000000     
  -1.3200000000000000E-002     0.0000000000000000     
  -1.2899999999999998E-002     0.0000000000000000     
  -1.2600000000000000E-002     0.0000000000000000     
  -1.2299999999999998E-002     0.0000000000000000     
  -1.2000000000000000E-002     0.0000000000000000     
  -1.1699999999999999E-002     0.0000000000000000     
  -1.1399999999999999E-002     0.0000000000000000     
  -1.1099999999999999E-002     0.0000000000000000     
  -1.0799999999999999E-002     0.0000000000000000     
  -1.0499999999999999E-002     0.0000000000000000     
  -1.0199999999999999E-002     0.0000000000000000     
  -9.8999999999999991E-003     0.0000000000000000     
  -9.5999999999999992E-003     0.0000000000000000     
  -9.2999999999999992E-003     0.0000000000000000     
  -8.9999999999999993E-003     0.0000000000000000     
  -8.6999999999999994E-003     0.0000000000000000     
  -8.3999999999999995E-003     0.0000000000000000     
  -8.0999999999999996E-003     0.0000000000000000     
  -7.7999999999999988E-003     0.0000000000000000     
  -7.4999999999999997E-003     0.0000000000000000     
  -7.1999999999999998E-003     0.0000000000000000     
  -6.8999999999999981E-003     0.0000000000000000     
  -6.5999999999999982E-003     0.0000000000000000     
  -6.3000000000000000E-003     0.0000000000000000     
  -6.0000000000000001E-003     0.0000000000000000     
  -5.6999999999999985E-003     0.0000000000000000     
  -5.3999999999999986E-003     0.0000000000000000     
  -5.1000000000000004E-003     0.0000000000000000     
  -4.7999999999999987E-003     0.0000000000000000     
  -4.5000000000000005E-003     0.0000000000000000     
  -4.1999999999999989E-003     0.0000000000000000     
  -3.8999999999999990E-003     0.0000000000000000     
  -3.5999999999999990E-003     0.0000000000000000     
  -3.2999999999999991E-003     0.0000000000000000     
  -2.9999999999999992E-003    -6.7932753376877061E-043
  -2.6999999999999993E-003     1.3822229520815492E-041
  -2.3999999999999994E-003    -2.5783873180500009E-038
  -2.0999999999999977E-003    -1.4842157562467126E-037
  -1.7999999999999995E-003     1.4694081047260618E-036
  -1.4999999999999979E-003    -2.5003505591072974E-036
  -1.1999999999999997E-003    -1.8714795654484273E-036
  -8.9999999999999976E-004     7.2181508348772630E-035
  -5.9999999999999810E-004    -1.5409372130608076E-034
  -2.9999999999999992E-004    -6.6829430338924243E-034
   0.0000000000000000          4.3880689720374074E-033
   3.0000000000000165E-004    -7.9701608143342247E-033
   5.9999999999999984E-004    -3.3640731686729883E-032
   9.0000000000000149E-004     3.0391046365050110E-031
   1.2000000000000031E-003    -1.2527922416195178E-030
   1.5000000000000013E-003     3.3809561851161022E-030
   1.8000000000000030E-003    -5.5397426948630847E-030
   2.1000000000000012E-003    -3.8669927614678239E-031
   2.3999999999999994E-003     4.0303037284976562E-029
   2.7000000000000010E-003    -1.7203658785876878E-028
   2.9999999999999992E-003     4.9141178557324968E-028
   3.3000000000000008E-003    -1.1092109867013808E-027
   3.6000000000000025E-003     2.0786808393116850E-027
   3.9000000000000007E-003    -3.2616489961216707E-027
   4.2000000000000023E-003     4.0759526736300894E-027
   4.5000000000000005E-003    -2.8198143680996437E-027
   4.7999999999999987E-003    -5.3300573251563367E-027
   5.1000000000000004E-003     3.3422192291096989E-026
   5.4000000000000020E-003    -1.1331940429993030E-025
   5.7000000000000037E-003     3.1392990091192968E-025
   5.9999999999999984E-003    -7.7008729989740156E-025
   6.3000000000000000E-003     1.7250297036026069E-024
   6.6000000000000017E-003    -3.5034345202850576E-024
   6.9000000000000034E-003     5.7883748082469736E-024
   7.2000000000000015E-003    -4.0311651090122078E-024
   7.5000000000000032E-003    -2.0575174748417084E-023
   7.8000000000000014E-003     1.1444813392769422E-022
   8.0999999999999996E-003    -3.2517799291497186E-022
   8.4000000000000012E-003     4.4512007546468613E-022
   8.7000000000000029E-003     1.1272377172018418E-021
   9.0000000000000011E-003    -1.1271512182602515E-020
   9.2999999999999992E-003     5.2918134949780335E-020
   9.6000000000000009E-003    -1.8830350659841189E-019
   9.8999999999999991E-003     5.4981263622891754E-019
   1.0200000000000001E-002    -1.3164497185770766E-018
   1.0500000000000002E-002     2.4503293093910410E-018
   1.0800000000000004E-002    -3.4559443591654280E-018
   1.1099999999999999E-002     9.7032968454081746E-018
   1.1400000000000000E-002    -8.7950885652563015E-017
   1.1700000000000002E-002     6.3529418893266612E-016
   1.2000000000000004E-002    -3.1194759599884652E-015
   1.2300000000000002E-002     9.8570731820610996E-015
   1.2600000000000000E-002    -9.6984185361718124E-015
   1.2900000000000002E-002    -1.0061809806801224E-013
   1.3200000000000000E-002     7.2091240482922519E-013
   1.3500000000000002E-002    -2.4753168210744861E-012
   1.3800000000000003E-002     3.4161893112359370E-012
   1.4100000000000001E-002     1.0938859856544224E-011
   1.4400000000000000E-002    -7.3002462777001581E-011
   1.4700000000000001E-002     1.5761874487598972E-010
   1.4999999999999999E-002     5.5865479028226030E-011
   1.5300000000000001E-002    -1.1251106648593878E-009
   1.5600000000000003E-002     1.9611181924738242E-009
   1.5899999999999997E-002     2.4986355647058760E-009
   1.6199999999999999E-002    -1.1947855303045370E-008
   1.6500000000000001E-002     4.2591375111812132E-010
   1.6800000000000002E-002     4.5451898117065832E-008
   1.7100000000000004E-002    -1.2222969574596135E-008
   1.7400000000000006E-002    -1.4784979819310027E-007
   1.7700000000000000E-002     4.2297827604820243E-010
   1.8000000000000002E-002     4.1493579337231272E-007
   1.8300000000000004E-002     1.9307468259959065E-007
   1.8600000000000005E-002    -1.0599124620394951E-006
   1.8900000000000000E-002    -1.5937904001081860E-006
   1.9200000000000002E-002     7.0934803885629834E-007
   1.9500000000000003E-002     4.6338856923364135E-006
   1.9799999999999998E-002     6.4223663895963676E-006
   2.0100000000000000E-002     5.5230802592699301E-006
   2.0400000000000001E-002     6.6788290199206941E-006
   2.0700000000000003E-002     1.3836996920826113E-005
   2.0999999999999998E-002     2.4765854819764667E-005
   2.1299999999999999E-002     3.5762882537980380E-005
   2.1600000000000001E-002     4.9680577557517002E-005
   2.1900000000000003E-002     7.4388436850085152E-005
   2.2200000000000004E-002     1.1408236607788147E-004
   2.2500000000000006E-002     1.6780167296979835E-004
   2.2800000000000001E-002     2.3819543219793756E-004
   2.3100000000000002E-002     3.3594553051906497E-004
   2.3400000000000004E-002     4.7166739103875254E-004
   2.3699999999999999E-002     6.4876857173887497E-004
   2.4000000000000000E-002     8.6881053764915916E-004
   2.4300000000000002E-002     1.1389840403453525E-003
   2.4599999999999997E-002     1.4671707253688226E-003
   2.4900000000000005E-002     1.8504334456978075E-003
   2.5200000000000000E-002     2.2735917813455795E-003
   2.5499999999999995E-002     2.7159586895646763E-003
   2.5800000000000003E-002     3.1476112924413522E-003
   2.6099999999999998E-002     3.5156076925602440E-003
   2.6400000000000007E-002     3.7373651633675863E-003
   2.6700000000000002E-002     3.7087005055223706E-003
   2.6999999999999996E-002     3.3099507427055684E-003
   2.7300000000000005E-002     2.3984309978519651E-003
   2.7600000000000000E-002     8.0691060506276908E-004
   2.7900000000000008E-002    -1.6425671570958252E-003
   2.8200000000000003E-002    -5.1116259749178182E-003
   2.8499999999999998E-002    -9.7292976454228207E-003
   2.8800000000000006E-002    -1.5581975363557453E-002
   2.9100000000000001E-002    -2.2684685868355255E-002
   2.9400000000000003E-002    -3.0942290639258123E-002
   2.9700000000000004E-002    -4.0124489836789998E-002
   3.0000000000000006E-002    -4.9852443841405532E-002
   3.0300000000000001E-002    -5.9590146781050568E-002
   3.0600000000000002E-002    -6.8635575575528657E-002
   3.0900000000000004E-002    -7.6127164204224579E-002
   3.1199999999999999E-002    -8.1072991633157149E-002
   3.1500000000000007E-002    -8.2415205670004432E-002
   3.1800000000000002E-002    -7.9085013250190114E-002
   3.2099999999999997E-002    -7.0066779208385679E-002
   3.2400000000000005E-002    -5.4490444363686316E-002
   3.2700000000000000E-002    -3.1724108621130093E-002
   3.3000000000000002E-002    -1.4545190892580910E-003
   3.3300000000000003E-002     3.6227697501207565E-002
   3.3599999999999998E-002     8.0774056902631855E-002
   3.3900000000000000E-002    0.13113815953648356     
   3.4200000000000001E-002    0.18573131524961570     
   3.4500000000000003E-002    0.24244135594843419     
   3.4799999999999998E-002    0.29869244179908089     
   3.5099999999999999E-002    0.35149871456583914     
   3.5400000000000001E-002    0.39755527355064896     
   3.5699999999999996E-002    0.43336951618495556     
   3.6000000000000004E-002    0.45543433978541059     
   3.6299999999999999E-002    0.46041680839031396     
   3.6600000000000008E-002    0.44535701228481483     
   3.6900000000000002E-002    0.40789237588602489     
   3.7199999999999997E-002    0.34648493115308360     
   3.7500000000000006E-002    0.26065050496957137     
   3.7800000000000000E-002    0.15118339800617617     
   3.8100000000000009E-002     2.0261074492195094E-002
   3.8400000000000004E-002   -0.12852271234530288     
   3.8699999999999998E-002   -0.29017363425450593     
   3.9000000000000007E-002   -0.45838567559467558     
   3.9300000000000002E-002   -0.62585271360591765     
   3.9600000000000003E-002   -0.78464686669593320     
   3.9900000000000005E-002   -0.92664937326543662     
   4.0200000000000000E-002    -1.0440930476226982     
   4.0500000000000001E-002    -1.1301016418347474     
   4.0800000000000003E-002    -1.1792499406319230     
   4.1100000000000005E-002    -1.1880081059061713     
   4.1399999999999999E-002    -1.1550144564643803     
   4.1700000000000008E-002    -1.0812368171303126     
   4.2000000000000003E-002   -0.96997717810200479     
   4.2299999999999997E-002   -0.82664370691494371     
   4.2600000000000006E-002   -0.65826257460524062     
   4.2900000000000001E-002   -0.47296044655561398     
   4.3200000000000002E-002   -0.27933697199670893     
   4.3500000000000004E-002    -8.5601891064485389E-002
   4.3799999999999999E-002    0.10101916883310647     
   4.4100000000000000E-002    0.27480912158888582     
   4.4400000000000002E-002    0.43209976421142560     
   4.4700000000000004E-002    0.57143093943191803     
   4.4999999999999998E-002    0.69352117258412005     
   4.5300000000000000E-002    0.80092809042801072     
   4.5600000000000002E-002    0.89748566158807397     
   4.5899999999999996E-002    0.98780490984220726     
   4.6200000000000005E-002     1.0763814581960989     
   4.6500000000000000E-002     1.1665260422103043     
   4.6799999999999994E-002     1.2598772013406041     
   4.7100000000000003E-002     1.3557966983720453     
   4.7399999999999998E-002     1.4508525090000766     
   4.7700000000000006E-002     1.5389585562242729     
   4.8000000000000001E-002     1.6116960170943948     
   4.8300000000000010E-002     1.6589936177722986     
   4.8600000000000004E-002     1.6701050543521900     
   4.8899999999999999E-002     1.6346357571553547     
   4.9200000000000008E-002     1.5440241810634912     
   4.9500000000000002E-002     1.3926968836719351     
   4.9800000000000011E-002     1.1787707996595784     
   5.0100000000000006E-002    0.90493934524714548     
   5.0400000000000000E-002    0.57859661433743381     
   5.0700000000000009E-002    0.21156265159218735     
   5.1000000000000004E-002   -0.18059352837002068     
   5.1299999999999998E-002   -0.57986494018877632     
   5.1600000000000007E-002   -0.96721157630762167     
   5.1900000000000002E-002    -1.3238663886776352     
   5.2200000000000010E-002    -1.6332092414057253     
   5.2500000000000005E-002    -1.8820816617613216     
   5.2800000000000000E-002    -2.0615997966439421     
   5.3099999999999994E-002    -2.1678957046644829     
   5.3400000000000003E-002    -2.2019967106883027     
   5.3699999999999998E-002    -2.1696561591316232     
   5.4000000000000006E-002    -2.0804634101927739     
   5.4300000000000001E-002    -1.9461938019047906     
   5.4599999999999996E-002    -1.7798270237108078     
   5.4900000000000004E-002    -1.5943250729212763     
   5.5199999999999999E-002    -1.4008964087906990     
   5.5499999999999994E-002    -1.2082118493675997     
   5.5800000000000002E-002    -1.0216485483055928     
   5.6099999999999997E-002   -0.84310509255713739     
   5.6400000000000006E-002   -0.67144427400058371     
   5.6700000000000000E-002   -0.50276642325456711     
   5.6999999999999995E-002   -0.33133742145390183     
   5.7300000000000004E-002   -0.15102059855358255     
   5.7599999999999998E-002     4.3891019137476055E-002
   5.7900000000000007E-002    0.25738468082116855     
   5.8200000000000002E-002    0.49088684218003897     
   5.8499999999999996E-002    0.74288613100968859     
   5.8800000000000005E-002     1.0082992409492244     
   5.9100000000000000E-002     1.2789452602070108     
   5.9400000000000008E-002     1.5442856251107830     
   5.9700000000000003E-002     1.7919691906923449     
   6.0000000000000012E-002     2.0090751189031444     
   6.0300000000000006E-002     2.1832266375074587     
   6.0600000000000001E-002     2.3035962830514114     
   6.0900000000000010E-002     2.3622795725922425     
   6.1200000000000004E-002     2.3545265793106900     
   6.1500000000000013E-002     2.2788954264493735     
   6.1800000000000008E-002     2.1376455384171149     
   6.2100000000000002E-002     1.9360193392603064     
   6.2399999999999997E-002     1.6816921675371774     
   6.2700000000000006E-002     1.3840027757811026     
   6.3000000000000000E-002     1.0526850642804673     
   6.3300000000000009E-002    0.69749920194690529     
   6.3600000000000004E-002    0.32785900782267430     
   6.3899999999999998E-002    -4.8107552133831555E-002
   6.4199999999999993E-002   -0.42328498144479798     
   6.4500000000000002E-002   -0.79114071062629787     
   6.4800000000000010E-002    -1.1453742645195197     
   6.5100000000000005E-002    -1.4792369699669137     
   6.5400000000000000E-002    -1.7854403932561262     
   6.5700000000000008E-002    -2.0554750872307870     
   6.5999999999999989E-002    -2.2794662398455645     
   6.6299999999999998E-002    -2.4467625410825149     
   6.6600000000000006E-002    -2.5462968217104880     
   6.6900000000000001E-002    -2.5678930367633601     
   6.7199999999999996E-002    -2.5033265340972548     
   6.7500000000000004E-002    -2.3471807096970663     
   6.7800000000000013E-002    -2.0986384754205547     
   6.8099999999999994E-002    -1.7622282562958480     
   6.8400000000000002E-002    -1.3480852464003499     
   6.8700000000000011E-002   -0.87227806333537483     
   6.8999999999999992E-002   -0.35617787177333660     
   6.9300000000000000E-002    0.17474915925659457     
   6.9600000000000009E-002    0.69235796171866415     
   6.9900000000000004E-002     1.1678314822895746     
   7.0199999999999999E-002     1.5736556760344012     
   7.0500000000000007E-002     1.8858701329775713     
   7.0800000000000016E-002     2.0859778435254999     
   7.1099999999999997E-002     2.1618786549900331     
   7.1400000000000005E-002     2.1092651724330560     
   7.1700000000000000E-002     1.9321455931904343     
   7.1999999999999995E-002     1.6420251883890140     
   7.2300000000000003E-002     1.2571646489206409     
   7.2600000000000012E-002    0.80128628334670904     
   7.2900000000000006E-002    0.30144138067077764     
   7.3200000000000001E-002   -0.21376578367976679     
   7.3499999999999996E-002   -0.71653285868012595     
   7.3800000000000004E-002    -1.1817984165014770     
   7.4099999999999999E-002    -1.5889532576044822     
   7.4400000000000008E-002    -1.9232959274165200     
   7.4700000000000003E-002    -2.1764139471212474     
   7.5000000000000011E-002    -2.3464363327233899     
   7.5299999999999992E-002    -2.4378133722992041     
   7.5600000000000001E-002    -2.4599443444669253     
   7.5900000000000009E-002    -2.4257937970904404     
   7.6200000000000004E-002    -2.3500268366935702     
   7.6499999999999999E-002    -2.2468046218946851     
   7.6800000000000007E-002    -2.1284083377390997     
   7.7099999999999988E-002    -2.0033983975326786     
   7.7399999999999997E-002    -1.8751582927301307     
   7.7700000000000005E-002    -1.7416280175288923     
   7.8000000000000014E-002    -1.5957974076032215     
   7.8299999999999995E-002    -1.4262177400698590     
   7.8600000000000003E-002    -1.2183415836738396     
   7.8900000000000012E-002   -0.95677467140798500     
   7.9199999999999993E-002   -0.62772716106937410     
   7.9500000000000001E-002   -0.22110312891781875     
   7.9800000000000010E-002    0.26764868484637661     
   8.0100000000000018E-002    0.83575695268389949     
   8.0399999999999999E-002     1.4723877691783023     
   8.0700000000000008E-002     2.1588091788447814     
   8.1000000000000003E-002     2.8689243492412473     
   8.1299999999999997E-002     3.5711670068887100     
   8.1600000000000006E-002     4.2314155686108101     
   8.1900000000000014E-002     4.8150813250375730     
   8.2199999999999995E-002     5.2900640948572999     
   8.2500000000000004E-002     5.6296017533101947     
   8.2799999999999999E-002     5.8148016792254458     
   8.3100000000000007E-002     5.8360646710008499     
   8.3400000000000002E-002     5.6932248451257994     
   8.3700000000000011E-002     5.3956231116185105     
   8.4000000000000005E-002     4.9614716812926911     
   8.4300000000000000E-002     4.4160948777523874     
   8.4599999999999995E-002     3.7893049210189815     
   8.4900000000000003E-002     3.1129336302117800     
   8.5199999999999998E-002     2.4190232553223532     
   8.5500000000000007E-002     1.7379122817567261     
   8.5800000000000001E-002     1.0958554134857235     
   8.6100000000000010E-002    0.51380596570872095     
   8.6399999999999991E-002     7.3636988950020049E-003
   8.6699999999999999E-002   -0.41315662706990230     
   8.7000000000000008E-002   -0.74329849128183834     
   8.7300000000000003E-002   -0.98444526829068080     
   8.7599999999999997E-002    -1.1424581435504673     
   8.7900000000000006E-002    -1.2271283867840515     
   8.8200000000000014E-002    -1.2524931644607924     
   8.8499999999999995E-002    -1.2364022984788843     
   8.8800000000000004E-002    -1.1996971942882420     
   8.9100000000000013E-002    -1.1656051639073830     
   8.9399999999999993E-002    -1.1590435456280874     
   8.9700000000000002E-002    -1.2057301222688821     
   9.0000000000000011E-002    -1.3303619941175668     
   9.0299999999999991E-002    -1.5547300480216413     
   9.0600000000000000E-002    -1.8952649208951806     
   9.0900000000000009E-002    -2.3609056707411971     
   9.1200000000000017E-002    -2.9510322602183243     
   9.1499999999999998E-002    -3.6536570407001854     
   9.1800000000000007E-002    -4.4446345017951270     
   9.2100000000000001E-002    -5.2873660407752343     
   9.2399999999999996E-002    -6.1345369603818352     
   9.2700000000000005E-002    -6.9308230873829011     
   9.3000000000000013E-002    -7.6163994383941862     
   9.3300000000000008E-002    -8.1313602999998942     
   9.3600000000000003E-002    -8.4213806101185043     
   9.3899999999999997E-002    -8.4430504747581949     
   9.4200000000000006E-002    -8.1681368083919619     
   9.4500000000000001E-002    -7.5872962414094154     
   9.4800000000000009E-002    -6.7123660472012281     
   9.5100000000000004E-002    -5.5762368687617574     
   9.5399999999999999E-002    -4.2310806833047749     
   9.5699999999999993E-002    -2.7445207797582341     
   9.6000000000000002E-002    -1.1941710414392326     
   9.6300000000000011E-002    0.33860298947665712     
   9.6600000000000005E-002     1.7758773534761070     
   9.6900000000000000E-002     3.0495432859716747     
   9.7200000000000009E-002     4.1069326444522662     
   9.7499999999999989E-002     4.9152107825801137     
   9.7799999999999998E-002     5.4627055600887280     
   9.8100000000000007E-002     5.7590593677082857     
   9.8400000000000015E-002     5.8328501685512100     
   9.8699999999999996E-002     5.7276426099858861     
   9.9000000000000005E-002     5.4965610476833779     
   9.9300000000000013E-002     5.1959457309844774     
   9.9599999999999994E-002     4.8797362041108414     
   9.9900000000000003E-002     4.5942128421388571     
  0.10020000000000001          4.3735464046653414     
  0.10049999999999999          4.2374822891377093     
  0.10080000000000000          4.1912114877403583     
  0.10110000000000001          4.2257709650274986     
  0.10140000000000000          4.3201698862279052     
  0.10170000000000000          4.4458238637487444     
  0.10200000000000001          4.5700568993186534     
  0.10230000000000002          4.6594251693648090     
  0.10260000000000000          4.6840201565219974     
  0.10290000000000001          4.6202552392564016     
  0.10320000000000000          4.4517319072326504     
  0.10350000000000001          4.1694407232834152     
  0.10380000000000000          3.7717359230319962     
  0.10410000000000001          3.2632925485266302     
  0.10440000000000001          2.6523956946042087     
  0.10470000000000000          1.9489748837081380     
  0.10500000000000000          1.1641823362692816     
  0.10530000000000000         0.30875389984015861     
  0.10560000000000000        -0.60737496724037843     
  0.10590000000000001         -1.5741156715365103     
  0.10620000000000000         -2.5798791092535955     
  0.10650000000000001         -3.6103595001261990     
  0.10679999999999999         -4.6469598411707427     
  0.10710000000000000         -5.6648551945406451     
  0.10740000000000001         -6.6320271830914415     
  0.10770000000000000         -7.5104031599671313     
  0.10800000000000000         -8.2572075031020091     
  0.10830000000000001         -8.8259139470318555     
  0.10859999999999999         -9.1701062205791892     
  0.10890000000000000         -9.2482147356125566     
  0.10920000000000001         -9.0268036572756287     
  0.10950000000000001         -8.4841882968219071     
  0.10979999999999999         -7.6141123153855794     
  0.11009999999999999         -6.4275600700900686     
  0.11040000000000001         -4.9540740189458106     
  0.11070000000000001         -3.2410500334964110     
  0.11100000000000000         -1.3511803938986922     
  0.11130000000000000         0.64084183237815806     
  0.11160000000000002          2.6524039325604711     
  0.11190000000000001          4.5973769456670572     
  0.11220000000000001          6.3917350477500978     
  0.11250000000000000          7.9592331717523574     
  0.11280000000000000          9.2346996484762478     
  0.11309999999999999          10.167338211731462     
  0.11340000000000001          10.723421719927103     
  0.11369999999999998          10.887652853259555     
  0.11400000000000000          10.663003235476825     
  0.11430000000000000          10.069290232117147     
  0.11460000000000002          9.1413012982897985     
  0.11489999999999999          7.9264296605838247     
  0.11520000000000001          6.4817899861631361     
  0.11550000000000001          4.8702440019320195     
  0.11580000000000000          3.1576018378737958     
  0.11609999999999999          1.4094367703118982     
  0.11640000000000002        -0.31185895665301089     
  0.11670000000000001         -1.9486612546553597     
  0.11700000000000001         -3.4504060370479155     
  0.11730000000000000         -4.7756496289771926     
  0.11760000000000000         -5.8914606144462773     
  0.11789999999999999         -6.7737912072098787     
  0.11820000000000001         -7.4083624094182561     
  0.11850000000000001         -7.7897804261171171     
  0.11880000000000000         -7.9205769713078968     
  0.11910000000000000         -7.8105792302383605     
  0.11940000000000002         -7.4765381446614665     
  0.11970000000000001         -6.9418921260418678     
  0.12000000000000001         -6.2353362522362898     
  0.12030000000000000         -5.3908101293146524     
  0.12060000000000000         -4.4469715476395564     
  0.12089999999999999         -3.4456621462329284     
  0.12119999999999999         -2.4318608380987685     
  0.12150000000000001         -1.4520757764421139     
  0.12180000000000001        -0.55130669217778805     
  0.12210000000000000         0.22841869695966649     
  0.12239999999999999         0.85025770672251610     
  0.12270000000000002          1.2864004593188416     
  0.12300000000000001          1.5195737757757322     
  0.12330000000000001          1.5460947363561435     
  0.12360000000000000          1.3768661112383951     
  0.12390000000000000          1.0369930147298732     
  0.12419999999999999         0.56633218747972824     
  0.12450000000000001          1.6727815762805076E-002
  0.12480000000000001        -0.55196682707851130     
  0.12509999999999999         -1.0747526068115165     
  0.12540000000000001         -1.4876950493016707     
  0.12570000000000003         -1.7323807022375415     
  0.12600000000000000         -1.7601223733720319     
  0.12630000000000002         -1.5389028641317370     
  0.12659999999999999         -1.0545971955897004     
  0.12690000000000001        -0.31260728680429678     
  0.12719999999999998         0.65990022123947134     
  0.12750000000000000          1.8168237801546427     
  0.12780000000000002          3.0952024470746622     
  0.12809999999999999          4.4191895077602759     
  0.12840000000000001          5.7065174958656346     
  0.12869999999999998          6.8723869584797583     
  0.12900000000000000          7.8365478227501981     
  0.12930000000000003          8.5301025300920994     
  0.12959999999999999          8.8980963485999158     
  0.12990000000000002          8.9050900116639617     
  0.13019999999999998          8.5383259349545337     
  0.13050000000000000          7.8071025963531557     
  0.13080000000000003          6.7437116122805225     
  0.13109999999999999          5.4007699053315248     
  0.13140000000000002          3.8478389400816919     
  0.13169999999999998          2.1679221681251017     
  0.13200000000000001         0.44966821193929118     
  0.13229999999999997         -1.2171403559745695     
  0.13260000000000000         -2.7466470017542939     
  0.13290000000000002         -4.0650903968709482     
  0.13319999999999999         -5.1133748906804115     
  0.13350000000000001         -5.8513640526355672     
  0.13380000000000003         -6.2619292306216483     
  0.13410000000000000         -6.3491500508650649     
  0.13440000000000002         -6.1383884614653663     
  0.13469999999999999         -5.6744872846121925     
  0.13500000000000001         -5.0163484936924405     
  0.13529999999999998         -4.2330054885569908     
  0.13560000000000000         -3.3976467974087372     
  0.13590000000000002         -2.5814528384514586     
  0.13619999999999999         -1.8493523677625450     
  0.13650000000000001         -1.2527927792081048     
  0.13680000000000003        -0.82796305419392802     
  0.13710000000000000        -0.59511967101691066     
  0.13740000000000002        -0.55419259424462863     
  0.13769999999999999        -0.68753522184313998     
  0.13800000000000001        -0.96443913861893149     
  0.13829999999999998         -1.3412665936609887     
  0.13860000000000000         -1.7674202553485192     
  0.13890000000000002         -2.1900108232381310     
  0.13919999999999999         -2.5574015227818481     
  0.13950000000000001         -2.8259110387698270     
  0.13979999999999998         -2.9601054394915813     
  0.14010000000000000         -2.9355941426333123     
  0.14040000000000002         -2.7427673989325623     
  0.14069999999999999         -2.3842443731530056     
  0.14100000000000001         -1.8746341140232134     
  0.14130000000000004         -1.2395002428995125     
  0.14160000000000000        -0.51086286797712044     
  0.14189999999999997         0.27268179648898205     
  0.14219999999999999          1.0705642540215767     
  0.14250000000000002          1.8444977464363745     
  0.14279999999999998          2.5571032760364587     
  0.14310000000000000          3.1766154216691040     
  0.14339999999999997          3.6780639816749776     
  0.14369999999999999          4.0419710246377383     
  0.14400000000000002          4.2581691555511849     
  0.14429999999999998          4.3234331784090969     
  0.14460000000000001          4.2401416286302238     
  0.14490000000000003          4.0188161025060491     
  0.14520000000000000          3.6745942203592969     
  0.14550000000000002          3.2271228423453517     
  0.14579999999999999          2.7005999175935531     
  0.14610000000000001          2.1204034473692230     
  0.14640000000000003          1.5142593110643507     
  0.14670000000000000         0.90992588021110610     
  0.14699999999999996         0.33276484769917669     
  0.14729999999999999        -0.19225302435319988     
  0.14760000000000001        -0.64414044827069405     
  0.14789999999999998         -1.0076133558715430     
  0.14820000000000000         -1.2704096757442940     