  -1.4999999999999999E-002     0.0000000000000000     
  -1.4700000000000000E-002     0.0000000000000000     
  -1.4400000000000000E-002     0.0000000000000000     
  -1.4100000000000000E-002     0.0000000000000000     
  -1.3800000000000000E-002     0.0000000000000000     
  -1.3500000000000000E-002     0.0000000000000000     
  -1.3200000000000000E-002     0.0000000000000000     
  -1.2899999999999998E-002     0.0000000000000000     
  -1.2600000000000000E-002     0.0000000000000000     
  -1.2299999999999998E-002     0.0000000000000000     
  -1.2000000000000000E-002     0.0000000000000000     
  -1.1699999999999999E-002     0.0000000000000000     
  -1.1399999999999999E-002     0.0000000000000000     
  -1.1099999999999999E-002     0.0000000000000000     
  -1.0799999999999999E-002     0.0000000000000000     
  -1.0499999999999999E-002     0.0000000000000000     
  -1.0199999999999999E-002     0.0000000000000000     
  -9.8999999999999991E-003     0.0000000000000000     
  -9.5999999999999992E-003     0.0000000000000000     
  -9.2999999999999992E-003     0.0000000000000000     
  -8.9999999999999993E-003     0.0000000000000000     
  -8.6999999999999994E-003     0.0000000000000000     
  -8.3999999999999995E-003     0.0000000000000000     
  -8.0999999999999996E-003     0.0000000000000000     
  -7.7999999999999988E-003     0.0000000000000000     
  -7.4999999999999997E-003     0.0000000000000000     
  -7.1999999999999998E-003     0.0000000000000000     
  -6.8999999999999981E-003    -3.6641294702780725E-042
  -6.5999999999999982E-003     1.1279089990292280E-040
  -6.3000000000000000E-003     1.6239219405916250E-037
  -6.0000000000000001E-003    -1.9350156795100329E-036
  -5.6999999999999985E-003    -2.0816049217277840E-035
  -5.3999999999999986E-003     5.9906382093729732E-034
  -5.1000000000000004E-003    -3.4528776030678437E-033
  -4.7999999999999987E-003     9.4610175884081105E-033
  -4.5000000000000005E-003     1.0957605862687280E-032
  -4.1999999999999989E-003    -2.4622368665910611E-031
  -3.8999999999999990E-003     1.2894919825619752E-030
  -3.5999999999999990E-003    -3.7872633085517101E-030
  -3.2999999999999991E-003     4.0071085518493528E-030
  -2.9999999999999992E-003     2.2832927751086685E-029
  -2.6999999999999993E-003    -1.5615748935705208E-028
  -2.3999999999999994E-003     5.3924149963553464E-028
  -2.0999999999999977E-003    -1.1766065713037901E-027
  -1.7999999999999995E-003     1.0608869023400095E-027
  -1.4999999999999979E-003     4.1226697494053791E-027
  -1.1999999999999997E-003    -2.6601216619472826E-026
  -8.9999999999999976E-004     9.4529553419292606E-026
  -5.9999999999999810E-004    -2.6619125671247270E-025
  -2.9999999999999992E-004     6.5829931737102102E-025
   0.0000000000000000         -1.5035399221140009E-024
   3.0000000000000165E-004     3.2505063903619043E-024
   5.9999999999999984E-004    -6.6864870278594980E-024
   9.0000000000000149E-004     1.2990132483779071E-023
   1.2000000000000031E-003    -2.3556282356846130E-023
   1.5000000000000013E-003     3.9535211828523682E-023
   1.8000000000000030E-003    -6.1541484021233449E-023
   2.1000000000000012E-003     9.1137363670095747E-023
   2.3999999999999994E-003    -1.3752863777605833E-022
   2.7000000000000010E-003     2.3525407341853643E-022
   2.9999999999999992E-003    -4.8136163442692660E-022
   3.3000000000000008E-003     1.1040203068926228E-021
   3.6000000000000025E-003    -2.5801766947160050E-021
   3.9000000000000007E-003     5.8306883068340403E-021
   4.2000000000000023E-003    -1.2541106541812895E-020
   4.5000000000000005E-003     2.5685173000555036E-020
   4.7999999999999987E-003    -5.0347241919105962E-020
   5.1000000000000004E-003     9.4883138077977504E-020
   5.4000000000000020E-003    -1.7217815775494632E-019
   5.7000000000000037E-003     3.0003828249223424E-019
   5.9999999999999984E-003    -4.9838479076118139E-019
   6.3000000000000000E-003     7.7881409548737799E-019
   6.6000000000000017E-003    -1.1189583314978939E-018
   6.9000000000000034E-003     1.4081695051671281E-018
   7.2000000000000015E-003    -1.3370999013904405E-018
   7.5000000000000032E-003     1.8536783597528201E-019
   7.8000000000000014E-003     3.4000940711253963E-018
   8.0999999999999996E-003    -9.9327299832358248E-018
   8.4000000000000012E-003     3.4170877427392760E-018
   8.7000000000000029E-003     1.4823443648426086E-016
   9.0000000000000011E-003    -1.1997408137305338E-015
   9.2999999999999992E-003     6.6836372882938425E-015
   9.6000000000000009E-003    -3.0378627143668623E-014
   9.8999999999999991E-003     1.1487848731307323E-013
   1.0200000000000001E-002    -3.4515723790229224E-013
   1.0500000000000002E-002     6.8478676254848327E-013
   1.0800000000000004E-002     9.0310194819977365E-014
   1.1099999999999999E-002    -7.8718920426001419E-012
   1.1400000000000000E-002     3.7606608583249347E-011
   1.1700000000000002E-002    -9.5833324374546502E-011
   1.2000000000000004E-002     7.2088978761174002E-011
   1.2300000000000002E-002     4.6672613694569274E-010
   1.2600000000000000E-002    -1.9527533371298267E-009
   1.2900000000000002E-002     2.3564008774381204E-009
   1.3200000000000000E-002     5.8005747639885897E-009
   1.3500000000000002E-002    -2.3478261980446679E-008
   1.3800000000000003E-002     8.6192835330454042E-009
   1.4100000000000001E-002     9.1173440366959991E-008
   1.4400000000000000E-002    -1.1264379527171794E-007
   1.4700000000000001E-002    -2.8362419031770284E-007
   1.4999999999999999E-002     3.9204052179313247E-007
   1.5300000000000001E-002     8.6813643571071308E-007
   1.5600000000000003E-002    -8.6539682051014858E-007
   1.5899999999999997E-002    -2.9980912404765747E-006
   1.6199999999999999E-002     8.1703026480076341E-007
   1.6500000000000001E-002     1.5127096866172731E-005
   1.6800000000000002E-002     3.7358685015092939E-005
   1.7100000000000004E-002     6.1941069351281156E-005
   1.7400000000000006E-002     8.8976602323928767E-005
   1.7700000000000000E-002     1.2712866546611015E-004
   1.8000000000000002E-002     1.9084007303788733E-004
   1.8300000000000004E-002     2.9603432023911119E-004
   1.8600000000000005E-002     4.5820356478117123E-004
   1.8900000000000000E-002     6.9731822205176873E-004
   1.9200000000000002E-002     1.0446146434131814E-003
   1.9500000000000003E-002     1.5444505798831996E-003
   1.9799999999999998E-002     2.2533617647665866E-003
   2.0100000000000000E-002     3.2397425427213820E-003
   2.0400000000000001E-002     4.5852550545148968E-003
   2.0700000000000003E-002     6.3864579166790815E-003
   2.0999999999999998E-002     8.7561736388989571E-003
   2.1299999999999999E-002     1.1823151330631075E-002
   2.1600000000000001E-002     1.5720195216872745E-002
   2.1900000000000003E-002     2.0563711089739992E-002
   2.2200000000000004E-002     2.6438550562456368E-002
   2.2500000000000006E-002     3.3384708536539798E-002
   2.2800000000000001E-002     4.1374156505309026E-002
   2.3100000000000002E-002     5.0276811302631688E-002
   2.3400000000000004E-002     5.9825654442982198E-002
   2.3699999999999999E-002     6.9587205452965956E-002
   2.4000000000000000E-002     7.8939022255469504E-002
   2.4300000000000002E-002     8.7053449471069008E-002
   2.4599999999999997E-002     9.2905478714631326E-002
   2.4900000000000005E-002     9.5311618495503070E-002
   2.5200000000000000E-002     9.2969321223943011E-002
   2.5499999999999995E-002     8.4551561974437237E-002
   2.5800000000000003E-002     6.8809833489425376E-002
   2.6099999999999998E-002     4.4690612754096311E-002
   2.6400000000000007E-002     1.1511624270073934E-002
   2.6700000000000002E-002    -3.0906215506887741E-002
   2.6999999999999996E-002    -8.2097174838122094E-002
   2.7300000000000005E-002   -0.14088075813082640     
   2.7600000000000000E-002   -0.20532089928371838     
   2.7900000000000008E-002   -0.27272999775553292     
   2.8200000000000003E-002   -0.33982910650982900     
   2.8499999999999998E-002   -0.40292118151146844     
   2.8800000000000006E-002   -0.45814636123898267     
   2.9100000000000001E-002   -0.50181082592738324     
   2.9400000000000003E-002   -0.53070005945250243     
   2.9700000000000004E-002   -0.54240774985608753     
   3.0000000000000006E-002   -0.53558305910278203     
   3.0300000000000001E-002   -0.51006234103559123     
   3.0600000000000002E-002   -0.46693612361812686     
   3.0900000000000004E-002   -0.40844103993268838     
   3.1199999999999999E-002   -0.33774357916229386     
   3.1500000000000007E-002   -0.25862386803737281     
   3.1800000000000002E-002   -0.17502213924201232     
   3.2099999999999997E-002    -9.0688585702217536E-002
   3.2400000000000005E-002    -8.7260947949977744E-003
   3.2700000000000000E-002     6.8635728977051114E-002
   3.3000000000000002E-002    0.14021682424673840     
   3.3300000000000003E-002    0.20595597212416708     
   3.3599999999999998E-002    0.26663840372120284     
   3.3900000000000000E-002    0.32376692811720126     
   3.4200000000000001E-002    0.37916743768357830     
   3.4500000000000003E-002    0.43452093034457862     
   3.4799999999999998E-002    0.49114581528533119     
   3.5099999999999999E-002    0.54955086733175063     
   3.5400000000000001E-002    0.60937297835704141     
   3.5699999999999996E-002    0.66935893435205451     
   3.6000000000000004E-002    0.72741762296371582     
   3.6299999999999999E-002    0.78100960223803095     
   3.6600000000000008E-002    0.82740163430632196     
   3.6900000000000002E-002    0.86407271197374624     
   3.7199999999999997E-002    0.88909565714667738     
   3.7500000000000006E-002    0.90127113077123644     
   3.7800000000000000E-002    0.90036240503117670     
   3.8100000000000009E-002    0.88699772894401185     
   3.8400000000000004E-002    0.86244727061092541     
   3.8699999999999998E-002    0.82838406331527359     
   3.9000000000000007E-002    0.78631646308494196     
   3.9300000000000002E-002    0.73719030607847746     
   3.9600000000000003E-002    0.68094414479257548     
   3.9900000000000005E-002    0.61612823519149873     
   4.0200000000000000E-002    0.53983636559888060     
   4.0500000000000001E-002    0.44771571198945603     
   4.0800000000000003E-002    0.33432186568611888     
   4.1100000000000005E-002    0.19376057248905809     
   4.1399999999999999E-002     2.0425889535146860E-002
   4.1700000000000008E-002   -0.19009336455892206     
   4.2000000000000003E-002   -0.43993769166147434     
   4.2299999999999997E-002   -0.72818095608140621     
   4.2600000000000006E-002    -1.0499976253091396     
   4.2900000000000001E-002    -1.3962731862867523     
   4.3200000000000002E-002    -1.7534258822049851     
   4.3500000000000004E-002    -2.1037212298501329     
   4.3799999999999999E-002    -2.4262508442098305     
   4.4100000000000000E-002    -2.6979906394559370     
   4.4400000000000002E-002    -2.8955407033661418     
   4.4700000000000004E-002    -2.9970274123798926     
   4.4999999999999998E-002    -2.9836945958732088     
   4.5300000000000000E-002    -2.8420263987393772     
   4.5600000000000002E-002    -2.5651297477803769     
   4.5899999999999996E-002    -2.1537129125790369     
   4.6200000000000005E-002    -1.6169571861573337     
   4.6500000000000000E-002   -0.97203460695188948     
   4.6799999999999994E-002   -0.24356695276483237     
   4.7100000000000003E-002    0.53751427807339514     
   4.7399999999999998E-002     1.3363947440394135     
   4.7700000000000006E-002     2.1157997259205268     
   4.8000000000000001E-002     2.8386392231343613     
   4.8300000000000010E-002     3.4704296350352881     
   4.8600000000000004E-002     3.9805094237934115     
   4.8899999999999999E-002     4.3446055058010149     
   4.9200000000000008E-002     4.5454823444135197     
   4.9500000000000002E-002     4.5734310760601629     
   4.9800000000000011E-002     4.4269241100173886     
   5.0100000000000006E-002     4.1117017109448817     
   5.0400000000000000E-002     3.6405479685285185     
   5.0700000000000009E-002     3.0325421088308460     
   5.1000000000000004E-002     2.3112204871044453     
   5.1299999999999998E-002     1.5042587266068723     
   5.1600000000000007E-002    0.64207030973300516     
   5.1900000000000002E-002   -0.24358027362669143     
   5.2200000000000010E-002    -1.1199224654396711     
   5.2500000000000005E-002    -1.9548188140282912     
   5.2800000000000000E-002    -2.7174392460815442     
   5.3099999999999994E-002    -3.3792369847198023     
   5.3400000000000003E-002    -3.9154414594979947     
   5.3699999999999998E-002    -4.3054531830670948     
   5.4000000000000006E-002    -4.5342583382550776     
   5.4300000000000001E-002    -4.5933598361336569     
   5.4599999999999996E-002    -4.4809260174444852     
   5.4900000000000004E-002    -4.2028335387066704     
   5.5199999999999999E-002    -3.7724509379118434     
   5.5499999999999994E-002    -3.2100526349848701     
   5.5800000000000002E-002    -2.5425106498795271     
   5.6099999999999997E-002    -1.8014796099073145     
   5.6400000000000006E-002    -1.0223824682297604     
   5.6700000000000000E-002   -0.24253297599018753     
   5.6999999999999995E-002    0.50107673381618389     
   5.7300000000000004E-002     1.1731141569801209     
   5.7599999999999998E-002     1.7422343401419285     
   5.7900000000000007E-002     2.1825824105023854     
   5.8200000000000002E-002     2.4748362775578352     
   5.8499999999999996E-002     2.6075528773022505     
   5.8800000000000005E-002     2.5775882000764705     
   5.9100000000000000E-002     2.3902821772612537     
   5.9400000000000008E-002     2.0596975932004233     
   5.9700000000000003E-002     1.6077373878802639     
   6.0000000000000012E-002     1.0634297480422308     
   6.0300000000000006E-002    0.46185558888955014     
   6.0600000000000001E-002   -0.15791695246258203     
   6.0900000000000010E-002   -0.75417918407487994     
   6.1200000000000004E-002    -1.2851502475321708     
   6.1500000000000013E-002    -1.7114635805638592     
   6.1800000000000008E-002    -1.9979650464344449     
   6.2100000000000002E-002    -2.1173313333499477     
   6.2399999999999997E-002    -2.0517510467885378     
   6.2700000000000006E-002    -1.7948182062755942     
   6.3000000000000000E-002    -1.3536408825526101     
   6.3300000000000009E-002   -0.74856702488056759     
   6.3600000000000004E-002    -1.3435312634963614E-002
   6.3899999999999998E-002    0.80599650900600595     
   6.4199999999999993E-002     1.6548722436442445     
   6.4500000000000002E-002     2.4719583038348776     
   6.4800000000000010E-002     3.1945785728218294     
   6.5100000000000005E-002     3.7634432692950042     
   6.5400000000000000E-002     4.1270860776059246     
   6.5700000000000008E-002     4.2470492627567786     
   6.5999999999999989E-002     4.1012703212917190     
   6.6299999999999998E-002     3.6868117857408134     
   6.6600000000000006E-002     3.0212274100042347     
   6.6900000000000001E-002     2.1413885140705329     
   6.7199999999999996E-002     1.1015083460428516     
   6.7500000000000004E-002    -3.0821787583076909E-002
   6.7800000000000013E-002    -1.1800895097113215     
   6.8099999999999994E-002    -2.2682777194827182     
   6.8400000000000002E-002    -3.2215026116881713     
   6.8700000000000011E-002    -3.9756441128476938     
   6.8999999999999992E-002    -4.4809701407319729     
   6.9300000000000000E-002    -4.7061496087013168     
   6.9600000000000009E-002    -4.6398994170008940     
   6.9900000000000004E-002    -4.2912367601578181     
   7.0199999999999999E-002    -3.6881517099839094     
   7.0500000000000007E-002    -2.8746926277283800     
   7.0800000000000016E-002    -1.9067969835853305     
   7.1099999999999997E-002   -0.84816245043918048     
   7.1400000000000005E-002    0.23511578770371738     
   7.1700000000000000E-002     1.2791352792215067     
   7.1999999999999995E-002     2.2260032063614839     
   7.2300000000000003E-002     3.0280873116137572     
   7.2600000000000012E-002     3.6497613357389165     
   7.2900000000000006E-002     4.0691451590270642     
   7.3200000000000001E-002     4.2789557770006006     
   7.3499999999999996E-002     4.2850195272692098     
   7.3800000000000004E-002     4.1062234677316480     
   7.4099999999999999E-002     3.7712792898321039     
   7.4400000000000008E-002     3.3162127821945235     
   7.4700000000000003E-002     2.7820395949139831     
   7.5000000000000011E-002     2.2101553064187707     
   7.5299999999999992E-002     1.6399624121077141     
   7.5600000000000001E-002     1.1052983201918916     
   7.5900000000000009E-002    0.63134753892348650     
   7.6200000000000004E-002    0.23323510438915537     
   7.6499999999999999E-002    -8.5530387932437446E-002
   7.6800000000000007E-002   -0.33316835427400271     
   7.7099999999999988E-002   -0.52793174118354258     
   7.7399999999999997E-002   -0.69695480838102475     
   7.7700000000000005E-002   -0.87242553431579617     
   7.8000000000000014E-002    -1.0873896220500074     
   7.8299999999999995E-002    -1.3723102736363497     
   7.8600000000000003E-002    -1.7502670776207514     
   7.8900000000000012E-002    -2.2336139878841146     
   7.9199999999999993E-002    -2.8210310781056509     
   7.9500000000000001E-002    -3.4954268419743344     
   7.9800000000000010E-002    -4.2255708294359167     
   8.0100000000000018E-002    -4.9661893242544748     
   8.0399999999999999E-002    -5.6613962693998294     
   8.0700000000000008E-002    -6.2500694672817652     
   8.1000000000000003E-002    -6.6695124826907053     
   8.1299999999999997E-002    -6.8626884186332573     
   8.1600000000000006E-002    -6.7829496743051259     
   8.1900000000000014E-002    -6.3983892538008007     
   8.2199999999999995E-002    -5.6966229199819383     
   8.2500000000000004E-002    -4.6854871359926378     
   8.2799999999999999E-002    -3.3944421531617066     
   8.3100000000000007E-002    -1.8727453337300659     
   8.3400000000000002E-002   -0.18606401327860544     
   8.3700000000000011E-002     1.5873812043803637     
   8.4000000000000005E-002     3.3621450677062956     
   8.4300000000000000E-002     5.0524264694767140     
   8.4599999999999995E-002     6.5767394293653183     
   8.4900000000000003E-002     7.8635027183140336     
   8.5199999999999998E-002     8.8563445375494272     
   8.5500000000000007E-002     9.5153045206243370     
   8.5800000000000001E-002     9.8202226158658767     
   8.6100000000000010E-002     9.7700996273038037     
   8.6399999999999991E-002     9.3809408077784529     
   8.6699999999999999E-002     8.6848970051826804     
   8.7000000000000008E-002     7.7250103707162694     
   8.7300000000000003E-002     6.5521929420676699     
   8.7599999999999997E-002     5.2217055387591653     
   8.7900000000000006E-002     3.7878897114014158     
   8.8200000000000014E-002     2.3030793253127775     
   8.8499999999999995E-002    0.81451642983350170     
   8.8800000000000004E-002   -0.63765997861435464     
   8.9100000000000013E-002    -2.0186375110668791     
   8.9399999999999993E-002    -3.2995716042401950     
   8.9700000000000002E-002    -4.4564246393614919     
   9.0000000000000011E-002    -5.4672827342928016     
   9.0299999999999991E-002    -6.3128676859109527     
   9.0600000000000000E-002    -6.9739808877744718     
   9.0900000000000009E-002    -7.4318013436929871     
   9.1200000000000017E-002    -7.6691535721385691     
   9.1499999999999998E-002    -7.6696973723582964     
   9.1800000000000007E-002    -7.4221997198619114     
   9.2100000000000001E-002    -6.9212255551354440     
   9.2399999999999996E-002    -6.1701314845319164     
   9.2700000000000005E-002    -5.1838983332921789     
   9.3000000000000013E-002    -3.9892727456121744     
   9.3300000000000008E-002    -2.6276095690684418     
   9.3600000000000003E-002    -1.1527242439943297     
   9.3899999999999997E-002    0.36994432634257191     
   9.4200000000000006E-002     1.8661753120023366     
   9.4500000000000001E-002     3.2576910999985156     
   9.4800000000000009E-002     4.4655577162528566     
   9.5100000000000004E-002     5.4175972416426585     
   9.5399999999999999E-002     6.0519342012028421     
   9.5699999999999993E-002     6.3225840503572703     
   9.6000000000000002E-002     6.2044884065333257     
   9.6300000000000011E-002     5.6944025557071507     
   9.6600000000000005E-002     4.8150004805831070     
   9.6900000000000000E-002     3.6123040758353966     
   9.7200000000000009E-002     2.1541366905819124     
   9.7499999999999989E-002    0.52804569846516114     
   9.7799999999999998E-002    -1.1669160330661326     
   9.8100000000000007E-002    -2.8229153094694994     
   9.8400000000000015E-002    -4.3326592922125782     
   9.8699999999999996E-002    -5.5965705691729957     
   9.9000000000000005E-002    -6.5266473453246512     
   9.9300000000000013E-002    -7.0569095195290759     
   9.9599999999999994E-002    -7.1444097902387922     
   9.9900000000000003E-002    -6.7741871961979676     
  0.10020000000000001         -5.9619734521319216     
  0.10049999999999999         -4.7500318206868553     
  0.10080000000000000         -3.2085283611672000     
  0.10110000000000001         -1.4287988694412390     
  0.10140000000000000         0.48239639683640467     
  0.10170000000000000          2.4087983144543168     
  0.10200000000000001          4.2342368444243395     
  0.10230000000000002          5.8494934940582244     
  0.10260000000000000          7.1601038502347851     
  0.10290000000000001          8.0935489814613888     
  0.10320000000000000          8.6027233739420979     
  0.10350000000000001          8.6699164618332158     
  0.10380000000000000          8.3077565419761541     
  0.10410000000000001          7.5563731651500472     
  0.10440000000000001          6.4809902331187237     
  0.10470000000000000          5.1656452557008414     
  0.10500000000000000          3.7054941661716567     
  0.10530000000000000          2.2011175264502008     
  0.10560000000000000         0.74760082296691355     
  0.10590000000000001        -0.57098604345499993     
  0.10620000000000000         -1.6881396719414328     
  0.10650000000000001         -2.5611196831265590     
  0.10679999999999999         -3.1703644949897116     
  0.10710000000000000         -3.5234704061335451     
  0.10740000000000001         -3.6499477819601434     
  0.10770000000000000         -3.5980523072398438     
  0.10800000000000000         -3.4300443667695095     
  0.10830000000000001         -3.2120686759148649     
  0.10859999999999999         -3.0098874708592307     
  0.10890000000000000         -2.8790683704014168     
  0.10920000000000001         -2.8601275081643358     
  0.10950000000000001         -2.9746175958684793     
  0.10979999999999999         -3.2211361368975555     
  0.11009999999999999         -3.5780966375340046     
  0.11040000000000001         -4.0044377045216892     
  0.11070000000000001         -4.4457184139479047     
  0.11100000000000000         -4.8403361670977265     
  0.11130000000000000         -5.1260489280276493     
  0.11160000000000002         -5.2485939560629014     
  0.11190000000000001         -5.1665440950350421     
  0.11220000000000001         -4.8571530132806799     
  0.11250000000000000         -4.3179888342108494     
  0.11280000000000000         -3.5675923133940537     
  0.11309999999999999         -2.6433118796646635     
  0.11340000000000001         -1.5958118097611762     
  0.11369999999999998        -0.48525122038302648     
  0.11400000000000000         0.62742119197083857     
  0.11430000000000000          1.6856125601646936     
  0.11460000000000002          2.6417968867930401     
  0.11489999999999999          3.4636460833400893     
  0.11520000000000001          4.1339537816830720     
  0.11550000000000001          4.6511352601993776     
  0.11580000000000000          5.0284761891034018     
  0.11609999999999999          5.2880481271087723     
  0.11640000000000002          5.4587695274617545     
  0.11670000000000001          5.5701708216648935     
  0.11700000000000001          5.6477964419384987     
  0.11730000000000000          5.7120270871099521     
  0.11760000000000000          5.7720540839642362     
  0.11789999999999999          5.8284388830728506     
  0.11820000000000001          5.8729020910184815     
  0.11850000000000001          5.8884428241675373     
  0.11880000000000000          5.8552206862195808     
  0.11910000000000000          5.7508712857649957     
  0.11940000000000002          5.5545579170764761     
  0.11970000000000001          5.2510071970286711     
  0.12000000000000001          4.8294186530289558     
  0.12030000000000000          4.2872455708741546     
  0.12060000000000000          3.6288586735998987     
  0.12089999999999999          2.8631543880171266     
  0.12119999999999999          2.0060420495189106     
  0.12150000000000001          1.0744402168740756     
  0.12180000000000001          8.7031600697027756E-002
  0.12210000000000000        -0.93635425736327860     
  0.12239999999999999         -1.9788928907221024     
  0.12270000000000002         -3.0234394408218881     
  0.12300000000000001         -4.0545861070893512     
  0.12330000000000001         -5.0573677021880199     
  0.12360000000000000         -6.0151971883872024     
  0.12390000000000000         -6.9125801449183797     
  0.12419999999999999         -7.7303939752529693     
  0.12450000000000001         -8.4496944819277005     
  0.12480000000000001         -9.0511629748324012     
  0.12509999999999999         -9.5149839081691052     
  0.12540000000000001         -9.8252916080056263     
  0.12570000000000003         -9.9682774640087519     
  0.12600000000000000         -9.9359052766071230     
  0.12630000000000002         -9.7254693967381094     
  0.12659999999999999         -9.3384474581915295     
  0.12690000000000001         -8.7826141373914375     
  0.12719999999999998         -8.0680361376905694     
  0.12750000000000000         -7.2070299987399657     
  0.12780000000000002         -6.2142291000906669     
  0.12809999999999999         -5.1029547085726774     
  0.12840000000000001         -3.8869701144788475     
  0.12869999999999998         -2.5818518799826560     
  0.12900000000000000         -1.2036294282784645     
  0.12930000000000003         0.22709990166890770     
  0.12959999999999999          1.6860345792267639     
  0.12990000000000002          3.1441954613794150     
  0.13019999999999998          4.5674873002171372     
  0.13050000000000000          5.9198128416873983     
  0.13080000000000003          7.1649377595540180     
  0.13109999999999999          8.2703511283824191     
  0.13140000000000002          9.2124677871562106     
  0.13169999999999998          9.9777560817004716     
  0.13200000000000001          10.565497556919613     
  0.13229999999999997          10.989751605261407     
  0.13260000000000000          11.273375508272675     
  0.13290000000000002          11.448055693755434     
  0.13319999999999999          11.546122048632842     
  0.13350000000000001          11.592699939588883     
  0.13380000000000003          11.603486208044645     
  0.13410000000000000          11.574466972553623     
  0.13440000000000002          11.483887971641140     
  0.13469999999999999          11.291127850377777     
  0.13500000000000001          10.938181109867246     
  0.13529999999999998          10.362487884408612     
  0.13560000000000000          9.5000713316037242     
  0.13590000000000002          8.2985310338852862     
  0.13619999999999999          6.7300792285794016     
  0.13650000000000001          4.7923339954669864     
  0.13680000000000003          2.5201240998886654     
  0.13710000000000000         -1.7887714911443364E-002
  0.13740000000000002         -2.7250471255044664     
  0.13769999999999999         -5.4802361919236713     
  0.13800000000000001         -8.1567763139312550     
  0.13829999999999998         -10.631999113211775     
  0.13860000000000000         -12.803117453417162     
  0.13890000000000002         -14.602425471723523     
  0.13919999999999999         -16.001982717727408     
  0.13950000000000001         -17.020221965823289     
  0.13979999999999998         -17.718489155161905     
  0.14010000000000000         -18.189354377800289     
  0.14040000000000002         -18.544377547523862     
  0.14069999999999999         -18.891911470485223     
  0.14100000000000001         -19.316292977523069     
  0.14130000000000004         -19.859429765649779     
  0.14160000000000000         -20.500822098288872     
  0.14189999999999997         -21.150466947866025     
  0.14219999999999999         -21.648078726642851     
  0.14250000000000002         -21.770660567085251     
  0.14279999999999998         -21.255891711936542     
  0.14310000000000000         -19.826881426856730     
  0.14339999999999997         -17.227543641808367     
  0.14369999999999999         -13.262774950048341     
  0.14400000000000002         -7.8285588484664732     
  0.14429999999999998        -0.94499399995424316     
  0.14460000000000001          7.2255006640967387     
  0.14490000000000003          16.377421221710041     
  0.14520000000000000          26.064137396973688     
  0.14550000000000002          35.731945166470055     
  0.14579999999999999          44.753124546336480     
  0.14610000000000001          52.474623161431602     
  0.14640000000000003          58.279138671807921     
  0.14670000000000000          61.630243823417942     
  0.14699999999999996          62.131848289809277     
  0.14729999999999999          59.561806401976874     
  0.14760000000000001          53.899030271662262     
  0.14789999999999998          45.333654760202947     
  0.14820000000000000          34.255733662000026     