  -1.4999999999999999E-002     0.0000000000000000     
  -1.4700000000000000E-002     0.0000000000000000     
  -1.4400000000000000E-002     0.0000000000000000     
  -1.4100000000000000E-002     0.0000000000000000     
  -1.3800000000000000E-002     0.0000000000000000     
  -1.3500000000000000E-002     0.0000000000000000     
  -1.3200000000000000E-002     0.0000000000000000     
  -1.2899999999999998E-002     0.0000000000000000     
  -1.2600000000000000E-002     0.0000000000000000     
  -1.2299999999999998E-002     0.0000000000000000     
  -1.2000000000000000E-002     0.0000000000000000     
  -1.1699999999999999E-002     0.0000000000000000     
  -1.1399999999999999E-002     0.0000000000000000     
  -1.1099999999999999E-002     0.0000000000000000     
  -1.0799999999999999E-002     0.0000000000000000     
  -1.0499999999999999E-002     0.0000000000000000     
  -1.0199999999999999E-002     0.0000000000000000     
  -9.8999999999999991E-003     0.0000000000000000     
  -9.5999999999999992E-003     0.0000000000000000     
  -9.2999999999999992E-003     0.0000000000000000     
  -8.9999999999999993E-003     0.0000000000000000     
  -8.6999999999999994E-003     0.0000000000000000     
  -8.3999999999999995E-003     0.0000000000000000     
  -8.0999999999999996E-003     0.0000000000000000     
  -7.7999999999999988E-003     0.0000000000000000     
  -7.4999999999999997E-003     0.0000000000000000     
  -7.1999999999999998E-003     0.0000000000000000     
  -6.8999999999999981E-003     0.0000000000000000     
  -6.5999999999999982E-003     0.0000000000000000     
  -6.3000000000000000E-003     0.0000000000000000     
  -6.0000000000000001E-003     0.0000000000000000     
  -5.6999999999999985E-003     0.0000000000000000     
  -5.3999999999999986E-003     0.0000000000000000     
  -5.1000000000000004E-003     0.0000000000000000     
  -4.7999999999999987E-003     0.0000000000000000     
  -4.5000000000000005E-003     0.0000000000000000     
  -4.1999999999999989E-003     0.0000000000000000     
  -3.8999999999999990E-003     0.0000000000000000     
  -3.5999999999999990E-003     0.0000000000000000     
  -3.2999999999999991E-003     0.0000000000000000     
  -2.9999999999999992E-003     0.0000000000000000     
  -2.6999999999999993E-003     0.0000000000000000     
  -2.3999999999999994E-003     0.0000000000000000     
  -2.0999999999999977E-003     0.0000000000000000     
  -1.7999999999999995E-003     0.0000000000000000     
  -1.4999999999999979E-003     0.0000000000000000     
  -1.1999999999999997E-003     0.0000000000000000     
  -8.9999999999999976E-004     0.0000000000000000     
  -5.9999999999999810E-004     0.0000000000000000     
  -2.9999999999999992E-004     0.0000000000000000     
   0.0000000000000000          0.0000000000000000     
   3.0000000000000165E-004     0.0000000000000000     
   5.9999999999999984E-004     0.0000000000000000     
   9.0000000000000149E-004     0.0000000000000000     
   1.2000000000000031E-003     0.0000000000000000     
   1.5000000000000013E-003     0.0000000000000000     
   1.8000000000000030E-003     0.0000000000000000     
   2.1000000000000012E-003     0.0000000000000000     
   2.3999999999999994E-003     0.0000000000000000     
   2.7000000000000010E-003     0.0000000000000000     
   2.9999999999999992E-003     0.0000000000000000     
   3.3000000000000008E-003     0.0000000000000000     
   3.6000000000000025E-003     0.0000000000000000     
   3.9000000000000007E-003     0.0000000000000000     
   4.2000000000000023E-003     0.0000000000000000     
   4.5000000000000005E-003     0.0000000000000000     
   4.7999999999999987E-003     0.0000000000000000     
   5.1000000000000004E-003    -2.5155125857723891E-044
   5.4000000000000020E-003    -3.2264351450495393E-043
   5.7000000000000037E-003    -2.0537607911453792E-037
   5.9999999999999984E-003    -1.4562533638808639E-036
   6.3000000000000000E-003     2.1944586139758769E-036
   6.6000000000000017E-003     1.0282853395499613E-034
   6.9000000000000034E-003    -4.2576903023928984E-037
   7.2000000000000015E-003    -1.9487915139910618E-033
   7.5000000000000032E-003     2.4359771856434301E-033
   7.8000000000000014E-003     2.0287657486548550E-032
   8.0999999999999996E-003    -1.9300191346189782E-031
   8.4000000000000012E-003     4.7849978334916146E-031
   8.7000000000000029E-003     4.0643302229341583E-030
   9.0000000000000011E-003    -3.3477756816801696E-029
   9.2999999999999992E-003     5.8264782399703393E-029
   9.6000000000000009E-003     4.6077130298950130E-028
   9.8999999999999991E-003    -3.5991516963737810E-027
   1.0200000000000001E-002     1.0600132939966724E-026
   1.0500000000000002E-002     7.1352151044965640E-027
   1.0800000000000004E-002    -2.2124243108050592E-025
   1.1099999999999999E-002     1.0792215178702309E-024
   1.1400000000000000E-002    -2.3999236759178607E-024
   1.1700000000000002E-002    -2.2960750201427443E-024
   1.2000000000000004E-002     4.0234476844165826E-023
   1.2300000000000002E-002    -1.6243412568357402E-022
   1.2600000000000000E-002     3.1452951820195210E-022
   1.2900000000000002E-002     2.7323768710370175E-022
   1.3200000000000000E-002    -4.7652857440441815E-021
   1.3500000000000002E-002     2.1547468460551430E-020
   1.3800000000000003E-002    -6.4416765015284123E-020
   1.4100000000000001E-002     1.3200442370683142E-019
   1.4400000000000000E-002    -1.0583068268006412E-019
   1.4700000000000001E-002    -6.0905282190461773E-019
   1.4999999999999999E-002     4.2010366114244236E-018
   1.5300000000000001E-002    -1.7859629479038102E-017
   1.5600000000000003E-002     6.4745093853257073E-017
   1.5899999999999997E-002    -2.2196119867308842E-016
   1.6199999999999999E-002     7.5616515357951957E-016
   1.6500000000000001E-002    -2.5872159307351543E-015
   1.6800000000000002E-002     8.6643608493001085E-015
   1.7100000000000004E-002    -2.6862843271764520E-014
   1.7400000000000006E-002     7.0052639974058890E-014
   1.7700000000000000E-002    -1.1869580331734685E-013
   1.8000000000000002E-002    -9.3472852972453547E-014
   1.8300000000000004E-002     1.7730930917056541E-012
   1.8600000000000005E-002    -8.0603707619626537E-012
   1.8900000000000000E-002     2.1190148066636195E-011
   1.9200000000000002E-002    -2.1446754544140776E-011
   1.9500000000000003E-002    -8.2510266731761044E-011
   1.9799999999999998E-002     4.2984526060079803E-010
   2.0100000000000000E-002    -7.3945556426099161E-010
   2.0400000000000001E-002    -6.3160072272250686E-010
   2.0700000000000003E-002     5.3508860786621419E-009
   2.0999999999999998E-002    -6.1873108743665348E-009
   2.1299999999999999E-002    -1.5432897984371171E-008
   2.1600000000000001E-002     3.9692966289604574E-008
   2.1900000000000003E-002     3.1806655995400053E-008
   2.2200000000000004E-002    -1.5330338636064143E-007
   2.2500000000000006E-002    -1.2034927138789166E-007
   2.2800000000000001E-002     4.1741889719924424E-007
   2.3100000000000002E-002     5.0051851680546825E-007
   2.3400000000000004E-002    -8.5575343400982112E-007
   2.3699999999999999E-002    -1.7197757050633281E-006
   2.4000000000000000E-002     1.5386350255770370E-006
   2.4300000000000002E-002     8.5370897451916094E-006
   2.4599999999999997E-002     1.4417230746072067E-005
   2.4900000000000005E-002     1.7984532762378148E-005
   2.5200000000000000E-002     2.6545661697966091E-005
   2.5499999999999995E-002     4.8321724358931567E-005
   2.5800000000000003E-002     8.3039858481668216E-005
   2.6099999999999998E-002     1.2710583471186839E-004
   2.6400000000000007E-002     1.8760904430633921E-004
   2.6700000000000002E-002     2.8370837537784212E-004
   2.6999999999999996E-002     4.3353779680804035E-004
   2.7300000000000005E-002     6.4851579080744731E-004
   2.7600000000000000E-002     9.4637014245584224E-004
   2.7900000000000008E-002     1.3642979891521024E-003
   2.8200000000000003E-002     1.9517960367233195E-003
   2.8499999999999998E-002     2.7567710523835427E-003
   2.8800000000000006E-002     3.8297144587002047E-003
   2.9100000000000001E-002     5.2395018665901908E-003
   2.9400000000000003E-002     7.0729928393554048E-003
   2.9700000000000004E-002     9.4159810443280399E-003
   3.0000000000000006E-002     1.2342652847321179E-002
   3.0300000000000001E-002     1.5922178976800642E-002
   3.0600000000000002E-002     2.0218872845761945E-002
   3.0900000000000004E-002     2.5267585479218369E-002
   3.1199999999999999E-002     3.1047244781545323E-002
   3.1500000000000007E-002     3.7470079200540914E-002
   3.1800000000000002E-002     4.4380343673466618E-002
   3.2099999999999997E-002     5.1539491109093810E-002
   3.2400000000000005E-002     5.8598867875897021E-002
   3.2700000000000000E-002     6.5090879277624192E-002
   3.3000000000000002E-002     7.0452511028200715E-002
   3.3300000000000003E-002     7.4042551266479670E-002
   3.3599999999999998E-002     7.5168528130384646E-002
   3.3900000000000000E-002     7.3110514364897947E-002
   3.4200000000000001E-002     6.7200706967069271E-002
   3.4500000000000003E-002     5.6887368065322186E-002
   3.4799999999999998E-002     4.1801746038305963E-002
   3.5099999999999999E-002     2.1843105265132685E-002
   3.5400000000000001E-002    -2.7774081115044241E-003
   3.5699999999999996E-002    -3.1484782084233671E-002
   3.6000000000000004E-002    -6.3295136343470740E-002
   3.6299999999999999E-002    -9.6841412801755428E-002
   3.6600000000000008E-002   -0.13044638521995636     
   3.6900000000000002E-002   -0.16218781127350884     
   3.7199999999999997E-002   -0.19001418104418252     
   3.7500000000000006E-002   -0.21190799649319483     
   3.7800000000000000E-002   -0.22606728994933617     
   3.8100000000000009E-002   -0.23106888123218858     
   3.8400000000000004E-002   -0.22602191922472573     
   3.8699999999999998E-002   -0.21069391590494227     
   3.9000000000000007E-002   -0.18558921586166635     
   3.9300000000000002E-002   -0.15194127750732761     
   3.9600000000000003E-002   -0.11175725735228402     
   3.9900000000000005E-002    -6.7580194944961425E-002
   4.0200000000000000E-002    -2.2399885301795156E-002
   4.0500000000000001E-002     2.0546610390456931E-002
   4.0800000000000003E-002     5.8082312389850996E-002
   4.1100000000000005E-002     8.7278792286674373E-002
   4.1399999999999999E-002    0.10572359297587876     
   4.1700000000000008E-002    0.11166520207519713     
   4.2000000000000003E-002    0.10422045744283064     
   4.2299999999999997E-002     8.3477275801974143E-002
   4.2600000000000006E-002     5.0418004915015725E-002
   4.2900000000000001E-002     6.9649084451208661E-003
   4.3200000000000002E-002    -4.4142994927413276E-002
   4.3500000000000004E-002    -9.9513976536123469E-002
   4.3799999999999999E-002   -0.15527690007475731     
   4.4100000000000000E-002   -0.20742007120055819     
   4.4400000000000002E-002   -0.25189464324204452     
   4.4700000000000004E-002   -0.28494869749703555     
   4.4999999999999998E-002   -0.30338322282569047     
   4.5300000000000000E-002   -0.30467995273744036     
   4.5600000000000002E-002   -0.28739448779885002     
   4.5899999999999996E-002   -0.25109710825219550     
   4.6200000000000005E-002   -0.19647898951294909     
   4.6500000000000000E-002   -0.12556303864708218     
   4.6799999999999994E-002    -4.1464689798487123E-002
   4.7100000000000003E-002     5.1718714576967036E-002
   4.7399999999999998E-002    0.14905670065856141     
   4.7700000000000006E-002    0.24511204336418504     
   4.8000000000000001E-002    0.33429231829254430     
   4.8300000000000010E-002    0.41119595884176463     
   4.8600000000000004E-002    0.47101726602123206     
   4.8899999999999999E-002    0.50992017430531678     
   4.9200000000000008E-002    0.52532898818688123     
   4.9500000000000002E-002    0.51623784946081153     
   4.9800000000000011E-002    0.48322686033484175     
   5.0100000000000006E-002    0.42859306459028590     
   5.0400000000000000E-002    0.35631998960396261     
   5.0700000000000009E-002    0.27164378418770280     
   5.1000000000000004E-002    0.18088856071359197     
   5.1299999999999998E-002     9.1083204314591507E-002
   5.1600000000000007E-002     9.3725386157923127E-003
   5.1900000000000002E-002    -5.7348501522716193E-002
   5.2200000000000010E-002   -0.10301982622876227     
   5.2500000000000005E-002   -0.12283340823638256     
   5.2800000000000000E-002   -0.11354356978378245     
   5.3099999999999994E-002    -7.3889687540593635E-002
   5.3400000000000003E-002    -4.6246422093274503E-003
   5.3699999999999998E-002     9.1377860999642818E-002
   5.4000000000000006E-002    0.20915001480986153     
   5.4300000000000001E-002    0.34200644263837665     
   5.4599999999999996E-002    0.48182212993822043     
   5.4900000000000004E-002    0.61942869033262882     
   5.5199999999999999E-002    0.74524491565077244     
   5.5499999999999994E-002    0.84978997195073391     
   5.5800000000000002E-002    0.92432528192926477     
   5.6099999999999997E-002    0.96148448635968797     
   5.6400000000000006E-002    0.95562338303915717     
   5.6700000000000000E-002    0.90334975242922266     
   5.6999999999999995E-002    0.80378931357483896     
   5.7300000000000004E-002    0.65867870737688794     
   5.7599999999999998E-002    0.47235768836002390     
   5.7900000000000007E-002    0.25145184919441965     
   5.8200000000000002E-002     4.5517949497656451E-003
   5.8499999999999996E-002   -0.25821569371983694     
   5.8800000000000005E-002   -0.52580237068228353     
   5.9100000000000000E-002   -0.78695451769168778     
   5.9400000000000008E-002    -1.0307767335334841     
   5.9700000000000003E-002    -1.2472876244029623     
   6.0000000000000012E-002    -1.4278484507566251     
   6.0300000000000006E-002    -1.5656162417585766     
   6.0600000000000001E-002    -1.6558767468422606     
   6.0900000000000010E-002    -1.6959342863492859     
   6.1200000000000004E-002    -1.6850533390025462     
   6.1500000000000013E-002    -1.6246132754988802     
   6.1800000000000008E-002    -1.5176533366835649     
   6.2100000000000002E-002    -1.3686711698542076     
   6.2399999999999997E-002    -1.1833441174458736     
   6.2700000000000006E-002   -0.96823763109805272     
   6.3000000000000000E-002   -0.73074364041036932     
   6.3300000000000009E-002   -0.47861256712350830     
   6.3600000000000004E-002   -0.21988312575048000     
   6.3899999999999998E-002     3.7168444730305970E-002
   6.4199999999999993E-002    0.28438743921174936     
   6.4500000000000002E-002    0.51370847016270560     
   6.4800000000000010E-002    0.71750866985656936     
   6.5100000000000005E-002    0.88898235019256289     
   6.5400000000000000E-002     1.0220359496118370     
   6.5700000000000008E-002     1.1119291704102876     
   6.5999999999999989E-002     1.1556467924357461     
   6.6299999999999998E-002     1.1519596487392345     
   6.6600000000000006E-002     1.1018764883244088     
   6.6900000000000001E-002     1.0086444530053746     
   6.7199999999999996E-002    0.87774132884629508     
   6.7500000000000004E-002    0.71690040119040943     
   6.7800000000000013E-002    0.53565835351782387     
   6.8099999999999994E-002    0.34474285955824080     
   6.8400000000000002E-002    0.15564232706463824     
   6.8700000000000011E-002    -2.0261867483832775E-002
   6.8999999999999992E-002   -0.17250800257356727     
   6.9300000000000000E-002   -0.29214963344238809     
   6.9600000000000009E-002   -0.37275317258496721     
   6.9900000000000004E-002   -0.41092342022509137     
   7.0199999999999999E-002   -0.40645664769992984     
   7.0500000000000007E-002   -0.36275955844123930     
   7.0800000000000016E-002   -0.28652828723344004     
   7.1099999999999997E-002   -0.18745627781486041     
   7.1400000000000005E-002    -7.7831645979724140E-002
   7.1700000000000000E-002     2.8978197560761448E-002
   7.1999999999999995E-002    0.11910561013868758     
   7.2300000000000003E-002    0.17940409823103876     
   7.2600000000000012E-002    0.19896662654427516     
   7.2900000000000006E-002    0.16976997779617137     
   7.3200000000000001E-002     8.7939924562808552E-002
   7.3499999999999996E-002    -4.5580133270274090E-002
   7.3800000000000004E-002   -0.22506313561916003     
   7.4099999999999999E-002   -0.43983750425277612     
   7.4400000000000008E-002   -0.67503975572015384     
   7.4700000000000003E-002   -0.91249726840687007     
   7.5000000000000011E-002    -1.1319788551504670     
   7.5299999999999992E-002    -1.3130762433319330     
   7.5600000000000001E-002    -1.4364999394972942     
   7.5900000000000009E-002    -1.4859355564283228     
   7.6200000000000004E-002    -1.4496711390630945     
   7.6499999999999999E-002    -1.3214726375830685     
   7.6800000000000007E-002    -1.1013197863712441     
   7.7099999999999988E-002   -0.79591107444435161     
   7.7399999999999997E-002   -0.41800997204738172     
   7.7700000000000005E-002     1.4449906438771275E-002
   7.8000000000000014E-002    0.47927428753779161     
   7.8299999999999995E-002    0.95210806538340698     
   7.8600000000000003E-002     1.4077534437060817     
   7.8900000000000012E-002     1.8220486369437570     
   7.9199999999999993E-002     2.1740088167299727     
   7.9500000000000001E-002     2.4463362384911598     
   7.9800000000000010E-002     2.6267778563163930     
   8.0100000000000018E-002     2.7089130578503400     
   8.0399999999999999E-002     2.6914140900595220     
   8.0700000000000008E-002     2.5783984416839028     
   8.1000000000000003E-002     2.3783924378073027     
   8.1299999999999997E-002     2.1028430311602944     
   8.1600000000000006E-002     1.7659776117484807     
   8.1900000000000014E-002     1.3830255237134124     
   8.2199999999999995E-002    0.96906185441953019     
   8.2500000000000004E-002    0.53881562655382287     
   8.2799999999999999E-002    0.10549284501539309     
   8.3100000000000007E-002   -0.31904951721480640     
   8.3400000000000002E-002   -0.72438225690849145     
   8.3700000000000011E-002    -1.1021692472817455     
   8.4000000000000005E-002    -1.4446541956547023     
   8.4300000000000000E-002    -1.7450393116414507     
   8.4599999999999995E-002    -1.9975180298996140     
   8.4900000000000003E-002    -2.1960093654772970     
   8.5199999999999998E-002    -2.3352186377178898     
   8.5500000000000007E-002    -2.4104017936094508     
   8.5800000000000001E-002    -2.4168553114699081     
   8.6100000000000010E-002    -2.3514952468131889     
   8.6399999999999991E-002    -2.2128140787963324     
   8.6699999999999999E-002    -2.0009179036169602     
   8.7000000000000008E-002    -1.7190560085805098     
   8.7300000000000003E-002    -1.3730578469953498     
   8.7599999999999997E-002   -0.97187842048688622     
   8.7900000000000006E-002   -0.52813233647198632     
   8.8200000000000014E-002    -5.6655872630308371E-002
   8.8499999999999995E-002    0.42496222548116713     
   8.8800000000000004E-002    0.89720681260910140     
   8.9100000000000013E-002     1.3404942425978024     
   8.9399999999999993E-002     1.7350994014887107     
   8.9700000000000002E-002     2.0629641681254283     
   9.0000000000000011E-002     2.3090972589742602     
   9.0299999999999991E-002     2.4614765363735067     
   9.0600000000000000E-002     2.5131900070839390     
   9.0900000000000009E-002     2.4624650286615579     
   9.1200000000000017E-002     2.3117980819268813     
   9.1499999999999998E-002     2.0693387904700749     
   9.1800000000000007E-002     1.7475143647920170     
   9.2100000000000001E-002     1.3616533312607682     
   9.2399999999999996E-002    0.92996067667242721     
   9.2700000000000005E-002    0.47126854806960150     
   9.3000000000000013E-002     4.1638939461404335E-003
   9.3300000000000008E-002   -0.45341978312535397     
   9.3600000000000003E-002   -0.88631627494070397     
   9.3899999999999997E-002    -1.2820700137479757     
   9.4200000000000006E-002    -1.6307544421357643     
   9.4500000000000001E-002    -1.9256275594959285     
   9.4800000000000009E-002    -2.1622597871115765     
   9.5100000000000004E-002    -2.3382365408981474     
   9.5399999999999999E-002    -2.4528784470508884     
   9.5699999999999993E-002    -2.5057787636097317     
   9.6000000000000002E-002    -2.4971382390365218     
   9.6300000000000011E-002    -2.4277350714529478     
   9.6600000000000005E-002    -2.2979752877234771     
   9.6900000000000000E-002    -2.1089899454323757     
   9.7200000000000009E-002    -1.8628728363681175     
   9.7499999999999989E-002    -1.5627633370155316     
   9.7799999999999998E-002    -1.2142032484989558     
   9.8100000000000007E-002   -0.82488824545618267     
   9.8400000000000015E-002   -0.40494622967903959     
   9.8699999999999996E-002     3.2353032050836596E-002
   9.9000000000000005E-002    0.47215893832713485     
   9.9300000000000013E-002    0.89756592827831760     
   9.9599999999999994E-002     1.2904622219012436     
   9.9900000000000003E-002     1.6338299182328697     
  0.10020000000000001          1.9115676569864939     
  0.10049999999999999          2.1101386272466578     
  0.10080000000000000          2.2198900950007605     
  0.10110000000000001          2.2349958253121041     
  0.10140000000000000          2.1551442047363549     
  0.10170000000000000          1.9851026507904883     
  0.10200000000000001          1.7341231153724854     
  0.10230000000000002          1.4166510221093578     
  0.10260000000000000          1.0505323588873170     
  0.10290000000000001         0.65620984965133833     
  0.10320000000000000         0.25619247288784602     
  0.10350000000000001        -0.12736979149339897     
  0.10380000000000000        -0.47304013310682486     
  0.10410000000000001        -0.76126852662244870     
  0.10440000000000001        -0.97648033775529908     
  0.10470000000000000         -1.1068826681881478     
  0.10500000000000000         -1.1453007278524174     
  0.10530000000000000         -1.0901583310701413     
  0.10560000000000000        -0.94476967465595008     
  0.10590000000000001        -0.71780729357725892     
  0.10620000000000000        -0.42251462419299229     
  0.10650000000000001         -7.5626735724478811E-002
  0.10679999999999999         0.30233032818564892     
  0.10710000000000000         0.68893710769777150     
  0.10740000000000001          1.0611847422786007     
  0.10770000000000000          1.3954669019320980     
  0.10800000000000000          1.6699379478313177     
  0.10830000000000001          1.8651578249410796     
  0.10859999999999999          1.9644077879405200     
  0.10890000000000000          1.9562004716219390     
  0.10920000000000001          1.8338663543005043     
  0.10950000000000001          1.5962438603126703     
  0.10979999999999999          1.2489563297459183     
  0.11009999999999999         0.80349327280264682     
  0.11040000000000001         0.27792219805858476     
  0.11070000000000001        -0.30356754185687285     
  0.11100000000000000        -0.91244886598968977     
  0.11130000000000000         -1.5155277093642003     
  0.11160000000000002         -2.0774505007606852     
  0.11190000000000001         -2.5628774075539975     
  0.11220000000000001         -2.9373159368764701     
  0.11250000000000000         -3.1706151980116668     
  0.11280000000000000         -3.2391626911778304     
  0.11309999999999999         -3.1273465290888240     
  0.11340000000000001         -2.8305690473360809     
  0.11369999999999998         -2.3558306918237046     
  0.11400000000000000         -1.7219589007811906     
  0.11430000000000000        -0.96083095317049882     
  0.11460000000000002        -0.11475146909036668     
  0.11489999999999999         0.76541439293067492     
  0.11520000000000001          1.6225005183951684     
  0.11550000000000001          2.3985755284583390     
  0.11580000000000000          3.0379345311675947     
  0.11609999999999999          3.4916853858766643     
  0.11640000000000002          3.7232060446616053     
  0.11670000000000001          3.7102468086140314     
  0.11700000000000001          3.4481701976974466     
  0.11730000000000000          2.9513919524551722     
  0.11760000000000000          2.2517395226661288     
  0.11789999999999999          1.3981379502658413     
  0.11820000000000001         0.45197820125336757     
  0.11850000000000001        -0.51818010743166820     
  0.11880000000000000         -1.4405370717184627     
  0.11910000000000000         -2.2471701887661211     
  0.11940000000000002         -2.8796505748733958     
  0.11970000000000001         -3.2931480268964659     
  0.12000000000000001         -3.4612438585865393     
  0.12030000000000000         -3.3772544816386478     
  0.12060000000000000         -3.0541896825384098     
  0.12089999999999999         -2.5243377737896648     
  0.12119999999999999         -1.8351945971287935     
  0.12150000000000001         -1.0455423722479551     
  0.12180000000000001        -0.22020429418257201     
  0.12210000000000000         0.57674537395944125     
  0.12239999999999999          1.2856319966433110     
  0.12270000000000002          1.8562565868297383     
  0.12300000000000001          2.2531905008664923     
  0.12330000000000001          2.4559848153944763     
  0.12360000000000000          2.4604666089586358     
  0.12390000000000000          2.2784387930253955     
  0.12419999999999999          1.9344696868454727     
  0.12450000000000001          1.4641533959392903     
  0.12480000000000001         0.90960399932351854     
  0.12509999999999999         0.31445665717181182     
  0.12540000000000001        -0.27788965394533538     
  0.12570000000000003        -0.82859875244333014     
  0.12600000000000000         -1.3060217038792226     
  0.12630000000000002         -1.6862942088673494     
  0.12659999999999999         -1.9550033870106833     
  0.12690000000000001         -2.1056671138501843     
  0.12719999999999998         -2.1384510905527585     
  0.12750000000000000         -2.0603494455541278     
  0.12780000000000002         -1.8820780216380586     
  0.12809999999999999         -1.6167231386373533     
  0.12840000000000001         -1.2796108204492702     
  0.12869999999999998        -0.88618111484728312     
  0.12900000000000000        -0.45305325793687545     
  0.12930000000000003          2.2354185158302434E-003
  0.12959999999999999         0.46209169585185400     
  0.12990000000000002         0.90690738738970078     
  0.13019999999999998          1.3157151346289930     
  0.13050000000000000          1.6672649879162109     
  0.13080000000000003          1.9397932657290100     
  0.13109999999999999          2.1137805206010225     
  0.13140000000000002          2.1733131477158496     
  0.13169999999999998          2.1075072209370065     
  0.13200000000000001          1.9143415475628862     
  0.13229999999999997          1.6009754806700953     
  0.13260000000000000          1.1848947587198568     
  0.13290000000000002         0.69493837397050229     
  0.13319999999999999         0.16818257629505581     
  0.13350000000000001        -0.35159491530589526     
  0.13380000000000003        -0.81637446882275100     
  0.13410000000000000         -1.1807309825828658     
  0.13440000000000002         -1.4049519686540426     
  0.13469999999999999         -1.4595526790500628     
  0.13500000000000001         -1.3303435133970061     
  0.13529999999999998         -1.0198382387184215     
  0.13560000000000000        -0.54970421668259906     
  0.13590000000000002          3.9944973194084646E-002
  0.13619999999999999         0.69481364559108849     
  0.13650000000000001          1.3484168987503715     
  0.13680000000000003          1.9288706487132117     
  0.13710000000000000          2.3662755156635518     
  0.13740000000000002          2.5971252549630521     
  0.13769999999999999          2.5736896597863330     
  0.13800000000000001          2.2683307720823507     
  0.13829999999999998          1.6757444945394884     
  0.13860000000000000         0.81702902391852816     
  0.13890000000000002        -0.26166894889563103     
  0.13919999999999999         -1.4927326631391329     
  0.13950000000000001         -2.7903933601842819     
  0.13979999999999998         -4.0592193550220159     
  0.14010000000000000         -5.2002568053080926     
  0.14040000000000002         -6.1187882095982618     
  0.14069999999999999         -6.7348060154735832     
  0.14100000000000001         -6.9868997967983821     
  0.14130000000000004         -6.8384255725771883     
  0.14160000000000000         -6.2827371868416817     
  0.14189999999999997         -5.3412079120121252     
  0.14219999999999999         -4.0633558566147245     
  0.14250000000000002         -2.5237807631331335     
  0.14279999999999998        -0.81398196005926216     
  0.14310000000000000         0.96205148872333524     
  0.14339999999999997          2.6972358461351305     
  0.14369999999999999          4.2900571907082190     
  0.14400000000000002          5.6502885752488199     
  0.14429999999999998          6.7067565711229493     
  0.14460000000000001          7.4115528729471913     
  0.14490000000000003          7.7419752644295396     
  0.14520000000000000          7.7026662324722555     
  0.14550000000000002          7.3218221121835327     
  0.14579999999999999          6.6485876487258944     
  0.14610000000000001          5.7498464057016889     
  0.14640000000000003          4.7014393329203878     
  0.14670000000000000          3.5841602875530771     
  0.14699999999999996          2.4781551046731858     
  0.14729999999999999          1.4547084356661022     
  0.14760000000000001         0.57461320291209750     
  0.14789999999999998        -0.11550849683859339     
  0.14820000000000000        -0.58769743620554515     