  -1.4999999999999999E-002     0.0000000000000000     
  -1.4700000000000000E-002     0.0000000000000000     
  -1.4400000000000000E-002     0.0000000000000000     
  -1.4100000000000000E-002     0.0000000000000000     
  -1.3800000000000000E-002     0.0000000000000000     
  -1.3500000000000000E-002     0.0000000000000000     
  -1.3200000000000000E-002     0.0000000000000000     
  -1.2899999999999998E-002     0.0000000000000000     
  -1.2600000000000000E-002     0.0000000000000000     
  -1.2299999999999998E-002     0.0000000000000000     
  -1.2000000000000000E-002     0.0000000000000000     
  -1.1699999999999999E-002     0.0000000000000000     
  -1.1399999999999999E-002     0.0000000000000000     
  -1.1099999999999999E-002     0.0000000000000000     
  -1.0799999999999999E-002     0.0000000000000000     
  -1.0499999999999999E-002     0.0000000000000000     
  -1.0199999999999999E-002     0.0000000000000000     
  -9.8999999999999991E-003     0.0000000000000000     
  -9.5999999999999992E-003     0.0000000000000000     
  -9.2999999999999992E-003     0.0000000000000000     
  -8.9999999999999993E-003     0.0000000000000000     
  -8.6999999999999994E-003     0.0000000000000000     
  -8.3999999999999995E-003     0.0000000000000000     
  -8.0999999999999996E-003     0.0000000000000000     
  -7.7999999999999988E-003     0.0000000000000000     
  -7.4999999999999997E-003     0.0000000000000000     
  -7.1999999999999998E-003     0.0000000000000000     
  -6.8999999999999981E-003     0.0000000000000000     
  -6.5999999999999982E-003     0.0000000000000000     
  -6.3000000000000000E-003     0.0000000000000000     
  -6.0000000000000001E-003     0.0000000000000000     
  -5.6999999999999985E-003     0.0000000000000000     
  -5.3999999999999986E-003     0.0000000000000000     
  -5.1000000000000004E-003     0.0000000000000000     
  -4.7999999999999987E-003     0.0000000000000000     
  -4.5000000000000005E-003     0.0000000000000000     
  -4.1999999999999989E-003     0.0000000000000000     
  -3.8999999999999990E-003     0.0000000000000000     
  -3.5999999999999990E-003     0.0000000000000000     
  -3.2999999999999991E-003     0.0000000000000000     
  -2.9999999999999992E-003     0.0000000000000000     
  -2.6999999999999993E-003     0.0000000000000000     
  -2.3999999999999994E-003     0.0000000000000000     
  -2.0999999999999977E-003     0.0000000000000000     
  -1.7999999999999995E-003     0.0000000000000000     
  -1.4999999999999979E-003     0.0000000000000000     
  -1.1999999999999997E-003     0.0000000000000000     
  -8.9999999999999976E-004     0.0000000000000000     
  -5.9999999999999810E-004     0.0000000000000000     
  -2.9999999999999992E-004     0.0000000000000000     
   0.0000000000000000          0.0000000000000000     
   3.0000000000000165E-004     0.0000000000000000     
   5.9999999999999984E-004     0.0000000000000000     
   9.0000000000000149E-004     0.0000000000000000     
   1.2000000000000031E-003     0.0000000000000000     
   1.5000000000000013E-003     0.0000000000000000     
   1.8000000000000030E-003     0.0000000000000000     
   2.1000000000000012E-003     0.0000000000000000     
   2.3999999999999994E-003     0.0000000000000000     
   2.7000000000000010E-003     0.0000000000000000     
   2.9999999999999992E-003     0.0000000000000000     
   3.3000000000000008E-003     0.0000000000000000     
   3.6000000000000025E-003     0.0000000000000000     
   3.9000000000000007E-003     0.0000000000000000     
   4.2000000000000023E-003     0.0000000000000000     
   4.5000000000000005E-003     0.0000000000000000     
   4.7999999999999987E-003     0.0000000000000000     
   5.1000000000000004E-003     0.0000000000000000     
   5.4000000000000020E-003     0.0000000000000000     
   5.7000000000000037E-003     0.0000000000000000     
   5.9999999999999984E-003     0.0000000000000000     
   6.3000000000000000E-003     0.0000000000000000     
   6.6000000000000017E-003     0.0000000000000000     
   6.9000000000000034E-003     0.0000000000000000     
   7.2000000000000015E-003     0.0000000000000000     
   7.5000000000000032E-003     0.0000000000000000     
   7.8000000000000014E-003     0.0000000000000000     
   8.0999999999999996E-003     0.0000000000000000     
   8.4000000000000012E-003     0.0000000000000000     
   8.7000000000000029E-003     0.0000000000000000     
   9.0000000000000011E-003     0.0000000000000000     
   9.2999999999999992E-003     0.0000000000000000     
   9.6000000000000009E-003     0.0000000000000000     
   9.8999999999999991E-003     0.0000000000000000     
   1.0200000000000001E-002     0.0000000000000000     
   1.0500000000000002E-002     0.0000000000000000     
   1.0800000000000004E-002     0.0000000000000000     
   1.1099999999999999E-002    -4.6606146463200234E-044
   1.1400000000000000E-002    -2.0183192055293421E-043
   1.1700000000000002E-002     4.9395757166570626E-037
   1.2000000000000004E-002     2.6833739074620824E-035
   1.2300000000000002E-002    -2.1289785216909082E-035
   1.2600000000000000E-002    -1.0290055637338308E-033
   1.2900000000000002E-002     3.6643740817524665E-034
   1.3200000000000000E-002     4.1045177528482190E-032
   1.3500000000000002E-002    -1.0839338605441234E-031
   1.3800000000000003E-002    -6.5467134382056969E-031
   1.4100000000000001E-002     4.4812682573010897E-030
   1.4400000000000000E-002    -4.1438837059886381E-030
   1.4700000000000001E-002    -6.5766138326243219E-029
   1.4999999999999999E-002     3.6957402505307587E-028
   1.5300000000000001E-002    -5.8779339915401024E-028
   1.5600000000000003E-002    -3.3131498700342183E-027
   1.5899999999999997E-002     2.4021020000525336E-026
   1.6199999999999999E-002    -5.7873333520220259E-026
   1.6500000000000001E-002    -7.2308096085743424E-026
   1.6800000000000002E-002     9.9477558283783604E-025
   1.7100000000000004E-002    -3.0175337533550081E-024
   1.7400000000000006E-002     1.2484144495678203E-025
   1.7700000000000000E-002     3.6158362681422566E-023
   1.8000000000000002E-002    -1.6782015959461928E-022
   1.8300000000000004E-002     4.1207165651521932E-022
   1.8600000000000005E-002    -4.0152665906641042E-022
   1.8900000000000000E-002    -1.2835934862739160E-021
   1.9200000000000002E-002     7.7809606495067601E-021
   1.9500000000000003E-002    -2.6513612024832060E-020
   1.9799999999999998E-002     9.9247784900581934E-020
   2.0100000000000000E-002    -5.1267205417791144E-019
   2.0400000000000001E-002     2.8935419313544040E-018
   2.0700000000000003E-002    -1.5079896503076190E-017
   2.0999999999999998E-002     7.1044425238647553E-017
   2.1299999999999999E-002    -3.0818676235541094E-016
   2.1600000000000001E-002     1.2512884607292660E-015
   2.1900000000000003E-002    -4.7688222629946900E-015
   2.2200000000000004E-002     1.6803466759441618E-014
   2.2500000000000006E-002    -5.2581037194825455E-014
   2.2800000000000001E-002     1.3284396429318783E-013
   2.3100000000000002E-002    -1.8859349965402642E-013
   2.3400000000000004E-002    -4.6151177212994039E-013
   2.3699999999999999E-002     4.8649384492637600E-012
   2.4000000000000000E-002    -2.1495505022985162E-011
   2.4300000000000002E-002     6.0018386980641475E-011
   2.4599999999999997E-002    -8.3302042184886604E-011
   2.4900000000000005E-002    -1.3521980859768516E-010
   2.5200000000000000E-002     1.0759741836653386E-009
   2.5499999999999995E-002    -2.5022453327403251E-009
   2.5800000000000003E-002     4.6625659580491284E-010
   2.6099999999999998E-002     1.2441757311322060E-008
   2.6400000000000007E-002    -2.6624746794513586E-008
   2.6700000000000002E-002    -1.3176408523937334E-008
   2.6999999999999996E-002     1.2347617093318350E-007
   2.7300000000000005E-002    -6.2073146686706091E-008
   2.7600000000000000E-002    -3.8533120732461522E-007
   2.7900000000000008E-002     2.5157860571874573E-007
   2.8200000000000003E-002     1.0674218942672414E-006
   2.8499999999999998E-002    -3.5654125155925215E-007
   2.8800000000000006E-002    -3.1041951394082560E-006
   2.9100000000000001E-002    -1.3633692528108996E-006
   2.9400000000000003E-002     1.0083249686506612E-005
   2.9700000000000004E-002     3.0242590094238612E-005
   3.0000000000000006E-002     5.5041323167461233E-005
   3.0300000000000001E-002     8.5622303958880311E-005
   3.0600000000000002E-002     1.3075026692644737E-004
   3.0900000000000004E-002     2.0421191403475813E-004
   3.1199999999999999E-002     3.2285245492251155E-004
   3.1500000000000007E-002     5.0612328941711715E-004
   3.1800000000000002E-002     7.7970907164359043E-004
   3.2099999999999997E-002     1.1812483297138549E-003
   3.2400000000000005E-002     1.7642952540442237E-003
   3.2700000000000000E-002     2.6026065173699953E-003
   3.3000000000000002E-002     3.7933094008652168E-003
   3.3300000000000003E-002     5.4582002901576868E-003
   3.3599999999999998E-002     7.7461022025861461E-003
   3.3900000000000000E-002     1.0836401834148640E-002
   3.4200000000000001E-002     1.4941625131602278E-002
   3.4500000000000003E-002     2.0302586032908170E-002
   3.4799999999999998E-002     2.7175072280118954E-002
   3.5099999999999999E-002     3.5813968232690598E-002
   3.5400000000000001E-002     4.6453508966620073E-002
   3.5699999999999996E-002     5.9273130537598195E-002
   3.6000000000000004E-002     7.4353030993996691E-002
   3.6299999999999999E-002     9.1619281950683099E-002
   3.6600000000000008E-002    0.11078740534239082     
   3.6900000000000002E-002    0.13130502258025489     
   3.7199999999999997E-002    0.15229205619266903     
   3.7500000000000006E-002    0.17249294925196673     
   3.7800000000000000E-002    0.19025422422705598     
   3.8100000000000009E-002    0.20352712048683691     
   3.8400000000000004E-002    0.20992387598932094     
   3.8699999999999998E-002    0.20679194995936542     
   3.9000000000000007E-002    0.19138283814739812     
   3.9300000000000002E-002    0.16104985593664478     
   3.9600000000000003E-002    0.11350236705069568     
   3.9900000000000005E-002     4.7102912710067966E-002
   4.0200000000000000E-002    -3.8859415404647074E-002
   4.0500000000000001E-002   -0.14383941733180441     
   4.0800000000000003E-002   -0.26585563726402489     
   4.1100000000000005E-002   -0.40129091894346880     
   4.1399999999999999E-002   -0.54484187954845276     
   4.1700000000000008E-002   -0.68969254922024714     
   4.2000000000000003E-002   -0.82766102825373822     
   4.2299999999999997E-002   -0.94973217383811015     
   4.2600000000000006E-002    -1.0465471627821441     
   4.2900000000000001E-002    -1.1090456123337962     
   4.3200000000000002E-002    -1.1292947404244948     
   4.3500000000000004E-002    -1.1010670538324308     
   4.3799999999999999E-002    -1.0205856446808139     
   4.4100000000000000E-002   -0.88702999544820216     
   4.4400000000000002E-002   -0.70274233022175914     
   4.4700000000000004E-002   -0.47342109140936411     
   4.4999999999999998E-002   -0.20783003923367296     
   4.5300000000000000E-002     8.2602783184289527E-002
   4.5600000000000002E-002    0.38449012807431188     
   4.5899999999999996E-002    0.68336533736459315     
   4.6200000000000005E-002    0.96462969890196271     
   4.6500000000000000E-002     1.2144778830277290     
   4.6799999999999994E-002     1.4209719736214412     
   4.7100000000000003E-002     1.5746044934895209     
   4.7399999999999998E-002     1.6690779735794810     
   4.7700000000000006E-002     1.7014909790193518     
   4.8000000000000001E-002     1.6724352647180367     
   4.8300000000000010E-002     1.5858160077564800     
   4.8600000000000004E-002     1.4483373000721649     
   4.8899999999999999E-002     1.2690493916335155     
   4.9200000000000008E-002     1.0584093211895405     
   4.9500000000000002E-002    0.82767831336309017     
   4.9800000000000011E-002    0.58811008259741049     
   5.0100000000000006E-002    0.35017960863184489     
   5.0400000000000000E-002    0.12321627744493084     
   5.0700000000000009E-002    -8.5278063042206476E-002
   5.1000000000000004E-002   -0.26955434371213227     
   5.1299999999999998E-002   -0.42596384393221787     
   5.1600000000000007E-002   -0.55280416568301660     
   5.1900000000000002E-002   -0.64990919078541387     
   5.2200000000000010E-002   -0.71876745585973767     
   5.2500000000000005E-002   -0.76178186249996682     
   5.2800000000000000E-002   -0.78221016214836747     
   5.3099999999999994E-002   -0.78367387338939798     
   5.3400000000000003E-002   -0.76976894437201526     
   5.3699999999999998E-002   -0.74409889310167199     
   5.4000000000000006E-002   -0.70967888007055624     
   5.4300000000000001E-002   -0.66922395644481358     
   5.4599999999999996E-002   -0.62482588759891011     
   5.4900000000000004E-002   -0.57800685691437870     
   5.5199999999999999E-002   -0.52995937453756359     
   5.5499999999999994E-002   -0.48125087663467031     
   5.5800000000000002E-002   -0.43241288765919117     
   5.6099999999999997E-002   -0.38364353342174889     
   5.6400000000000006E-002   -0.33516350011593854     
   5.6700000000000000E-002   -0.28734963812963088     
   5.6999999999999995E-002   -0.24048404129881135     
   5.7300000000000004E-002   -0.19534218099065517     
   5.7599999999999998E-002   -0.15269684629251101     
   5.7900000000000007E-002   -0.11360470088125812     
   5.8200000000000002E-002    -7.9343385237415368E-002
   5.8499999999999996E-002    -5.1011375653705525E-002
   5.8800000000000005E-002    -2.9907820583920032E-002
   5.9100000000000000E-002    -1.6885673636088359E-002
   5.9400000000000008E-002    -1.2477835713953059E-002
   5.9700000000000003E-002    -1.6761323489092112E-002
   6.0000000000000012E-002    -2.8977123938595025E-002
   6.0300000000000006E-002    -4.7819670001071256E-002
   6.0600000000000001E-002    -7.1078717142812803E-002
   6.0900000000000010E-002    -9.5923422887374252E-002
   6.1200000000000004E-002   -0.11895895630614381     
   6.1500000000000013E-002   -0.13639609369461647     
   6.1800000000000008E-002   -0.14453130796679853     
   6.2100000000000002E-002   -0.13977011868493569     
   6.2399999999999997E-002   -0.11928213974401956     
   6.2700000000000006E-002    -8.1150552846400242E-002
   6.3000000000000000E-002    -2.4682951328061975E-002
   6.3300000000000009E-002     4.9307718897092283E-002
   6.3600000000000004E-002    0.13867507786190145     
   6.3899999999999998E-002    0.23964515130280861     
   6.4199999999999993E-002    0.34741294066260359     
   6.4500000000000002E-002    0.45613765273822660     
   6.4800000000000010E-002    0.55940287737522731     
   6.5100000000000005E-002    0.65089225086986691     
   6.5400000000000000E-002    0.72447656802739624     
   6.5700000000000008E-002    0.77508335446114929     
   6.5999999999999989E-002    0.79874043747616685     
   6.6299999999999998E-002    0.79296409154975689     
   6.6600000000000006E-002    0.75704174320988227     
   6.6900000000000001E-002    0.69168548910814298     
   6.7199999999999996E-002    0.59943406990151493     
   6.7500000000000004E-002    0.48407917541958517     
   6.7800000000000013E-002    0.35051157532699539     
   6.8099999999999994E-002    0.20450155055456881     
   6.8400000000000002E-002     5.2071416475336120E-002
   6.8700000000000011E-002   -0.10040359981892069     
   6.8999999999999992E-002   -0.24690937858258455     
   6.9300000000000000E-002   -0.38181018523325910     
   6.9600000000000009E-002   -0.50007915034257822     
   6.9900000000000004E-002   -0.59763550159660761     
   7.0199999999999999E-002   -0.67106162788154133     
   7.0500000000000007E-002   -0.71817969476371690     
   7.0800000000000016E-002   -0.73761545756604463     
   7.1099999999999997E-002   -0.72906362130231261     
   7.1400000000000005E-002   -0.69340216243900932     
   7.1700000000000000E-002   -0.63219176893210893     
   7.1999999999999995E-002   -0.54827099281758251     
   7.2300000000000003E-002   -0.44508504210051025     
   7.2600000000000012E-002   -0.32694193185525172     
   7.2900000000000006E-002   -0.19879585111801515     
   7.3200000000000001E-002    -6.5764014992702860E-002
   7.3499999999999996E-002     6.6529461058183692E-002
   7.3800000000000004E-002    0.19294454079887166     
   7.4099999999999999E-002    0.30860230098875013     
   7.4400000000000008E-002    0.40921529760325376     
   7.4700000000000003E-002    0.49168824664240879     
   7.5000000000000011E-002    0.55370026242243364     
   7.5299999999999992E-002    0.59447210368884351     
   7.5600000000000001E-002    0.61430280694318928     
   7.5900000000000009E-002    0.61454331142920060     
   7.6200000000000004E-002    0.59765028221092864     
   7.6499999999999999E-002    0.56647806644466014     
   7.6800000000000007E-002    0.52437751804627963     
   7.7099999999999988E-002    0.47453855835703185     
   7.7399999999999997E-002    0.41972925684034001     
   7.7700000000000005E-002    0.36219533768143558     
   7.8000000000000014E-002    0.30326011337362180     
   7.8299999999999995E-002    0.24344324701419481     
   7.8600000000000003E-002    0.18240892601977562     
   7.8900000000000012E-002    0.11936682262204062     
   7.9199999999999993E-002     5.3073289630409679E-002
   7.9500000000000001E-002    -1.7661661059301944E-002
   7.9800000000000010E-002    -9.3467160168887425E-002
   8.0100000000000018E-002   -0.17452527386818201     
   8.0399999999999999E-002   -0.25984787632919615     
   8.0700000000000008E-002   -0.34756514008671963     
   8.1000000000000003E-002   -0.43479105301633564     
   8.1299999999999997E-002   -0.51750885810136804     
   8.1600000000000006E-002   -0.59151905060794696     
   8.1900000000000014E-002   -0.65212201293862349     
   8.2199999999999995E-002   -0.69493757859589700     
   8.2500000000000004E-002   -0.71653460629946009     
   8.2799999999999999E-002   -0.71422892004085159     
   8.3100000000000007E-002   -0.68712239707425005     
   8.3400000000000002E-002   -0.63584774068614336     
   8.3700000000000011E-002   -0.56262480656798841     
   8.4000000000000005E-002   -0.47149562409476098     
   8.4300000000000000E-002   -0.36749469947048563     
   8.4599999999999995E-002   -0.25666054936410243     
   8.4900000000000003E-002   -0.14544635997800573     
   8.5199999999999998E-002    -3.9988362327456582E-002
   8.5500000000000007E-002     5.4085569375733389E-002
   8.5800000000000001E-002    0.13221354523989673     
   8.6100000000000010E-002    0.19148294338760238     
   8.6399999999999991E-002    0.23035768877751706     
   8.6699999999999999E-002    0.24889017385050149     
   8.7000000000000008E-002    0.24888980190168947     
   8.7300000000000003E-002    0.23308305319666420     
   8.7599999999999997E-002    0.20522417091488940     
   8.7900000000000006E-002    0.16971752102589438     
   8.8200000000000014E-002    0.13084598022942093     
   8.8499999999999995E-002     9.2911700015735010E-002
   8.8800000000000004E-002     5.9452689069025871E-002
   8.9100000000000013E-002     3.3447737889311303E-002
   8.9399999999999993E-002     1.7256668877075880E-002
   8.9700000000000002E-002     1.2036301960561923E-002
   9.0000000000000011E-002     1.8439376956468093E-002
   9.0299999999999991E-002     3.6333335024550564E-002
   9.0600000000000000E-002     6.4818449653867197E-002
   9.0900000000000009E-002    0.10272318046439116     
   9.1200000000000017E-002    0.14818803764889327     
   9.1499999999999998E-002    0.19910031229527211     
   9.1800000000000007E-002    0.25289779451714617     
   9.2100000000000001E-002    0.30664395721630150     
   9.2399999999999996E-002    0.35729181104171298     
   9.2700000000000005E-002    0.40139033648752842     
   9.3000000000000013E-002    0.43558280865313870     
   9.3300000000000008E-002    0.45653473511283360     
   9.3600000000000003E-002    0.46127849003783594     
   9.3899999999999997E-002    0.44740547955675630     
   9.4200000000000006E-002    0.41316308866930634     
   9.4500000000000001E-002    0.35793360465387281     
   9.4800000000000009E-002    0.28203323010331521     
   9.5100000000000004E-002    0.18704990721687090     
   9.5399999999999999E-002     7.5652493525231540E-002
   9.5699999999999993E-002    -4.8543572123418942E-002
   9.6000000000000002E-002   -0.18093183418254252     
   9.6300000000000011E-002   -0.31656807257941516     
   9.6600000000000005E-002   -0.44997494832000917     
   9.6900000000000000E-002   -0.57566582413243539     
   9.7200000000000009E-002   -0.68829011030958687     
   9.7499999999999989E-002   -0.78280120083097315     
   9.7799999999999998E-002   -0.85471986630134311     
   9.8100000000000007E-002   -0.89996664563215711     
   9.8400000000000015E-002   -0.91524635569584367     
   9.8699999999999996E-002   -0.89789061576629270     
   9.9000000000000005E-002   -0.84604286038407717     
   9.9300000000000013E-002   -0.75881921229673865     
   9.9599999999999994E-002   -0.63642179084274908     
   9.9900000000000003E-002   -0.48050343283208785     
  0.10020000000000001        -0.29404741030752218     
  0.10049999999999999         -8.1840415794652177E-002
  0.10080000000000000         0.14959168406977669     
  0.10110000000000001         0.39214849151652081     
  0.10140000000000000         0.63603638976560672     
  0.10170000000000000         0.87057321336406401     
  0.10200000000000001          1.0843579647885611     
  0.10230000000000002          1.2661864610925295     
  0.10260000000000000          1.4057599138611947     
  0.10290000000000001          1.4943868931149613     
  0.10320000000000000          1.5259796189814114     
  0.10350000000000001          1.4973029898151313     
  0.10380000000000000          1.4084781222746725     
  0.10410000000000001          1.2631028719202357     
  0.10440000000000001          1.0679621546021012     
  0.10470000000000000         0.83264045671496689     
  0.10500000000000000         0.56879591020282705     
  0.10530000000000000         0.28905453699155026     
  0.10560000000000000          6.2283227246473427E-003
  0.10590000000000001        -0.26761865484386771     
  0.10620000000000000        -0.52227687369468234     
  0.10650000000000001        -0.74968855800372780     
  0.10679999999999999        -0.94462912234135621     
  0.10710000000000000         -1.1046312921038208     
  0.10740000000000001         -1.2294027660908271     
  0.10770000000000000         -1.3207576116861279     
  0.10800000000000000         -1.3816207479996208     
  0.10830000000000001         -1.4150786226588288     
  0.10859999999999999         -1.4239771190382471     
  0.10890000000000000         -1.4095738950759606     
  0.10920000000000001         -1.3717450922993368     
  0.10950000000000001         -1.3089123797895943     
  0.10979999999999999         -1.2173988661366197     
  0.11009999999999999         -1.0932259414254735     
  0.11040000000000001        -0.93221168421775924     
  0.11070000000000001        -0.73090814459137909     
  0.11100000000000000        -0.48853015069476974     
  0.11130000000000000        -0.20663037364656756     
  0.11160000000000002         0.10951212242784145     
  0.11190000000000001         0.45037162119917273     
  0.11220000000000001         0.80333268064884678     
  0.11250000000000000          1.1520934006884043     
  0.11280000000000000          1.4786699873106814     
  0.11309999999999999          1.7644431418286908     
  0.11340000000000001          1.9911485706733236     
  0.11369999999999998          2.1435823212995988     
  0.11400000000000000          2.2099809403580370     
  0.11430000000000000          2.1832990396529177     
  0.11460000000000002          2.0625068894798519     
  0.11489999999999999          1.8519582514340323     
  0.11520000000000001          1.5614975477687001     
  0.11550000000000001          1.2059026772387202     
  0.11580000000000000         0.80301962789678516     
  0.11609999999999999         0.37313379736484603     
  0.11640000000000002         -6.2801800000655036E-002
  0.11670000000000001        -0.48522392166522305     
  0.11700000000000001        -0.87616151398657716     
  0.11730000000000000         -1.2212439717612835     
  0.11760000000000000         -1.5101753378146283     
  0.11789999999999999         -1.7364004721197519     
  0.11820000000000001         -1.8979514678496259     
  0.11850000000000001         -1.9962260539106504     
  0.11880000000000000         -2.0357167515587102     
  0.11910000000000000         -2.0232822673558224     
  0.11940000000000002         -1.9662145142225878     
  0.11970000000000001         -1.8724725004359755     
  0.12000000000000001         -1.7489838354386031     
  0.12030000000000000         -1.6010111324949152     
  0.12060000000000000         -1.4323369024735022     
  0.12089999999999999         -1.2443727025196258     
  0.12119999999999999         -1.0371930385592658     
  0.12150000000000001        -0.80946425665915056     
  0.12180000000000001        -0.55942354948801754     
  0.12210000000000000        -0.28588061232364304     
  0.12239999999999999          1.1062890762384472E-002
  0.12270000000000002         0.32900536482796888     
  0.12300000000000001         0.66266900213788671     
  0.12330000000000001          1.0034506257819416     
  0.12360000000000000          1.3397685170808968     
  0.12390000000000000          1.6570074384848941     
  0.12419999999999999          1.9391536487828911     
  0.12450000000000001          2.1696467129957968     
  0.12480000000000001          2.3322469881363923     
  0.12509999999999999          2.4143886233997898     
  0.12540000000000001          2.4067570817904365     
  0.12570000000000003          2.3056063306879837     
  0.12600000000000000          2.1138350633546623     
  0.12630000000000002          1.8395344907899627     
  0.12659999999999999          1.4982225631209396     
  0.12690000000000001          1.1096361660787375     
  0.12719999999999998         0.69691274944778259     
  0.12750000000000000         0.28577284983725654     
  0.12780000000000002        -0.10022881332364837     
  0.12809999999999999        -0.43929061207482284     
  0.12840000000000001        -0.71457498701539734     
  0.12869999999999998        -0.91637944225562973     
  0.12900000000000000         -1.0412461632822336     
  0.12930000000000003         -1.0937044475462061     
  0.12959999999999999         -1.0850068174494283     
  0.12990000000000002         -1.0316570836282153     
  0.13019999999999998        -0.95389710249870574     
  0.13050000000000000        -0.87304983944599246     
  0.13080000000000003        -0.80915991897122552     
  0.13109999999999999        -0.77894078131563349     
  0.13140000000000002        -0.79357431733088524     
  0.13169999999999998        -0.85709117176679672     
  0.13200000000000001        -0.96653727893995933     
  0.13229999999999997         -1.1112489508006593     
  0.13260000000000000         -1.2739671261124934     
  0.13290000000000002         -1.4335515279289976     
  0.13319999999999999         -1.5652420293297014     
  0.13350000000000001         -1.6446994316105639     
  0.13380000000000003         -1.6501240515180222     
  0.13410000000000000         -1.5634054945856450     
  0.13440000000000002         -1.3740790927834057     
  0.13469999999999999         -1.0788084164349356     
  0.13500000000000001        -0.68277835414576804     
  0.13529999999999998        -0.19998187105142426     
  0.13560000000000000         0.34898169795176187     
  0.13590000000000002         0.93645660260297769     
  0.13619999999999999          1.5312485439720926     
  0.13650000000000001          2.0999171411873210     
  0.13680000000000003          2.6092347721026083     
  0.13710000000000000          3.0287606297470573     
  0.13740000000000002          3.3322481666133537     
  0.13769999999999999          3.4999253301220872     
  0.13800000000000001          3.5188760321268844     
  0.13829999999999998          3.3848568987677581     
  0.13860000000000000          3.1014048694378742     
  0.13890000000000002          2.6798724829356595     
  0.13919999999999999          2.1393086683064761     
  0.13950000000000001          1.5039616674163714     
  0.13979999999999998         0.80360513264597611     
  0.14010000000000000          7.0217678160000060E-002
  0.14040000000000002        -0.66256212219600719     
  0.14069999999999999         -1.3609818047942166     
  0.14100000000000001         -1.9945665360392497     
  0.14130000000000004         -2.5346882050120261     
  0.14160000000000000         -2.9586298129765645     
  0.14189999999999997         -3.2492425077562510     
  0.14219999999999999         -3.3949956515047854     
  0.14250000000000002         -3.3930914024595005     
  0.14279999999999998         -3.2463445301528919     
  0.14310000000000000         -2.9653277063704184     
  0.14339999999999997         -2.5677716440033200     
  0.14369999999999999         -2.0759887453063786     
  0.14400000000000002         -1.5186928325768838     
  0.14429999999999998        -0.92710857340237207     
  0.14460000000000001        -0.33443381740882600     
  0.14490000000000003         0.22541688450382596     
  0.14520000000000000         0.72105389402644837     
  0.14550000000000002          1.1241612350793171     
  0.14579999999999999          1.4125786907738591     
  0.14610000000000001          1.5712796322923632     
  0.14640000000000003          1.5935765376930615     
  0.14670000000000000          1.4824529770718962     
  0.14699999999999996          1.2500346807133147     
  0.14729999999999999         0.91804664738783714     
  0.14760000000000001         0.51546299250670169     
  0.14789999999999998          7.7796952868050190E-002
  0.14820000000000000        -0.35602196480832476     