  -1.4999999999999999E-002     0.0000000000000000     
  -1.4700000000000000E-002     0.0000000000000000     
  -1.4400000000000000E-002     0.0000000000000000     
  -1.4100000000000000E-002     0.0000000000000000     
  -1.3800000000000000E-002     0.0000000000000000     
  -1.3500000000000000E-002     0.0000000000000000     
  -1.3200000000000000E-002     0.0000000000000000     
  -1.2899999999999998E-002     0.0000000000000000     
  -1.2600000000000000E-002     0.0000000000000000     
  -1.2299999999999998E-002     0.0000000000000000     
  -1.2000000000000000E-002     0.0000000000000000     
  -1.1699999999999999E-002     0.0000000000000000     
  -1.1399999999999999E-002     0.0000000000000000     
  -1.1099999999999999E-002     0.0000000000000000     
  -1.0799999999999999E-002     0.0000000000000000     
  -1.0499999999999999E-002     0.0000000000000000     
  -1.0199999999999999E-002     0.0000000000000000     
  -9.8999999999999991E-003    -3.4593702229242343E-042
  -9.5999999999999992E-003     2.3723232058991599E-040
  -9.2999999999999992E-003    -5.9190773275188940E-037
  -8.9999999999999993E-003     2.3209369359371150E-035
  -8.6999999999999994E-003    -1.5135303350814197E-034
  -8.3999999999999995E-003     2.0819083137478500E-034
  -8.0999999999999996E-003     4.1368943949239925E-033
  -7.7999999999999988E-003    -3.0710197860866031E-032
  -7.4999999999999997E-003     1.0322580539647198E-031
  -7.1999999999999998E-003    -1.4073298185953686E-031
  -6.8999999999999981E-003     4.8341805305492114E-031
  -6.5999999999999982E-003    -1.1449613650019212E-029
  -6.3000000000000000E-003     1.1889418961126350E-028
  -6.0000000000000001E-003    -8.1232414045482885E-028
  -5.6999999999999985E-003     4.4422343106007390E-027
  -5.3999999999999986E-003    -2.1425877603385587E-026
  -5.1000000000000004E-003     9.5020061502252685E-026
  -4.7999999999999987E-003    -3.8831800252830491E-025
  -4.5000000000000005E-003     1.4380244056314931E-024
  -4.1999999999999989E-003    -4.7353320986109776E-024
  -3.8999999999999990E-003     1.3655246477135002E-023
  -3.5999999999999990E-003    -3.3997051843850296E-023
  -3.2999999999999991E-003     7.1582971872526312E-023
  -2.9999999999999992E-003    -1.2192568602643098E-022
  -2.6999999999999993E-003     1.4675108019011657E-022
  -2.3999999999999994E-003    -4.0582515462867084E-023
  -2.0999999999999977E-003    -3.8389954029193514E-022
  -1.7999999999999995E-003     1.3204808569688288E-021
  -1.4999999999999979E-003    -2.7150698370638858E-021
  -1.1999999999999997E-003     3.9026817236968765E-021
  -8.9999999999999976E-004    -3.8591202629036814E-021
  -5.9999999999999810E-004     4.2180189756741754E-021
  -2.9999999999999992E-004    -1.8715859030633685E-020
   0.0000000000000000          9.0806741686540030E-020
   3.0000000000000165E-004    -3.0829765358857649E-019
   5.9999999999999984E-004     7.7277543112649114E-019
   9.0000000000000149E-004    -1.4408046302899648E-018
   1.2000000000000031E-003     1.7494099985355204E-018
   1.5000000000000013E-003    -5.4492753491885146E-020
   1.8000000000000030E-003    -6.7903938330894173E-018
   2.1000000000000012E-003     2.2983333906404136E-017
   2.3999999999999994E-003    -5.1477826326279260E-017
   2.7000000000000010E-003     8.9038029729304548E-017
   2.9999999999999992E-003    -1.1820496321167360E-016
   3.3000000000000008E-003     9.5531286891446553E-017
   3.6000000000000025E-003     6.4923974107158305E-017
   3.9000000000000007E-003    -5.0859556740321331E-016
   4.2000000000000023E-003     1.4301969869448305E-015
   4.5000000000000005E-003    -2.9685777178211376E-015
   4.7999999999999987E-003     4.9586870373602827E-015
   5.1000000000000004E-003    -6.7397462282292327E-015
   5.4000000000000020E-003     7.6592038803574096E-015
   5.7000000000000037E-003    -8.6657772046135921E-015
   5.9999999999999984E-003     1.2931835332700149E-014
   6.3000000000000000E-003    -1.9483202043186462E-014
   6.6000000000000017E-003     4.5042223274552436E-015
   6.9000000000000034E-003     9.9862462850305762E-014
   7.2000000000000015E-003    -3.7431720191241145E-013
   7.5000000000000032E-003     6.7747963041262225E-013
   7.8000000000000014E-003    -5.2692244255650887E-014
   8.0999999999999996E-003    -3.5196253751772341E-012
   8.4000000000000012E-003     9.9201752483373564E-012
   8.7000000000000029E-003    -7.3512494746077442E-012
   9.0000000000000011E-003    -3.2200405678380563E-011
   9.2999999999999992E-003     1.1822133700472454E-010
   9.6000000000000009E-003    -1.5915058577776090E-010
   9.8999999999999991E-003    -7.4854561334020903E-011
   1.0200000000000001E-002     8.2633024261966737E-010
   1.0500000000000002E-002    -1.9257539622605839E-009
   1.0800000000000004E-002     1.3624367514805746E-009
   1.1099999999999999E-002     6.3693026494204958E-009
   1.1400000000000000E-002    -1.9549801866840077E-008
   1.1700000000000002E-002     1.2001807883547873E-009
   1.2000000000000004E-002     7.7487972041848367E-008
   1.2300000000000002E-002    -6.3497395787093673E-008
   1.2600000000000000E-002    -2.3800705072010150E-007
   1.2900000000000002E-002     1.6867939905140504E-007
   1.3200000000000000E-002     6.1041772334016709E-007
   1.3500000000000002E-002    -1.1574030823661440E-007
   1.3800000000000003E-002    -1.3525057265370068E-006
   1.4100000000000001E-002    -6.3778157626458857E-007
   1.4400000000000000E-002     3.4571709763570166E-006
   1.4700000000000001E-002     9.7448823493489266E-006
   1.4999999999999999E-002     1.7498614575170740E-005
   1.5300000000000001E-002     3.0600518212120545E-005
   1.5600000000000003E-002     5.5169987766095432E-005
   1.5899999999999997E-002     9.4010030573216691E-005
   1.6199999999999999E-002     1.4814517287112575E-004
   1.6500000000000001E-002     2.2595069050372057E-004
   1.6800000000000002E-002     3.4770685028924855E-004
   1.7100000000000004E-002     5.3814746954753160E-004
   1.7400000000000006E-002     8.2153946483841324E-004
   1.7700000000000000E-002     1.2296487857524356E-003
   1.8000000000000002E-002     1.8111884137625299E-003
   1.8300000000000004E-002     2.6389666975023067E-003
   1.8600000000000005E-002     3.8105935491065655E-003
   1.8900000000000000E-002     5.4345925103435186E-003
   1.9200000000000002E-002     7.6267491456398634E-003
   1.9500000000000003E-002     1.0535792521735655E-002
   1.9799999999999998E-002     1.4360812450993986E-002
   2.0100000000000000E-002     1.9325407403670353E-002
   2.0400000000000001E-002     2.5643539497191628E-002
   2.0700000000000003E-002     3.3523578388437676E-002
   2.0999999999999998E-002     4.3172777302141259E-002
   2.1299999999999999E-002     5.4751543585155688E-002
   2.1600000000000001E-002     6.8319272376541715E-002
   2.1900000000000003E-002     8.3827023178842511E-002
   2.2200000000000004E-002    0.10110826104870857     
   2.2500000000000006E-002    0.11980863985346457     
   2.2800000000000001E-002    0.13929716413315882     
   2.3100000000000002E-002    0.15864866505295450     
   2.3400000000000004E-002    0.17668439046127124     
   2.3699999999999999E-002    0.19196408458424710     
   2.4000000000000000E-002    0.20277820078618244     
   2.4300000000000002E-002    0.20720431800031297     
   2.4599999999999997E-002    0.20325197620988583     
   2.4900000000000005E-002    0.18899488515684182     
   2.5200000000000000E-002    0.16266264282932519     
   2.5499999999999995E-002    0.12280084272714079     
   2.5800000000000003E-002     6.8493560986860630E-002
   2.6099999999999998E-002    -4.2435591921488169E-004
   2.6400000000000007E-002    -8.3270504250618813E-002
   2.6700000000000002E-002   -0.17850937060472061     
   2.6999999999999996E-002   -0.28369174989888063     
   2.7300000000000005E-002   -0.39539668934643890     
   2.7600000000000000E-002   -0.50935343317897175     
   2.7900000000000008E-002   -0.62071533876574914     
   2.8200000000000003E-002   -0.72432515039909584     
   2.8499999999999998E-002   -0.81492771446376355     
   2.8800000000000006E-002   -0.88745781380136157     
   2.9100000000000001E-002   -0.93733828089974525     
   2.9400000000000003E-002   -0.96077051523060142     
   2.9700000000000004E-002   -0.95494233643897619     
   3.0000000000000006E-002   -0.91813393386769093     
   3.0300000000000001E-002   -0.84974691935569147     
   3.0600000000000002E-002   -0.75025812359322630     
   3.0900000000000004E-002   -0.62119361462178091     
   3.1199999999999999E-002   -0.46497277446664453     
   3.1500000000000007E-002   -0.28476139182030608     
   3.1800000000000002E-002    -8.4366477375661081E-002
   3.2099999999999997E-002    0.13191936433243401     
   3.2400000000000005E-002    0.35939431169446123     
   3.2700000000000000E-002    0.59291090471494767     
   3.3000000000000002E-002    0.82690993817880942     
   3.3300000000000003E-002     1.0554116901738473     
   3.3599999999999998E-002     1.2720910797648399     
   3.3900000000000000E-002     1.4701972100505543     
   3.4200000000000001E-002     1.6426391935393660     
   3.4500000000000003E-002     1.7822256928590885     
   3.4799999999999998E-002     1.8817567684414511     
   3.5099999999999999E-002     1.9343131557127897     
   3.5400000000000001E-002     1.9337232330944292     
   3.5699999999999996E-002     1.8748423049548957     
   3.6000000000000004E-002     1.7537520513823590     
   3.6299999999999999E-002     1.5683286065990667     
   3.6600000000000008E-002     1.3185495204334856     
   3.6900000000000002E-002     1.0067543294369390     
   3.7199999999999997E-002    0.63776820168326465     
   3.7500000000000006E-002    0.21907990411170303     
   3.7800000000000000E-002   -0.23875271029520573     
   3.8100000000000009E-002   -0.72242862870582303     
   3.8400000000000004E-002    -1.2161430793930688     
   3.8699999999999998E-002    -1.7014432604445102     
   3.9000000000000007E-002    -2.1578288833992305     
   3.9300000000000002E-002    -2.5634939625912452     
   3.9600000000000003E-002    -2.8961579419606416     
   3.9900000000000005E-002    -3.1342450076995512     
   4.0200000000000000E-002    -3.2580869217237107     
   4.0500000000000001E-002    -3.2513356141960101     
   4.0800000000000003E-002    -3.1025899033845756     
   4.1100000000000005E-002    -2.8068472052210374     
   4.1399999999999999E-002    -2.3666209856742837     
   4.1700000000000008E-002    -1.7928353087641367     
   4.2000000000000003E-002    -1.1051339465849059     
   4.2299999999999997E-002   -0.33171377234649774     
   4.2600000000000006E-002    0.49175950865601969     
   4.2900000000000001E-002     1.3239838518612685     
   4.3200000000000002E-002     2.1201086327150400     
   4.3500000000000004E-002     2.8346700868351040     
   4.3799999999999999E-002     3.4246764699706960     
   4.4100000000000000E-002     3.8525849309957136     
   4.4400000000000002E-002     4.0898062961958592     
   4.4700000000000004E-002     4.1190933437292747     
   4.4999999999999998E-002     3.9357292607112306     
   4.5300000000000000E-002     3.5488789573958677     
   4.5600000000000002E-002     2.9815585096081758     
   4.5899999999999996E-002     2.2691209240754029     
   4.6200000000000005E-002     1.4569675948046674     
   4.6500000000000000E-002    0.59753070283526588     
   4.6799999999999994E-002   -0.25350530773443308     
   4.7100000000000003E-002    -1.0414761892528097     
   4.7399999999999998E-002    -1.7167201049056926     
   4.7700000000000006E-002    -2.2381503857207923     
   4.8000000000000001E-002    -2.5764595145526172     
   4.8300000000000010E-002    -2.7164264186287093     
   4.8600000000000004E-002    -2.6575410480589987     
   4.8899999999999999E-002    -2.4139455606399549     
   4.9200000000000008E-002    -2.0138181462749229     
   4.9500000000000002E-002    -1.4964023546877030     
   4.9800000000000011E-002   -0.90900444058209695     
   5.0100000000000006E-002   -0.30364401913503691     
   5.0400000000000000E-002    0.26709250254484013     
   5.0700000000000009E-002    0.75374191509135546     
   5.1000000000000004E-002     1.1135585643556878     
   5.1299999999999998E-002     1.3136414203567945     
   5.1600000000000007E-002     1.3332129697294988     
   5.1900000000000002E-002     1.1653487788358849     
   5.2200000000000010E-002    0.81749824393825499     
   5.2500000000000005E-002    0.31092693924640313     
   5.2800000000000000E-002   -0.32004821000623257     
   5.3099999999999994E-002    -1.0300891333214750     
   5.3400000000000003E-002    -1.7660238751246193     
   5.3699999999999998E-002    -2.4702562678280162     
   5.4000000000000006E-002    -3.0846685414050774     
   5.4300000000000001E-002    -3.5549724738309485     
   5.4599999999999996E-002    -3.8349024448227209     
   5.4900000000000004E-002    -3.8911400963617777     
   5.5199999999999999E-002    -3.7065755728497018     
   5.5499999999999994E-002    -3.2821811054492072     
   5.5800000000000002E-002    -2.6386735197740210     
   5.6099999999999997E-002    -1.8160824849479891     
   5.6400000000000006E-002   -0.87168964381892655     
   5.6700000000000000E-002    0.12388379613305078     
   5.6999999999999995E-002     1.0926037459255573     
   5.7300000000000004E-002     1.9554622390263767     
   5.7599999999999998E-002     2.6394022308530007     
   5.7900000000000007E-002     3.0851576673529348     
   5.8200000000000002E-002     3.2534133194927746     
   5.8499999999999996E-002     3.1296737551791241     
   5.8800000000000005E-002     2.7270054001126951     
   5.9100000000000000E-002     2.0856600367083220     
   5.9400000000000008E-002     1.2708279330031940     
   5.9700000000000003E-002    0.36740260977551531     
   6.0000000000000012E-002   -0.52819214045807161     
   6.0300000000000006E-002    -1.3165417915042152     
   6.0600000000000001E-002    -1.9043382293247071     
   6.0900000000000010E-002    -2.2142839145654478     
   6.1200000000000004E-002    -2.1919228617848443     
   6.1500000000000013E-002    -1.8115443606937900     
   6.1800000000000008E-002    -1.0788041730452473     
   6.2100000000000002E-002    -2.9929081540782054E-002
   6.2399999999999997E-002     1.2710106309936244     
   6.2700000000000006E-002     2.7384519903808489     
   6.3000000000000000E-002     4.2727931482448609     
   6.3300000000000009E-002     5.7686842531895923     
   6.3600000000000004E-002     7.1247697548876383     
   6.3899999999999998E-002     8.2509285633151652     
   6.4199999999999993E-002     9.0740661260785984     
   6.4500000000000002E-002     9.5436557730585498     
   6.4800000000000010E-002     9.6330304661106823     
   6.5100000000000005E-002     9.3390412381122481     
   6.5400000000000000E-002     8.6798157460459997     
   6.5700000000000008E-002     7.6906794713037439     
   6.5999999999999989E-002     6.4193624845325434     
   6.6299999999999998E-002     4.9208362590695121     
   6.6600000000000006E-002     3.2521397192968302     
   6.6900000000000001E-002     1.4683983257194293     
   6.7199999999999996E-002   -0.38035349107164262     
   6.7500000000000004E-002    -2.2506073379781641     
   6.7800000000000013E-002    -4.1046763115238933     
   6.8099999999999994E-002    -5.9115326633496794     
   6.8400000000000002E-002    -7.6440305403140041     
   6.8700000000000011E-002    -9.2757215805346043     
   6.8999999999999992E-002    -10.779999875105092     
   6.9300000000000000E-002    -12.127657494179060     
   6.9600000000000009E-002    -13.285644033632156     
   6.9900000000000004E-002    -14.217330156741978     
   7.0199999999999999E-002    -14.883087707627606     
   7.0500000000000007E-002    -15.242889432409385     
   7.0800000000000016E-002    -15.259306007592055     
   7.1099999999999997E-002    -14.900915239490161     
   7.1400000000000005E-002    -14.145971998074613     
   7.1700000000000000E-002    -12.986685719346987     
   7.1999999999999995E-002    -11.431239890286450     
   7.2300000000000003E-002    -9.5056355818466294     
   7.2600000000000012E-002    -7.2545790326833668     
   7.2900000000000006E-002    -4.7400557048926322     
   7.3200000000000001E-002    -2.0394723151871155     
   7.3499999999999996E-002    0.75927817547492693     
   7.3800000000000004E-002     3.5619485763750705     
   7.4099999999999999E-002     6.2719320414935726     
   7.4400000000000008E-002     8.7976371218992746     
   7.4700000000000003E-002     11.056078311311044     
   7.5000000000000011E-002     12.976702869726630     
   7.5299999999999992E-002     14.504795946448072     
   7.5600000000000001E-002     15.602220487468111     
   7.5900000000000009E-002     16.248373351038470     
   7.6200000000000004E-002     16.439025562778344     
   7.6499999999999999E-002     16.183725117485277     
   7.6800000000000007E-002     15.503824648184168     
   7.7099999999999988E-002     14.430971876155610     
   7.7399999999999997E-002     13.003964799564672     
   7.7700000000000005E-002     11.267819820434891     
   7.8000000000000014E-002     9.2728191773183077     
   7.8299999999999995E-002     7.0739038175589197     
   7.8600000000000003E-002     4.7322852827191983     
   7.8900000000000012E-002     2.3144097755916064     
   7.9199999999999993E-002   -0.10721602364503835     
   7.9500000000000001E-002    -2.4532838128340284     
   7.9800000000000010E-002    -4.6414664624241144     
   8.0100000000000018E-002    -6.5873413376605896     
   8.0399999999999999E-002    -8.2078642564973556     
   8.0700000000000008E-002    -9.4279415239067283     
   8.1000000000000003E-002    -10.184673445425119     
   8.1299999999999997E-002    -10.434102623081438     
   8.1600000000000006E-002    -10.155975995780222     
   8.1900000000000014E-002    -9.3581352766312627     
   8.2199999999999995E-002    -8.0793364953101019     
   8.2500000000000004E-002    -6.3886171878246500     
   8.2799999999999999E-002    -4.3830577337674796     
   8.3100000000000007E-002    -2.1834325005545923     
   8.3400000000000002E-002     7.3550167465871841E-002
   8.3700000000000011E-002     2.2448096308921968     
   8.4000000000000005E-002     4.1901822736220513     
   8.4300000000000000E-002     5.7833765943558246     
   8.4599999999999995E-002     6.9213494902940740     
   8.4900000000000003E-002     7.5312319303299731     
   8.5199999999999998E-002     7.5766836997280045     
   8.5500000000000007E-002     7.0601761204416871     
   8.5800000000000001E-002     6.0224049069108032     
   8.6100000000000010E-002     4.5383502706626357     
   8.6399999999999991E-002     2.7104593763904448     
   8.6699999999999999E-002    0.66163247852645135     
   8.7000000000000008E-002    -1.4759218079502023     
   8.7300000000000003E-002    -3.5709507213313936     
   8.7599999999999997E-002    -5.5014513898276078     
   8.7900000000000006E-002    -7.1637321370415936     
   8.8200000000000014E-002    -8.4787876468112326     
   8.8499999999999995E-002    -9.3964664313392525     
   8.8800000000000004E-002    -9.8959144645295982     
   8.9100000000000013E-002    -9.9847347515774985     
   8.9399999999999993E-002    -9.6958584262053300     
   8.9700000000000002E-002    -9.0819725245745460     
   9.0000000000000011E-002    -8.2089641539749465     
   9.0299999999999991E-002    -7.1491271878451741     
   9.0600000000000000E-002    -5.9754049299707601     
   9.0900000000000009E-002    -4.7553476173611173     
   9.1200000000000017E-002    -3.5462430451677669     
   9.1499999999999998E-002    -2.3926391515819661     
   9.1800000000000007E-002    -1.3250667677246541     
   9.2100000000000001E-002   -0.36073155485473318     
   9.2399999999999996E-002    0.49566134859539435     
   9.2700000000000005E-002     1.2490590152220256     
   9.3000000000000013E-002     1.9103968741619175     
   9.3300000000000008E-002     2.4947060403512769     
   9.3600000000000003E-002     3.0173275653580527     
   9.3899999999999997E-002     3.4919475115431875     
   9.4200000000000006E-002     3.9290811017648632     
   9.4500000000000001E-002     4.3348844650497380     
   9.4800000000000009E-002     4.7112017906298398     
   9.5100000000000004E-002     5.0564627333070211     
   9.5399999999999999E-002     5.3662624883202037     
   9.5699999999999993E-002     5.6338873028497520     
   9.6000000000000002E-002     5.8524177553397267     
   9.6300000000000011E-002     6.0151780868337568     
   9.6600000000000005E-002     6.1165251062050734     
   9.6900000000000000E-002     6.1525321728779110     
   9.7200000000000009E-002     6.1214130314407766     
   9.7499999999999989E-002     6.0244205174195313     
   9.7799999999999998E-002     5.8636681975799112     
   9.8100000000000007E-002     5.6430693272256827     
   9.8400000000000015E-002     5.3692846306653186     
   9.8699999999999996E-002     5.0484386822056484     
   9.9000000000000005E-002     4.6871448141102103     
   9.9300000000000013E-002     4.2919302053397574     
   9.9599999999999994E-002     3.8679159271664849     
   9.9900000000000003E-002     3.4189513813786654     
  0.10020000000000001          2.9466357465272628     
  0.10049999999999999          2.4510562315836202     
  0.10080000000000000          1.9308282436128033     
  0.10110000000000001          1.3837659850482604     
  0.10140000000000000         0.80806845477127576     
  0.10170000000000000         0.20273614616407382     
  0.10200000000000001        -0.43137011717632545     
  0.10230000000000002         -1.0899809663389504     
  0.10260000000000000         -1.7660239668519184     
  0.10290000000000001         -2.4511045083023060     
  0.10320000000000000         -3.1346127284895680     
  0.10350000000000001         -3.8050078950505171     
  0.10380000000000000         -4.4530678557597927     
  0.10410000000000001         -5.0720183030327686     
  0.10440000000000001         -5.6583416383792127     
  0.10470000000000000         -6.2115133775893350     
  0.10500000000000000         -6.7334302160996051     
  0.10530000000000000         -7.2269096550460077     
  0.10560000000000000         -7.6916435592326771     
  0.10590000000000001         -8.1226498973856476     
  0.10620000000000000         -8.5079151176066308     
  0.10650000000000001         -8.8254676443074249     
  0.10679999999999999         -9.0443840555585826     
  0.10710000000000000         -9.1274559885935656     
  0.10740000000000001         -9.0327503083344229     
  0.10770000000000000         -8.7193132389159658     
  0.10800000000000000         -8.1548402119521537     
  0.10830000000000001         -7.3200790460392433     
  0.10859999999999999         -6.2141057302149028     
  0.10890000000000000         -4.8576998249480443     
  0.10920000000000001         -3.2933120340686770     
  0.10950000000000001         -1.5840756387479482     
  0.10979999999999999         0.19496483104829165     
  0.11009999999999999          1.9631268234400210     
  0.11040000000000001          3.6431138823312619     
  0.11070000000000001          5.1728801044444701     
  0.11100000000000000          6.5125649413933475     
  0.11130000000000000          7.6507278616349286     
  0.11160000000000002          8.6059639971367510     
  0.11190000000000001          9.4231971355845179     
  0.11220000000000001          10.166715947341741     
  0.11250000000000000          10.908631106389269     
  0.11280000000000000          11.714187108741420     
  0.11309999999999999          12.627190226454271     
  0.11340000000000001          13.655709617917658     
  0.11369999999999998          14.761719627093171     
  0.11400000000000000          15.857282918550315     
  0.11430000000000000          16.804569195134722     
  0.11460000000000002          17.424557480535885     
  0.11489999999999999          17.515550495921424     
  0.11520000000000001          16.871374452158555     
  0.11550000000000001          15.307622889987428     
  0.11580000000000000          12.689488851284887     
  0.11609999999999999          8.9525068581648135     
  0.11640000000000002          4.1235244243420830     
  0.11670000000000001         -1.6678846151245637     
  0.11700000000000001         -8.1895487203399355     
  0.11730000000000000         -15.114614975232913     
  0.11760000000000000         -22.041687491201074     
  0.11789999999999999         -28.523105640844907     
  0.11820000000000001         -34.099525166187284     
  0.11850000000000001         -38.339134314426154     
  0.11880000000000000         -40.874773415120444     
  0.11910000000000000         -41.437464738536612     
  0.11940000000000002         -39.883588316608410     
  0.11970000000000001         -36.209955515185612     
  0.12000000000000001         -30.556836581535947     
  0.12030000000000000         -23.203358358215056     
  0.12060000000000000         -14.544201077028383     
  0.12089999999999999         -5.0610458867598531     
  0.12119999999999999          4.7101454284183983     
  0.12150000000000001          14.221776553697202     
  0.12180000000000001          22.951337237707275     
  0.12210000000000000          30.437886351857834     
  0.12239999999999999          36.311436627458754     
  0.12270000000000002          40.311497196575289     
  0.12300000000000001          42.301846445811030     
  0.12330000000000001          42.270977368370616     
  0.12360000000000000          40.322389006459368     
  0.12390000000000000          36.663601856297113     
  0.12419999999999999          31.584593056674414     
  0.12450000000000001          25.430396352107053     
  0.12480000000000001          18.579425968983792     
  0.12509999999999999          11.416585609252337     
  0.12540000000000001          4.3096798068464155     
  0.12570000000000003         -2.4092073415268498     
  0.12600000000000000         -8.4610137233269480     
  0.12630000000000002         -13.628655478719823     
  0.12659999999999999         -17.761550283657087     
  0.12690000000000001         -20.780608915861045     
  0.12719999999999998         -22.672094736738408     
  0.12750000000000000         -23.480785136863691     
  0.12780000000000002         -23.303141012970251     
  0.12809999999999999         -22.272571449782227     
  0.12840000000000001         -20.549204802777023     
  0.12869999999999998         -18.308060328196895     
  0.12900000000000000         -15.722168532491040     
  0.12930000000000003         -12.957309203337077     
  0.12959999999999999         -10.162066930911873     
  0.12990000000000002         -7.4589824882529463     
  0.13019999999999998         -4.9443438640455817     
  0.13050000000000000         -2.6860128630067965     
  0.13080000000000003        -0.72316236207196782     
  0.13109999999999999         0.92819961088725011     
  0.13140000000000002          2.2713187577475078     
  0.13169999999999998          3.3252904120406637     
  0.13200000000000001          4.1174648509151224     
  0.13229999999999997          4.6822149772716628     
  0.13260000000000000          5.0538676964956055     
  0.13290000000000002          5.2636125376014160     
  0.13319999999999999          5.3436665637056722     
  0.13350000000000001          5.3208531521042213     
  0.13380000000000003          5.2160584459966897     
  0.13410000000000000          5.0503186533663573     
  0.13440000000000002          4.8401227140828311     
  0.13469999999999999          4.5992920004443807     
  0.13500000000000001          4.3410602482163831     
  0.13529999999999998          4.0742992889326359     
  0.13560000000000000          3.8072278798685328     
  0.13590000000000002          3.5454340200475620     
  0.13619999999999999          3.2896226356570479     
  0.13650000000000001          3.0401510834125642     
  0.13680000000000003          2.7939371537351878     
  0.13710000000000000          2.5442877349048452     
  0.13740000000000002          2.2868183621037845     
  0.13769999999999999          2.0148704923071437     
  0.13800000000000001          1.7220798423600465     
  0.13829999999999998          1.4065266831757268     
  0.13860000000000000          1.0671088686339139     
  0.13890000000000002         0.70644105953903291     
  0.13919999999999999         0.33054717838888392     
  0.13950000000000001         -5.4660908916019726E-002
  0.13979999999999998        -0.43835214700140490     
  0.14010000000000000        -0.80894586774100663     
  0.14040000000000002         -1.1574341622321336     
  0.14069999999999999         -1.4725104541198653     
  0.14100000000000001         -1.7452658003892050     
  0.14130000000000004         -1.9696658857247171     
  0.14160000000000000         -2.1390144398007354     
  0.14189999999999997         -2.2507434496352303     
  0.14219999999999999         -2.3043457376471634     
  0.14250000000000002         -2.2981600292554956     
  0.14279999999999998         -2.2354104266862205     
  0.14310000000000000         -2.1190541630941762     
  0.14339999999999997         -1.9524277898972482     
  0.14369999999999999         -1.7433597554432012     
  0.14400000000000002         -1.4971154777021050     
  0.14429999999999998         -1.2219124978190057     
  0.14460000000000001        -0.92955627258408935     
  0.14490000000000003        -0.62921407158712883     
  0.14520000000000000        -0.33313000845941199     
  0.14550000000000002         -5.3376546475431622E-002
  0.14579999999999999         0.20000176287750715     
  0.14610000000000001         0.41544149519532131     
  0.14640000000000003         0.58612174888782975     
  0.14670000000000000         0.70878458156504243     
  0.14699999999999996         0.78059772412089123     
  0.14729999999999999         0.80508960050231970     
  0.14760000000000001         0.78942606769714130     
  0.14789999999999998         0.74126855467992159     
  0.14820000000000000         0.67263765666933517     