  -1.4999999999999999E-002     0.0000000000000000     
  -1.4700000000000000E-002     0.0000000000000000     
  -1.4400000000000000E-002     0.0000000000000000     
  -1.4100000000000000E-002     0.0000000000000000     
  -1.3800000000000000E-002     0.0000000000000000     
  -1.3500000000000000E-002     0.0000000000000000     
  -1.3200000000000000E-002     0.0000000000000000     
  -1.2899999999999998E-002     0.0000000000000000     
  -1.2600000000000000E-002     0.0000000000000000     
  -1.2299999999999998E-002     0.0000000000000000     
  -1.2000000000000000E-002     0.0000000000000000     
  -1.1699999999999999E-002     0.0000000000000000     
  -1.1399999999999999E-002     0.0000000000000000     
  -1.1099999999999999E-002     0.0000000000000000     
  -1.0799999999999999E-002     0.0000000000000000     
  -1.0499999999999999E-002     0.0000000000000000     
  -1.0199999999999999E-002     0.0000000000000000     
  -9.8999999999999991E-003     0.0000000000000000     
  -9.5999999999999992E-003     0.0000000000000000     
  -9.2999999999999992E-003     0.0000000000000000     
  -8.9999999999999993E-003     0.0000000000000000     
  -8.6999999999999994E-003     0.0000000000000000     
  -8.3999999999999995E-003     0.0000000000000000     
  -8.0999999999999996E-003     0.0000000000000000     
  -7.7999999999999988E-003     7.4677763283838755E-044
  -7.4999999999999997E-003     6.3641540847604396E-037
  -7.1999999999999998E-003    -1.7543239241593779E-036
  -6.8999999999999981E-003    -5.1804930105853628E-035
  -6.5999999999999982E-003     2.9520159928844190E-034
  -6.3000000000000000E-003    -3.9776138111949019E-033
  -6.0000000000000001E-003     4.6210455267838987E-032
  -5.6999999999999985E-003    -4.0016441218983916E-031
  -5.3999999999999986E-003     2.4107786411927107E-030
  -5.1000000000000004E-003    -9.9444265328508864E-030
  -4.7999999999999987E-003     2.3910141950846933E-029
  -4.5000000000000005E-003     1.0161119709212891E-029
  -4.1999999999999989E-003    -4.1109418951607493E-028
  -3.8999999999999990E-003     2.2279294779217737E-027
  -3.5999999999999990E-003    -7.4309172845933017E-027
  -3.2999999999999991E-003     1.5908223557496014E-026
  -2.9999999999999992E-003    -1.1719719703829880E-026
  -2.6999999999999993E-003    -7.1417813829211048E-026
  -2.3999999999999994E-003     4.0083671736499973E-025
  -2.0999999999999977E-003    -1.2516408009047631E-024
  -1.7999999999999995E-003     2.7977713623520055E-024
  -1.4999999999999979E-003    -4.3624412122622785E-024
  -1.1999999999999997E-003     2.6151255828722484E-024
  -8.9999999999999976E-004     1.2170441718812247E-023
  -5.9999999999999810E-004    -6.3752726199367834E-023
  -2.9999999999999992E-004     2.0604635613917468E-022
   0.0000000000000000         -5.5728655264395044E-022
   3.0000000000000165E-004     1.3689562899149805E-021
   5.9999999999999984E-004    -3.1544214577402732E-021
   9.0000000000000149E-004     6.9103993101173632E-021
   1.2000000000000031E-003    -1.4472369152445026E-020
   1.5000000000000013E-003     2.9049953553067523E-020
   1.8000000000000030E-003    -5.5971153552278358E-020
   2.1000000000000012E-003     1.0356618464727688E-019
   2.3999999999999994E-003    -1.8382417019725852E-019
   2.7000000000000010E-003     3.1179262269094379E-019
   2.9999999999999992E-003    -5.0155854621581473E-019
   3.3000000000000008E-003     7.5525582434338615E-019
   3.6000000000000025E-003    -1.0406805697797574E-018
   3.9000000000000007E-003     1.2536849038612924E-018
   4.2000000000000023E-003    -1.1617682327644660E-018
   4.5000000000000005E-003     3.1390686569259263E-019
   4.7999999999999987E-003     2.1478278391206122E-018
   5.1000000000000004E-003    -7.9515168948382845E-018
   5.4000000000000020E-003     2.0736801239051635E-017
   5.7000000000000037E-003    -4.7908056115774260E-017
   5.9999999999999984E-003     1.0301475626161407E-016
   6.3000000000000000E-003    -2.0772812347332315E-016
   6.6000000000000017E-003     3.9324986029639862E-016
   6.9000000000000034E-003    -7.0492219886018644E-016
   7.2000000000000015E-003     1.2201398909525219E-015
   7.5000000000000032E-003    -2.0953141422526607E-015
   7.8000000000000014E-003     3.6528704805180067E-015
   8.0999999999999996E-003    -6.4169602774145384E-015
   8.4000000000000012E-003     1.0392825264889374E-014
   8.7000000000000029E-003    -1.0481184142672518E-014
   9.0000000000000011E-003    -2.2361383432933544E-014
   9.2999999999999992E-003     2.0033381732596927E-013
   9.6000000000000009E-003    -8.4456548473895788E-013
   9.8999999999999991E-003     2.4947792036129730E-012
   1.0200000000000001E-002    -4.5361430803265741E-012
   1.0500000000000002E-002    -1.4586626930832485E-012
   1.0800000000000004E-002     4.6777091395347148E-011
   1.1099999999999999E-002    -1.8108028848382900E-010
   1.1400000000000000E-002     3.1805513510409275E-010
   1.1700000000000002E-002     2.2239924010911293E-010
   1.2000000000000004E-002    -2.7458309870538882E-009
   1.2300000000000002E-002     5.7721332010211162E-009
   1.2600000000000000E-002     2.3721905909191513E-009
   1.2900000000000002E-002    -3.3185238831191762E-008
   1.3200000000000000E-002     3.7709539619900904E-008
   1.3500000000000002E-002     9.4542891085320692E-008
   1.3800000000000003E-002    -2.1793603905249324E-007
   1.4100000000000001E-002    -2.4435503221941587E-007
   1.4400000000000000E-002     6.8097086527100269E-007
   1.4700000000000001E-002     7.8276221988933071E-007
   1.4999999999999999E-002    -1.6300424475218784E-006
   1.5300000000000001E-002    -3.1831486936596150E-006
   1.5600000000000003E-002     3.0575038437821435E-006
   1.5899999999999997E-002     1.9965349302034064E-005
   1.6199999999999999E-002     4.3163819022076254E-005
   1.6500000000000001E-002     6.7679140102014151E-005
   1.6800000000000002E-002     9.5087883095046517E-005
   1.7100000000000004E-002     1.3462030682381276E-004
   1.7400000000000006E-002     2.0290952036550609E-004
   1.7700000000000000E-002     3.2076324173904860E-004
   1.8000000000000002E-002     5.0764886307677734E-004
   1.8300000000000004E-002     7.8381156208414576E-004
   1.8600000000000005E-002     1.1779536819417841E-003
   1.8900000000000000E-002     1.7330870168333740E-003
   1.9200000000000002E-002     2.5104291459863426E-003
   1.9500000000000003E-002     3.5918818585325310E-003
   1.9799999999999998E-002     5.0792657215709787E-003
   2.0100000000000000E-002     7.0882300443750306E-003
   2.0400000000000001E-002     9.7458055968066733E-003
   2.0700000000000003E-002     1.3194613256343647E-002
   2.0999999999999998E-002     1.7587758730027304E-002
   2.1299999999999999E-002     2.3073975165242511E-002
   2.1600000000000001E-002     2.9782679147366025E-002
   2.1900000000000003E-002     3.7803869965406550E-002
   2.2200000000000004E-002     4.7158547081116720E-002
   2.2500000000000006E-002     5.7762887736419605E-002
   2.2800000000000001E-002     6.9396071620776503E-002
   2.3100000000000002E-002     8.1666879919908231E-002
   2.3400000000000004E-002     9.3984127684639332E-002
   2.3699999999999999E-002    0.10552994232639412     
   2.4000000000000000E-002    0.11526038573591538     
   2.4300000000000002E-002    0.12190927643580762     
   2.4599999999999997E-002    0.12402360218689865     
   2.4900000000000005E-002    0.12003110420753052     
   2.5200000000000000E-002    0.10832838028884728     
   2.5499999999999995E-002     8.7405853385122231E-002
   2.5800000000000003E-002     5.5990856288414437E-002
   2.6099999999999998E-002     1.3208301542718705E-002
   2.6400000000000007E-002    -4.1257288927208258E-002
   2.6700000000000002E-002   -0.10706420354436902     
   2.6999999999999996E-002   -0.18307057190782736     
   2.7300000000000005E-002   -0.26728883614067589     
   2.7600000000000000E-002   -0.35688698582828987     
   2.7900000000000008E-002   -0.44826093669129363     
   2.8200000000000003E-002   -0.53719807081837045     
   2.8499999999999998E-002   -0.61905551417688132     
   2.8800000000000006E-002   -0.68904817604766311     
   2.9100000000000001E-002   -0.74253583480409113     
   2.9400000000000003E-002   -0.77533174096334145     
   2.9700000000000004E-002   -0.78402978707345727     
   3.0000000000000006E-002   -0.76622200509357175     
   3.0300000000000001E-002   -0.72075683327604767     
   3.0600000000000002E-002   -0.64776587868857793     
   3.0900000000000004E-002   -0.54871428313137938     
   3.1199999999999999E-002   -0.42640397154665666     
   3.1500000000000007E-002   -0.28469044064562765     
   3.1800000000000002E-002   -0.12853202200763836     
   3.2099999999999997E-002     3.6548351442381631E-002
   3.2400000000000005E-002    0.20464673901302136     
   3.2700000000000000E-002    0.36977294468872102     
   3.3000000000000002E-002    0.52642602217001022     
   3.3300000000000003E-002    0.66943735472431953     
   3.3599999999999998E-002    0.79472274259905928     
   3.3900000000000000E-002    0.89921934149115657     
   3.4200000000000001E-002    0.98101586888248549     
   3.4500000000000003E-002     1.0397062382475195     
   3.4799999999999998E-002     1.0759542069567360     
   3.5099999999999999E-002     1.0918151219634740     
   3.5400000000000001E-002     1.0903010443794319     
   3.5699999999999996E-002     1.0750051806914631     
   3.6000000000000004E-002     1.0501852098628301     
   3.6299999999999999E-002     1.0198819692723387     
   3.6600000000000008E-002    0.98781830548137128     
   3.6900000000000002E-002    0.95693767468414359     
   3.7199999999999997E-002    0.92881906363356892     
   3.7500000000000006E-002    0.90368169818074995     
   3.7800000000000000E-002    0.87989175549478527     
   3.8100000000000009E-002    0.85408729515733861     
   3.8400000000000004E-002    0.82104098983076734     
   3.8699999999999998E-002    0.77403247536664121     
   3.9000000000000007E-002    0.70536226208999275     
   3.9300000000000002E-002    0.60676193403185819     
   3.9600000000000003E-002    0.47044441245603058     
   3.9900000000000005E-002    0.28976267671944811     
   4.0200000000000000E-002     6.0311332552273632E-002
   4.0500000000000001E-002   -0.21925865202056516     
   4.0800000000000003E-002   -0.54637772077754310     
   4.1100000000000005E-002   -0.91369653165057207     
   4.1399999999999999E-002    -1.3090860906449764     
   4.1700000000000008E-002    -1.7153629150558949     
   4.2000000000000003E-002    -2.1110644450475262     
   4.2299999999999997E-002    -2.4713869227367540     
   4.2600000000000006E-002    -2.7694177780023019     
   4.2900000000000001E-002    -2.9784064459842732     
   4.3200000000000002E-002    -3.0733194525748768     
   4.3500000000000004E-002    -3.0334403687926743     
   4.3799999999999999E-002    -2.8444013756654356     
   4.4100000000000000E-002    -2.4998614926170450     
   4.4400000000000002E-002    -2.0031981571749249     
   4.4700000000000004E-002    -1.3677179871685208     
   4.4999999999999998E-002   -0.61702388566827782     
   4.5300000000000000E-002    0.21605596517933057     
   4.5600000000000002E-002     1.0912810685441225     
   4.5899999999999996E-002     1.9626711793018410     
   4.6200000000000005E-002     2.7819745786212744     
   4.6500000000000000E-002     3.5011670886127990     
   4.6799999999999994E-002     4.0755610801149311     
   4.7100000000000003E-002     4.4670858740044688     
   4.7399999999999998E-002     4.6465196969275802     
   4.7700000000000006E-002     4.5955882414246627     
   4.8000000000000001E-002     4.3080797498075309     
   4.8300000000000010E-002     3.7907672171537592     
   4.8600000000000004E-002     3.0632360146844708     
   4.8899999999999999E-002     2.1567301823354739     
   4.9200000000000008E-002     1.1130273312967442     
   4.9500000000000002E-002    -1.7763427142708919E-002
   4.9800000000000011E-002    -1.1797751430915202     
   5.0100000000000006E-002    -2.3140731200082048     
   5.0400000000000000E-002    -3.3620815705738969     
   5.0700000000000009E-002    -4.2682233354156782     
   5.1000000000000004E-002    -4.9837585039118606     
   5.1299999999999998E-002    -5.4692450134140769     
   5.1600000000000007E-002    -5.6971693596819826     
   5.1900000000000002E-002    -5.6537600087096918     
   5.2200000000000010E-002    -5.3401966557732612     
   5.2500000000000005E-002    -4.7730708500169339     
   5.2800000000000000E-002    -3.9831879412661055     
   5.3099999999999994E-002    -3.0146994745965396     
   5.3400000000000003E-002    -1.9218060999275279     
   5.3699999999999998E-002   -0.76571517212285600     
   5.4000000000000006E-002    0.38870906026740520     
   5.4300000000000001E-002     1.4784860933559387     
   5.4599999999999996E-002     2.4445941856324986     
   5.4900000000000004E-002     3.2371945849141892     
   5.5199999999999999E-002     3.8183286686740683     
   5.5499999999999994E-002     4.1629539031991118     
   5.5800000000000002E-002     4.2623324856168265     
   5.6099999999999997E-002     4.1214199466201853     
   5.6400000000000006E-002     3.7599888161934620     
   5.6700000000000000E-002     3.2101938933520926     
   5.6999999999999995E-002     2.5127422906098325     
   5.7300000000000004E-002     1.7161051016218749     
   5.7599999999999998E-002    0.87097434953316877     
   5.7900000000000007E-002     2.8697719175593835E-002
   5.8200000000000002E-002   -0.76263120528387696     
   5.8499999999999996E-002    -1.4605601137995168     
   5.8800000000000005E-002    -2.0294289890232564     
   5.9100000000000000E-002    -2.4436428809845521     
   5.9400000000000008E-002    -2.6863298609554191     
   5.9700000000000003E-002    -2.7508227923158493     
   6.0000000000000012E-002    -2.6403915866817380     
   6.0300000000000006E-002    -2.3664815291215926     
   6.0600000000000001E-002    -1.9491883265670620     
   6.0900000000000010E-002    -1.4146992809313634     
   6.1200000000000004E-002   -0.79481579580399775     
   6.1500000000000013E-002   -0.12485968863887181     
   6.1800000000000008E-002    0.55810527728265991     
   6.2100000000000002E-002     1.2156231837115878     
   6.2399999999999997E-002     1.8120524049981512     
   6.2700000000000006E-002     2.3136492029095761     
   6.3000000000000000E-002     2.6921041137034014     
   6.3300000000000009E-002     2.9254415018705315     
   6.3600000000000004E-002     2.9988424621880396     
   6.3899999999999998E-002     2.9080671976939070     
   6.4199999999999993E-002     2.6564941011318624     
   6.4500000000000002E-002     2.2589764121146017     
   6.4800000000000010E-002     1.7391687111823386     
   6.5100000000000005E-002     1.1280928322895087     
   6.5400000000000000E-002    0.46524978602369776     
   6.5700000000000008E-002   -0.20753684662952951     
   6.5999999999999989E-002   -0.84523866342529153     
   6.6299999999999998E-002    -1.4048369217121501     
   6.6600000000000006E-002    -1.8477477027837914     
   6.6900000000000001E-002    -2.1411104309125397     
   6.7199999999999996E-002    -2.2630727322075503     
   6.7500000000000004E-002    -2.2007884952921333     
   6.7800000000000013E-002    -1.9542849001764035     
   6.8099999999999994E-002    -1.5360263507539069     
   6.8400000000000002E-002   -0.96829866634024209     
   6.8700000000000011E-002   -0.28532903850712693     
   6.8999999999999992E-002    0.47214406948027926     
   6.9300000000000000E-002     1.2577068790809169     
   6.9600000000000009E-002     2.0225958774698731     
   6.9900000000000004E-002     2.7192997852816823     
   7.0199999999999999E-002     3.3033807180853767     
   7.0500000000000007E-002     3.7387242215421135     
   7.0800000000000016E-002     3.9972395808451218     
   7.1099999999999997E-002     4.0623493135763349     
   7.1400000000000005E-002     3.9293668257855772     
   7.1700000000000000E-002     3.6051130345421543     
   7.1999999999999995E-002     3.1078090792513442     
   7.2300000000000003E-002     2.4636743279406210     
   7.2600000000000012E-002     1.7071385685562690     
   7.2900000000000006E-002    0.87508342650645787     
   7.3200000000000001E-002     4.9231430085839882E-003
   7.3499999999999996E-002   -0.86752528156875908     
   7.3800000000000004E-002    -1.7124529424125055     
   7.4099999999999999E-002    -2.5054849864342708     
   7.4400000000000008E-002    -3.2304257589839529     
   7.4700000000000003E-002    -3.8779477295590814     
   7.5000000000000011E-002    -4.4444417182306548     
   7.5299999999999992E-002    -4.9310969566695855     
   7.5600000000000001E-002    -5.3392113960982170     
   7.5900000000000009E-002    -5.6709637049950272     
   7.6200000000000004E-002    -5.9246878143237174     
   7.6499999999999999E-002    -6.0944556841604154     
   7.6800000000000007E-002    -6.1698856150054882     
   7.7099999999999988E-002    -6.1350350332751686     
   7.7399999999999997E-002    -5.9727187265123938     
   7.7700000000000005E-002    -5.6630659364965554     
   7.8000000000000014E-002    -5.1899314332152002     
   7.8299999999999995E-002    -4.5425272521868338     
   7.8600000000000003E-002    -3.7171712570553539     
   7.8900000000000012E-002    -2.7229433802221106     
   7.9199999999999993E-002    -1.5791626799056213     
   7.9500000000000001E-002   -0.31916814955365652     
   7.9800000000000010E-002     1.0132233161154296     
   8.0100000000000018E-002     2.3648392177582420     
   8.0399999999999999E-002     3.6757201140850460     
   8.0700000000000008E-002     4.8852104107891368     
   8.1000000000000003E-002     5.9333142185473600     
   8.1299999999999997E-002     6.7676371472711825     
   8.1600000000000006E-002     7.3459156894269597     
   8.1900000000000014E-002     7.6386579442549953     
   8.2199999999999995E-002     7.6323908781291010     
   8.2500000000000004E-002     7.3289307643661274     
   8.2799999999999999E-002     6.7463015709931247     
   8.3100000000000007E-002     5.9165152839794599     
   8.3400000000000002E-002     4.8833136063280591     
   8.3700000000000011E-002     3.6996183096600714     
   8.4000000000000005E-002     2.4237933081088547     
   8.4300000000000000E-002     1.1170618692041343     
   8.4599999999999995E-002   -0.16100115038119925     
   8.4900000000000003E-002    -1.3532552077497644     
   8.5199999999999998E-002    -2.4083096112620277     
   8.5500000000000007E-002    -3.2823299288337453     
   8.5800000000000001E-002    -3.9394921012103645     
   8.6100000000000010E-002    -4.3541415744507370     
   8.6399999999999991E-002    -4.5093944992474997     
   8.6699999999999999E-002    -4.3993681359158137     
   8.7000000000000008E-002    -4.0289023816946026     
   8.7300000000000003E-002    -3.4128693111012613     
   8.7599999999999997E-002    -2.5785657049954605     
   8.7900000000000006E-002    -1.5620893284123629     
   8.8200000000000014E-002   -0.41030394510884871     
   8.8499999999999995E-002    0.82071412780155584     
   8.8800000000000004E-002     2.0686476684446182     
   8.9100000000000013E-002     3.2649054714464714     
   8.9399999999999993E-002     4.3411927144482982     
   8.9700000000000002E-002     5.2294816643396675     
   9.0000000000000011E-002     5.8682240895721858     
   9.0299999999999991E-002     6.2068475958477363     
   9.0600000000000000E-002     6.2067999006915873     
   9.0900000000000009E-002     5.8489436216562085     
   9.1200000000000017E-002     5.1325873457119888     
   9.1499999999999998E-002     4.0791200802352057     
   9.1800000000000007E-002     2.7308399028609158     
   9.2100000000000001E-002     1.1486596603326811     
   9.2399999999999996E-002   -0.58785071361070207     
   9.2700000000000005E-002    -2.3885142805857860     
   9.3000000000000013E-002    -4.1550402417115215     
   9.3300000000000008E-002    -5.7874126012008231     
   9.3600000000000003E-002    -7.1919397731923134     
   9.3899999999999997E-002    -8.2854384708849356     
   9.4200000000000006E-002    -9.0021933820072562     
   9.4500000000000001E-002    -9.2974557239023081     
   9.4800000000000009E-002    -9.1517810305621818     
   9.5100000000000004E-002    -8.5716848039566464     
   9.5399999999999999E-002    -7.5899233713084175     
   9.5699999999999993E-002    -6.2646007687788119     
   9.6000000000000002E-002    -4.6732802804297542     
   9.6300000000000011E-002    -2.9099534217360277     
   9.6600000000000005E-002    -1.0769234573268238     
   9.6900000000000000E-002    0.72161276791940765     
   9.7200000000000009E-002     2.3867634609589583     
   9.7499999999999989E-002     3.8329967318530103     
   9.7799999999999998E-002     4.9924506067505874     
   9.8100000000000007E-002     5.8214940083483038     
   9.8400000000000015E-002     6.3026484695956180     
   9.8699999999999996E-002     6.4442285986565153     
   9.9000000000000005E-002     6.2793159251331216     
   9.9300000000000013E-002     5.8616600086050630     
   9.9599999999999994E-002     5.2596888864235689     
   9.9900000000000003E-002     4.5489183040977128     
  0.10020000000000001          3.8055048759887606     
  0.10049999999999999          3.0970314467525650     
  0.10080000000000000          2.4772182513650702     
  0.10110000000000001          1.9806420631913719     
  0.10140000000000000          1.6194451834556933     
  0.10170000000000000          1.3854792994485126     
  0.10200000000000001          1.2496534121154268     
  0.10230000000000002          1.1685560292867472     
  0.10260000000000000          1.0906823016781142     
  0.10290000000000001         0.96238870627762607     
  0.10320000000000000         0.73733400386019632     
  0.10350000000000001         0.38093990201568445     
  0.10380000000000000        -0.12469613623456190     
  0.10410000000000001        -0.77666646191900857     
  0.10440000000000001         -1.5544338915770248     
  0.10470000000000000         -2.4193454537865207     
  0.10500000000000000         -3.3204227266807611     
  0.10530000000000000         -4.2014585301412710     
  0.10560000000000000         -5.0048614270722824     
  0.10590000000000001         -5.6808796591628177     
  0.10620000000000000         -6.1908107391911420     
  0.10650000000000001         -6.5109506162170563     
  0.10679999999999999         -6.6344466638701043     
  0.10710000000000000         -6.5682115912172065     
  0.10740000000000001         -6.3326411542607550     
  0.10770000000000000         -5.9561414965334487     
  0.10800000000000000         -5.4708986493700849     
  0.10830000000000001         -4.9083461946480895     
  0.10859999999999999         -4.2937379053372338     
  0.10890000000000000         -3.6453652538384933     
  0.10920000000000001         -2.9711270475834093     
  0.10950000000000001         -2.2716276771254877     
  0.10979999999999999         -1.5410995579477249     
  0.11009999999999999        -0.76761663517733425     
  0.11040000000000001          5.9328142607124573E-002
  0.11070000000000001         0.94831491253772637     
  0.11100000000000000          1.9024049205729807     
  0.11130000000000000          2.9155941278354685     
  0.11160000000000002          3.9736149697425893     
  0.11190000000000001          5.0528789082249030     
  0.11220000000000001          6.1223493276583216     
  0.11250000000000000          7.1455908614494339     
  0.11280000000000000          8.0823174453781892     
  0.11309999999999999          8.8938456641723178     
  0.11340000000000001          9.5441848021199256     
  0.11369999999999998          10.002340443652884     
  0.11400000000000000          10.247971668212999     
  0.11430000000000000          10.268375533812472     
  0.11460000000000002          10.061291832120880     
  0.11489999999999999          9.6349221613984604     
  0.11520000000000001          9.0028973897527447     
  0.11550000000000001          8.1876498439589618     
  0.11580000000000000          7.2136131373205643     
  0.11609999999999999          6.1060224469992761     
  0.11640000000000002          4.8917055845506958     
  0.11670000000000001          3.5905929140228832     
  0.11700000000000001          2.2233739226092246     
  0.11730000000000000         0.80764163640868092     
  0.11760000000000000        -0.64274359874887999     
  0.11789999999999999         -2.1101224775589453     
  0.11820000000000001         -3.5783231857621023     
  0.11850000000000001         -5.0255552191069066     
  0.11880000000000000         -6.4265090142939343     
  0.11910000000000000         -7.7525607506979730     
  0.11940000000000002         -8.9704953817722384     
  0.11970000000000001         -10.049284158394983     
  0.12000000000000001         -10.959679795542527     
  0.12030000000000000         -11.678261004880026     
  0.12060000000000000         -12.190721717222564     
  0.12089999999999999         -12.492106641327721     
  0.12119999999999999         -12.587776380679614     
  0.12150000000000001         -12.489764399448648     
  0.12180000000000001         -12.216605359140706     
  0.12210000000000000         -11.785712401136747     
  0.12239999999999999         -11.210477975038810     
  0.12270000000000002         -10.496564046094843     
  0.12300000000000001         -9.6382628742265624     
  0.12330000000000001         -8.6215087156353931     
  0.12360000000000000         -7.4224663872277157     
  0.12390000000000000         -6.0153165850874553     
  0.12419999999999999         -4.3785277249988130     
  0.12450000000000001         -2.5006127978920683     
  0.12480000000000001        -0.38989505400034830     
  0.12509999999999999          1.9231159754542113     
  0.12540000000000001          4.3813353121977565     
  0.12570000000000003          6.9030805705633922     
  0.12600000000000000          9.3888017377885475     
  0.12630000000000002          11.726598957837817     
  0.12659999999999999          13.808210640194556     
  0.12690000000000001          15.537682839642954     
  0.12719999999999998          16.844528530527061     
  0.12750000000000000          17.693167075336483     
  0.12780000000000002          18.085335115290114     
  0.12809999999999999          18.064327558590314     
  0.12840000000000001          17.703090957673364     
  0.12869999999999998          17.095873135386185     
  0.12900000000000000          16.341659769290089     
  0.12930000000000003          15.525113302865112     
  0.12959999999999999          14.701745214481200     
  0.12990000000000002          13.879672229444978     
  0.13019999999999998          13.014033507303862     
  0.13050000000000000          12.003018589865128     
  0.13080000000000003          10.697598693112122     
  0.13109999999999999          8.9185097397685009     
  0.13140000000000002          6.4765632404358611     
  0.13169999999999998          3.2076308805413305     
  0.13200000000000001         -1.0013000194597443     
  0.13229999999999997         -6.1786855577377313     
  0.13260000000000000         -12.246266388613540     
  0.13290000000000002         -19.007993891085505     
  0.13319999999999999         -26.142204679192503     
  0.13350000000000001         -33.224270481293175     
  0.13380000000000003         -39.745358349993829     
  0.13410000000000000         -45.155671207669677     
  0.13440000000000002         -48.914880053121955     
  0.13469999999999999         -50.536599523449567     
  0.13500000000000001         -49.650960368536680     
  0.13529999999999998         -46.036740654429899     
  0.13560000000000000         -39.661786293732675     
  0.13590000000000002         -30.702074994690037     
  0.13619999999999999         -19.528175998914648     
  0.13650000000000001         -6.7002919207582829     
  0.13680000000000003          7.0770965690586412     
  0.13710000000000000          21.006655248962470     
  0.13740000000000002          34.249154032520813     
  0.13769999999999999          45.996186538981519     
  0.13800000000000001          55.525964338412805     
  0.13829999999999998          62.254987505762571     
  0.13860000000000000          65.787950393880820     
  0.13890000000000002          65.931001528394546     
  0.13919999999999999          62.709893933573021     
  0.13950000000000001          56.364030388372186     
  0.13979999999999998          47.311642874451827     
  0.14010000000000000          36.127735987200410     
  0.14040000000000002          23.492851741130622     
  0.14069999999999999          10.141821016901927     
  0.14100000000000001         -3.1771123569009121     
  0.14130000000000004         -15.764075864166323     
  0.14160000000000000         -26.992285642011552     
  0.14189999999999997         -36.352585927344535     
  0.14219999999999999         -43.473531055411527     
  0.14250000000000002         -48.127412208081410     
  0.14279999999999998         -50.244363204336359     
  0.14310000000000000         -49.893384294395197     
  0.14339999999999997         -47.273984153794089     
  0.14369999999999999         -42.693013225950367     
  0.14400000000000002         -36.534100370106358     
  0.14429999999999998         -29.236322975935863     
  0.14460000000000001         -21.256536831543343     
  0.14490000000000003         -13.046649107594970     
  0.14520000000000000         -5.0274814811499189     
  0.14550000000000002          2.4361577168041761     
  0.14579999999999999          9.0453609621639330     
  0.14610000000000001          14.581723718901223     
  0.14640000000000003          18.907660107777232     
  0.14670000000000000          21.966580049414723     
  0.14699999999999996          23.774902957482105     
  0.14729999999999999          24.411385169934700     
  0.14760000000000001          24.006706775482360     
  0.14789999999999998          22.722088331962674     
  0.14820000000000000          20.740389266054361     