  -1.4999999999999999E-002     0.0000000000000000     
  -1.4700000000000000E-002     0.0000000000000000     
  -1.4400000000000000E-002     0.0000000000000000     
  -1.4100000000000000E-002     0.0000000000000000     
  -1.3800000000000000E-002     0.0000000000000000     
  -1.3500000000000000E-002     0.0000000000000000     
  -1.3200000000000000E-002     0.0000000000000000     
  -1.2899999999999998E-002     0.0000000000000000     
  -1.2600000000000000E-002     0.0000000000000000     
  -1.2299999999999998E-002     0.0000000000000000     
  -1.2000000000000000E-002     0.0000000000000000     
  -1.1699999999999999E-002     0.0000000000000000     
  -1.1399999999999999E-002     0.0000000000000000     
  -1.1099999999999999E-002     0.0000000000000000     
  -1.0799999999999999E-002     0.0000000000000000     
  -1.0499999999999999E-002     0.0000000000000000     
  -1.0199999999999999E-002     0.0000000000000000     
  -9.8999999999999991E-003     0.0000000000000000     
  -9.5999999999999992E-003     0.0000000000000000     
  -9.2999999999999992E-003     0.0000000000000000     
  -8.9999999999999993E-003     0.0000000000000000     
  -8.6999999999999994E-003     0.0000000000000000     
  -8.3999999999999995E-003     0.0000000000000000     
  -8.0999999999999996E-003     0.0000000000000000     
  -7.7999999999999988E-003     0.0000000000000000     
  -7.4999999999999997E-003     0.0000000000000000     
  -7.1999999999999998E-003     0.0000000000000000     
  -6.8999999999999981E-003     0.0000000000000000     
  -6.5999999999999982E-003     0.0000000000000000     
  -6.3000000000000000E-003     0.0000000000000000     
  -6.0000000000000001E-003     0.0000000000000000     
  -5.6999999999999985E-003     0.0000000000000000     
  -5.3999999999999986E-003     0.0000000000000000     
  -5.1000000000000004E-003     0.0000000000000000     
  -4.7999999999999987E-003     0.0000000000000000     
  -4.5000000000000005E-003     0.0000000000000000     
  -4.1999999999999989E-003     0.0000000000000000     
  -3.8999999999999990E-003     0.0000000000000000     
  -3.5999999999999990E-003     5.7126649957096071E-043
  -3.2999999999999991E-003    -4.2343000569953807E-041
  -2.9999999999999992E-003    -4.8709677411603185E-038
  -2.6999999999999993E-003    -4.8167489795991706E-037
  -2.3999999999999994E-003     8.9661463465679811E-036
  -2.0999999999999977E-003    -1.1114595844237099E-035
  -1.7999999999999995E-003    -1.1211408177960725E-034
  -1.4999999999999979E-003     8.6639855784662435E-034
  -1.1999999999999997E-003    -3.2547778538075387E-033
  -8.9999999999999976E-004     7.4776735012286271E-033
  -5.9999999999999810E-004    -1.3828887053926441E-032
  -2.9999999999999992E-004     3.3029572586776351E-032
   0.0000000000000000         -1.1855656786015220E-031
   3.0000000000000165E-004     3.3742435739685037E-031
   5.9999999999999984E-004    -2.3531953833230457E-031
   9.0000000000000149E-004    -3.4613146873169718E-030
   1.2000000000000031E-003     2.2744347043596217E-029
   1.5000000000000013E-003    -8.7172143513241274E-029
   1.8000000000000030E-003     2.4419211212542477E-028
   2.1000000000000012E-003    -5.1616120924239937E-028
   2.3999999999999994E-003     7.4996673585259141E-028
   2.7000000000000010E-003    -2.8219822612918816E-028
   2.9999999999999992E-003    -2.6350760495858852E-027
   3.3000000000000008E-003     1.1686653112419749E-026
   3.6000000000000025E-003    -3.3793083208060539E-026
   3.9000000000000007E-003     8.1415893261197456E-026
   4.2000000000000023E-003    -1.7675260533250373E-025
   4.5000000000000005E-003     3.5763030844907627E-025
   4.7999999999999987E-003    -6.8013782350662396E-025
   5.1000000000000004E-003     1.2029657483329586E-024
   5.4000000000000020E-003    -1.9246547694814834E-024
   5.7000000000000037E-003     2.6274141561223477E-024
   5.9999999999999984E-003    -2.5255722687173987E-024
   6.3000000000000000E-003    -5.9885773379110212E-025
   6.6000000000000017E-003     1.2514445044824842E-023
   6.9000000000000034E-003    -4.5915409357164689E-023
   7.2000000000000015E-003     1.1581406668391079E-022
   7.5000000000000032E-003    -1.7881608525870712E-022
   7.8000000000000014E-003    -1.2958888926912741E-022
   8.0999999999999996E-003     2.2080485902858592E-021
   8.4000000000000012E-003    -9.4955518280614596E-021
   8.7000000000000029E-003     2.5573616099080624E-020
   9.0000000000000011E-003    -3.3309900049440866E-020
   9.2999999999999992E-003    -1.0751565830644643E-019
   9.6000000000000009E-003     1.0730448985662645E-018
   9.8999999999999991E-003    -5.6630465152985007E-018
   1.0200000000000001E-002     2.5049990976351902E-017
   1.0500000000000002E-002    -1.0441525513945690E-016
   1.0800000000000004E-002     4.2995884844354859E-016
   1.1099999999999999E-002    -1.7629737660448404E-015
   1.1400000000000000E-002     7.0587979961998809E-015
   1.1700000000000002E-002    -2.6619186822782671E-014
   1.2000000000000004E-002     9.0038953351704831E-014
   1.2300000000000002E-002    -2.5338251819597742E-013
   1.2600000000000000E-002     4.9537381248433104E-013
   1.2900000000000002E-002    -9.1731270674808622E-014
   1.3200000000000000E-002    -4.2737998887518896E-012
   1.3500000000000002E-002     2.0466533895505050E-011
   1.3800000000000003E-002    -5.0903936026978138E-011
   1.4100000000000001E-002     4.0220544656684654E-011
   1.4400000000000000E-002     2.0398745795995102E-010
   1.4700000000000001E-002    -8.1638619333934633E-010
   1.4999999999999999E-002     8.3631009247984319E-010
   1.5300000000000001E-002     2.5349875493828312E-009
   1.5600000000000003E-002    -7.9576898593836481E-009
   1.5899999999999997E-002    -1.5223420002644519E-009
   1.6199999999999999E-002     3.3138099563877341E-008
   1.6500000000000001E-002    -1.2412303099585001E-008
   1.6800000000000002E-002    -1.1978881112785109E-007
   1.7100000000000004E-002     2.2070434049857310E-008
   1.7400000000000006E-002     3.6564808729269376E-007
   1.7700000000000000E-002     9.0831298409387670E-008
   1.8000000000000002E-002    -9.5117420897196282E-007
   1.8300000000000004E-002    -7.0337295636531192E-007
   1.8600000000000005E-002     2.9995003505465502E-006
   1.8900000000000000E-002     8.5490945169328417E-006
   1.9200000000000002E-002     1.2015856297183963E-005
   1.9500000000000003E-002     1.3852359006126136E-005
   1.9799999999999998E-002     2.0482331921385395E-005
   2.0100000000000000E-002     3.6742088135820719E-005
   2.0400000000000001E-002     6.0600139462247065E-005
   2.0700000000000003E-002     8.9777516889038967E-005
   2.0999999999999998E-002     1.3101165305058547E-004
   2.1299999999999999E-002     1.9724669623657543E-004
   2.1600000000000001E-002     2.9722459729350362E-004
   2.1900000000000003E-002     4.3531040084346075E-004
   2.2200000000000004E-002     6.2299075117385925E-004
   2.2500000000000006E-002     8.8344026066502850E-004
   2.2800000000000001E-002     1.2413474510385792E-003
   2.3100000000000002E-002     1.7147493930577227E-003
   2.3400000000000004E-002     2.3229277712190316E-003
   2.3699999999999999E-002     3.0968149131056530E-003
   2.4000000000000000E-002     4.0716694709333088E-003
   2.4300000000000002E-002     5.2701490539801468E-003
   2.4599999999999997E-002     6.6992104679298439E-003
   2.4900000000000005E-002     8.3574967064318790E-003
   2.5200000000000000E-002     1.0231259678993663E-002
   2.5499999999999995E-002     1.2276270502074168E-002
   2.5800000000000003E-002     1.4405930564953694E-002
   2.6099999999999998E-002     1.6494651041544042E-002
   2.6400000000000007E-002     1.8378303683075057E-002
   2.6700000000000002E-002     1.9845458512961635E-002
   2.6999999999999996E-002     2.0633483546117132E-002
   2.7300000000000005E-002     2.0441891318926025E-002
   2.7600000000000000E-002     1.8953666715065889E-002
   2.7900000000000008E-002     1.5848128469178154E-002
   2.8200000000000003E-002     1.0820576324553782E-002
   2.8499999999999998E-002     3.6229598583866081E-003
   2.8800000000000006E-002    -5.8900830928049781E-003
   2.9100000000000001E-002    -1.7734447304842561E-002
   2.9400000000000003E-002    -3.1776982851812345E-002
   2.9700000000000004E-002    -4.7704439796191933E-002
   3.0000000000000006E-002    -6.4989333579481126E-002
   3.0300000000000001E-002    -8.2893963274632387E-002
   3.0600000000000002E-002   -0.10051019271994736     
   3.0900000000000004E-002   -0.11678910836393872     
   3.1199999999999999E-002   -0.13057419105492726     
   3.1500000000000007E-002   -0.14066354332901912     
   3.1800000000000002E-002   -0.14588899291756594     
   3.2099999999999997E-002   -0.14520730319288480     
   3.2400000000000005E-002   -0.13777470911316575     
   3.2700000000000000E-002   -0.12299056565283104     
   3.3000000000000002E-002   -0.10055479206163298     
   3.3300000000000003E-002    -7.0531157646683634E-002
   3.3599999999999998E-002    -3.3348089783450267E-002
   3.3900000000000000E-002     1.0199005114674439E-002
   3.4200000000000001E-002     5.8965553569941792E-002
   3.4500000000000003E-002    0.11147620145731020     
   3.4799999999999998E-002    0.16595032768094431     
   3.5099999999999999E-002    0.22035471580356555     
   3.5400000000000001E-002    0.27244819731180941     
   3.5699999999999996E-002    0.31984249174544593     
   3.6000000000000004E-002    0.36005691169828052     
   3.6299999999999999E-002    0.39061322275113097     
   3.6600000000000008E-002    0.40915575475845845     
   3.6900000000000002E-002    0.41354031639031996     
   3.7199999999999997E-002    0.40196722985180178     
   3.7500000000000006E-002    0.37316908351921851     
   3.7800000000000000E-002    0.32651472273392612     
   3.8100000000000009E-002    0.26217832797452983     
   3.8400000000000004E-002    0.18122461784359439     
   3.8699999999999998E-002     8.5695909445342999E-002
   3.9000000000000007E-002    -2.1371331449894469E-002
   3.9300000000000002E-002   -0.13613009387204744     
   3.9600000000000003E-002   -0.25401746892991234     
   3.9900000000000005E-002   -0.36994842620410112     
   4.0200000000000000E-002   -0.47874895548781116     
   4.0500000000000001E-002   -0.57546280449110698     
   4.0800000000000003E-002   -0.65568575020327002     
   4.1100000000000005E-002   -0.71594998029635570     
   4.1399999999999999E-002   -0.75399313313821126     
   4.1700000000000008E-002   -0.76894031485309977     
   4.2000000000000003E-002   -0.76125881947990193     
   4.2299999999999997E-002   -0.73265293632936901     
   4.2600000000000006E-002   -0.68581318976597894     
   4.2900000000000001E-002   -0.62402233110902272     
   4.3200000000000002E-002   -0.55069340569224468     
   4.3500000000000004E-002   -0.46883301350785062     
   4.3799999999999999E-002   -0.38062546239951256     
   4.4100000000000000E-002   -0.28726538360892717     
   4.4400000000000002E-002   -0.18874387110938551     
   4.4700000000000004E-002    -8.3879324931217719E-002
   4.4999999999999998E-002     2.9267476076627039E-002
   4.5300000000000000E-002    0.15284485455106447     
   4.5600000000000002E-002    0.28863849021390842     
   4.5899999999999996E-002    0.43737943063745272     
   4.6200000000000005E-002    0.59811722681907042     
   4.6500000000000000E-002    0.76768312279860296     
   4.6799999999999994E-002    0.94045224118403836     
   4.7100000000000003E-002     1.1086688762352965     
   4.7399999999999998E-002     1.2627086097148852     
   4.7700000000000006E-002     1.3917783935056047     
   4.8000000000000001E-002     1.4850675488750604     
   4.8300000000000010E-002     1.5327534230621889     
   4.8600000000000004E-002     1.5271010370489584     
   4.8899999999999999E-002     1.4633819850986653     
   4.9200000000000008E-002     1.3404727345758156     
   4.9500000000000002E-002     1.1612141134483236     
   4.9800000000000011E-002    0.93214233079686926     
   5.0100000000000006E-002    0.66295554088036823     
   5.0400000000000000E-002    0.36560885166566132     
   5.0700000000000009E-002     5.3239447698227749E-002
   5.1000000000000004E-002   -0.26097971868769099     
   5.1299999999999998E-002   -0.56504032989166997     
   5.1600000000000007E-002   -0.84892476391994598     
   5.1900000000000002E-002    -1.1049986988033889     
   5.2200000000000010E-002    -1.3281666370527927     
   5.2500000000000005E-002    -1.5157968329186144     
   5.2800000000000000E-002    -1.6670218411050197     
   5.3099999999999994E-002    -1.7818762506290917     
   5.3400000000000003E-002    -1.8604949428639337     
   5.3699999999999998E-002    -1.9022818324053707     
   5.4000000000000006E-002    -1.9055036900691871     
   5.4300000000000001E-002    -1.8669018748134207     
   5.4599999999999996E-002    -1.7816363972527596     
   5.4900000000000004E-002    -1.6440863508898762     
   5.5199999999999999E-002    -1.4487544599180509     
   5.5499999999999994E-002    -1.1912781841211189     
   5.5800000000000002E-002   -0.86966170771943763     
   5.6099999999999997E-002   -0.48535916728837369     
   5.6400000000000006E-002    -4.4441572175639321E-002
   5.6700000000000000E-002    0.44177069063405899     
   5.6999999999999995E-002    0.95660969138237217     
   5.7300000000000004E-002     1.4787345163337424     
   5.7599999999999998E-002     1.9830304198780286     
   5.7900000000000007E-002     2.4417575246624708     
   5.8200000000000002E-002     2.8266400259494096     
   5.8499999999999996E-002     3.1113261497864775     
   5.8800000000000005E-002     3.2733379770148949     
   5.9100000000000000E-002     3.2959801658355876     
   5.9400000000000008E-002     3.1702785764933537     
   5.9700000000000003E-002     2.8963418007367707     
   6.0000000000000012E-002     2.4836195135672723     
   6.0300000000000006E-002     1.9507734903559322     
   6.0600000000000001E-002     1.3246718270199438     
   6.0900000000000010E-002    0.63878686957324082     
   6.1200000000000004E-002    -6.8981318516081941E-002
   6.1500000000000013E-002   -0.75934813384666811     
   6.1800000000000008E-002    -1.3943455427732334     
   6.2100000000000002E-002    -1.9398612950914380     
   6.2399999999999997E-002    -2.3683458205457590     
   6.2700000000000006E-002    -2.6607919927564501     
   6.3000000000000000E-002    -2.8077418591252239     
   6.3300000000000009E-002    -2.8097167327912542     
   6.3600000000000004E-002    -2.6764954709587245     
   6.3899999999999998E-002    -2.4264116541192196     
   6.4199999999999993E-002    -2.0842811196670201     
   6.4500000000000002E-002    -1.6785887887294055     
   6.4800000000000010E-002    -1.2396350685293824     
   6.5100000000000005E-002   -0.79713725524201062     
   6.5400000000000000E-002   -0.37749866485079908     
   6.5700000000000008E-002    -2.5191910949558111E-003
   6.5999999999999989E-002    0.31156842583046851     
   6.6299999999999998E-002    0.55479029090599108     
   6.6600000000000006E-002    0.72332964403898936     
   6.6900000000000001E-002    0.81870283682055189     
   6.7199999999999996E-002    0.84656179008001065     
   6.7500000000000004E-002    0.81585382646383231     
   6.7800000000000013E-002    0.73756439181744071     
   6.8099999999999994E-002    0.62312679145976602     
   6.8400000000000002E-002    0.48384591979244423     
   6.8700000000000011E-002    0.33054917648442189     
   6.8999999999999992E-002    0.17287134402957965     
   6.9300000000000000E-002     1.9329738266775601E-002
   6.9600000000000009E-002   -0.12236755155674839     
   6.9900000000000004E-002   -0.24571380815663146     
   7.0199999999999999E-002   -0.34518498711665591     
   7.0500000000000007E-002   -0.41620874348468384     
   7.0800000000000016E-002   -0.45598153188555757     
   7.1099999999999997E-002   -0.46398850978702222     
   7.1400000000000005E-002   -0.44273658657969589     
   7.1700000000000000E-002   -0.39823644745351466     
   7.1999999999999995E-002   -0.34033139638646315     
   7.2300000000000003E-002   -0.28300374384865695     
   7.2600000000000012E-002   -0.24342169522416512     
   7.2900000000000006E-002   -0.24065863424925121     
   7.3200000000000001E-002   -0.29409067071939826     
   7.3499999999999996E-002   -0.42062389194132016     
   7.3800000000000004E-002   -0.63226675319989301     
   7.4099999999999999E-002   -0.93386445251279193     
   7.4400000000000008E-002    -1.3206243222069189     
   7.4700000000000003E-002    -1.7766924165013909     
   7.5000000000000011E-002    -2.2754699533005009     
   7.5299999999999992E-002    -2.7806529064205017     
   7.5600000000000001E-002    -3.2484974659904160     
   7.5900000000000009E-002    -3.6311990026169974     
   7.6200000000000004E-002    -3.8813223747626990     
   7.6499999999999999E-002    -3.9570001550286324     
   7.6800000000000007E-002    -3.8257184206152841     
   7.7099999999999988E-002    -3.4683164884308901     
   7.7399999999999997E-002    -2.8819672372176539     
   7.7700000000000005E-002    -2.0806907740517122     
   7.8000000000000014E-002    -1.0949915532983887     
   7.8299999999999995E-002     3.0713791089891584E-002
   7.8600000000000003E-002     1.2419789350980990     
   7.8900000000000012E-002     2.4781375592950838     
   7.9199999999999993E-002     3.6782086967242940     
   7.9500000000000001E-002     4.7862876892145660     
   7.9800000000000010E-002     5.7544698170036446     
   8.0100000000000018E-002     6.5463681048384785     
   8.0399999999999999E-002     7.1392602457055476     
   8.0700000000000008E-002     7.5238755018766650     
   8.1000000000000003E-002     7.7028043777452702     
   8.1299999999999997E-002     7.6883863775870740     
   8.1600000000000006E-002     7.5002138004275594     
   8.1900000000000014E-002     7.1618672400800918     
   8.2199999999999995E-002     6.6977953753571198     
   8.2500000000000004E-002     6.1316160340863686     
   8.2799999999999999E-002     5.4849342553002707     
   8.3100000000000007E-002     4.7764261123087621     
   8.3400000000000002E-002     4.0226055905009783     
   8.3700000000000011E-002     3.2390993372897352     
   8.4000000000000005E-002     2.4414485662665069     
   8.4300000000000000E-002     1.6462155660255495     
   8.4599999999999995E-002    0.87159380512433504     
   8.4900000000000003E-002    0.13726554260945603     
   8.5199999999999998E-002   -0.53628803173549067     
   8.5500000000000007E-002    -1.1300267086897955     
   8.5800000000000001E-002    -1.6282098028973626     
   8.6100000000000010E-002    -2.0206275563958362     
   8.6399999999999991E-002    -2.3055486096038895     
   8.6699999999999999E-002    -2.4905596180253649     
   8.7000000000000008E-002    -2.5933356100575926     
   8.7300000000000003E-002    -2.6411762908069489     
   8.7599999999999997E-002    -2.6688629112594211     
   8.7900000000000006E-002    -2.7150975157644464     
   8.8200000000000014E-002    -2.8183710905215857     
   8.8499999999999995E-002    -3.0130046683986098     
   8.8800000000000004E-002    -3.3240511504145336     
   8.9100000000000013E-002    -3.7629650531077350     
   8.9399999999999993E-002    -4.3259389134093027     
   8.9700000000000002E-002    -4.9927668896433932     
   9.0000000000000011E-002    -5.7271303579081545     
   9.0299999999999991E-002    -6.4800440800727674     
   9.0600000000000000E-002    -7.1941347530512472     
   9.0900000000000009E-002    -7.8086679269437553     
   9.1200000000000017E-002    -8.2659036195081708     
   9.1499999999999998E-002    -8.5168492434260745     
   9.1800000000000007E-002    -8.5258589182768620     
   9.2100000000000001E-002    -8.2742075596931102     
   9.2399999999999996E-002    -7.7619558024271775     
   9.2700000000000005E-002    -7.0076239615832456     
   9.3000000000000013E-002    -6.0463278172782200     
   9.3300000000000008E-002    -4.9258484233570501     
   9.3600000000000003E-002    -3.7015885045548336     
   9.3899999999999997E-002    -2.4323887463324541     
   9.4200000000000006E-002    -1.1746689839079356     
   9.4500000000000001E-002     2.1880004182844887E-002
   9.4800000000000009E-002     1.1177986892642795     
   9.5100000000000004E-002     2.0862901468703767     
   9.5399999999999999E-002     2.9127460903419977     
   9.5699999999999993E-002     3.5956030443775329     
   9.6000000000000002E-002     4.1446992863807131     
   9.6300000000000011E-002     4.5771278930034534     
   9.6600000000000005E-002     4.9156870371368164     
   9.6900000000000000E-002     5.1855796380324071     
   9.7200000000000009E-002     5.4106651835922444     
   9.7499999999999989E-002     5.6117836569173720     
   9.7799999999999998E-002     5.8039841285468734     
   9.8100000000000007E-002     5.9960062286274294     
   9.8400000000000015E-002     6.1900049389095040     
   9.8699999999999996E-002     6.3800619083349153     
   9.9000000000000005E-002     6.5544098384171452     
   9.9300000000000013E-002     6.6969553796381494     
   9.9599999999999994E-002     6.7872583951763445     
   9.9900000000000003E-002     6.8036186196303063     
  0.10020000000000001          6.7247114969078412     
  0.10049999999999999          6.5300421793572578     
  0.10080000000000000          6.2027004259687377     
  0.10110000000000001          5.7297979598963016     
  0.10140000000000000          5.1037443958591719     
  0.10170000000000000          4.3232486189747208     
  0.10200000000000001          3.3919666983369541     
  0.10230000000000002          2.3209258171424572     
  0.10260000000000000          1.1284298132230051     
  0.10290000000000001        -0.16233114850356090     
  0.10320000000000000         -1.5207297164008884     
  0.10350000000000001         -2.9093038252576724     
  0.10380000000000000         -4.2860522181032046     
  0.10410000000000001         -5.6032413401043897     
  0.10440000000000001         -6.8097492513032751     
  0.10470000000000000         -7.8530797544388999     
  0.10500000000000000         -8.6813596510264794     
  0.10530000000000000         -9.2468014087051067     
  0.10560000000000000         -9.5079389501304465     
  0.10590000000000001         -9.4340088461429943     
  0.10620000000000000         -9.0087242787508988     
  0.10650000000000001         -8.2302967150182162     
  0.10679999999999999         -7.1148850160089054     
  0.10710000000000000         -5.6978790322101522     
  0.10740000000000001         -4.0305741791172576     
  0.10770000000000000         -2.1793829914949074     
  0.10800000000000000        -0.22226972399407252     
  0.10830000000000001          1.7566537455137556     
  0.10859999999999999          3.6708024946979387     
  0.10890000000000000          5.4373679853060572     
  0.10920000000000001          6.9821026579130754     
  0.10950000000000001          8.2423799012254655     
  0.10979999999999999          9.1713824554924290     
  0.11009999999999999          9.7389389590781086     
  0.11040000000000001          9.9319524237235068     
  0.11070000000000001          9.7553258404412286     
  0.11100000000000000          9.2282914977171551     
  0.11130000000000000          8.3827411102970188     
  0.11160000000000002          7.2617992996559426     
  0.11190000000000001          5.9154294008831512     
  0.11220000000000001          4.3984738483259456     
  0.11250000000000000          2.7691867918179689     
  0.11280000000000000          1.0852603030077896     
  0.11309999999999999        -0.59656664128980763     
  0.11340000000000001         -2.2221263052803293     
  0.11369999999999998         -3.7421201486354505     
  0.11400000000000000         -5.1114534013120458     
  0.11430000000000000         -6.2918923540834788     
  0.11460000000000002         -7.2522326145320486     
  0.11489999999999999         -7.9679231889694790     
  0.11520000000000001         -8.4238819912262599     
  0.11550000000000001         -8.6127086477488586     
  0.11580000000000000         -8.5349276481688818     
  0.11609999999999999         -8.2014045590049793     
  0.11640000000000002         -7.6302090688153292     
  0.11670000000000001         -6.8467982648970418     
  0.11700000000000001         -5.8853360696081882     
  0.11730000000000000         -4.7857154174263457     
  0.11760000000000000         -3.5935226973868577     
  0.11789999999999999         -2.3587184069983915     
  0.11820000000000001         -1.1329575482218770     
  0.11850000000000001          3.0298669610724582E-002
  0.11880000000000000          1.0802278487063433     
  0.11910000000000000          1.9709620597116264     
  0.11940000000000002          2.6622946663043137     
  0.11970000000000001          3.1254261870667883     
  0.12000000000000001          3.3437744470900657     
  0.12030000000000000          3.3136779812990427     
  0.12060000000000000          3.0483821111110467     
  0.12089999999999999          2.5763139639797088     
  0.12119999999999999          1.9396320282181350     
  0.12150000000000001          1.1935246105689532     
  0.12180000000000001         0.40158267948380189     
  0.12210000000000000        -0.36732539292400579     
  0.12239999999999999         -1.0443534345517338     
  0.12270000000000002         -1.5671443190016376     
  0.12300000000000001         -1.8825785622732680     
  0.12330000000000001         -1.9517700558570379     
  0.12360000000000000         -1.7548578712515552     
  0.12390000000000000         -1.2912580225838601     
  0.12419999999999999        -0.58111302618420790     
  0.12450000000000001         0.33593355399508396     
  0.12480000000000001          1.4043852973563997     
  0.12509999999999999          2.5547182553896932     
  0.12540000000000001          3.7106913173931364     
  0.12570000000000003          4.7952870742355049     
  0.12600000000000000          5.7340365014689452     
  0.12630000000000002          6.4628366459791353     
  0.12659999999999999          6.9323830869330010     
  0.12690000000000001          7.1105646060528231     
  0.12719999999999998          6.9855962832547442     
  0.12750000000000000          6.5658781849658920     
  0.12780000000000002          5.8787116755707380     
  0.12809999999999999          4.9678399717884094     
  0.12840000000000001          3.8891847014500085     
  0.12869999999999998          2.7063619004417805     
  0.12900000000000000          1.4860428071499752     
  0.12930000000000003         0.29220086118293143     
  0.12959999999999999        -0.81760155543204194     
  0.12990000000000002         -1.7963894107739393     
  0.13019999999999998         -2.6102188080405688     
  0.13050000000000000         -3.2378866063457123     
  0.13080000000000003         -3.6723357431155534     
  0.13109999999999999         -3.9203901795666432     
  0.13140000000000002         -3.9983335083444711     
  0.13169999999999998         -3.9301173279381283     
  0.13200000000000001         -3.7451778224450205     
  0.13229999999999997         -3.4755388419857347     
  0.13260000000000000         -3.1528792743610938     
  0.13290000000000002         -2.8047618515648551     
  0.13319999999999999         -2.4556426251980685     
  0.13350000000000001         -2.1260591857784314     
  0.13380000000000003         -1.8302703658678290     
  0.13410000000000000         -1.5774570775108561     
  0.13440000000000002         -1.3731084732958416     
  0.13469999999999999         -1.2194713729341959     
  0.13500000000000001         -1.1159008943912085     
  0.13529999999999998         -1.0594522640483546     
  0.13560000000000000         -1.0465198148646784     
  0.13590000000000002         -1.0725974722744456     
  0.13619999999999999         -1.1324541854316605     
  0.13650000000000001         -1.2198648584401885     
  0.13680000000000003         -1.3274618279422097     
  0.13710000000000000         -1.4471180398469932     
  0.13740000000000002         -1.5695656764882284     
  0.13769999999999999         -1.6843072684040390     
  0.13800000000000001         -1.7796179481209182     
  0.13829999999999998         -1.8432321891339436     
  0.13860000000000000         -1.8636038467449283     
  0.13890000000000002         -1.8293716965426770     
  0.13919999999999999         -1.7307320568217768     
  0.13950000000000001         -1.5610777962576214     
  0.13979999999999998         -1.3170102180986962     
  0.14010000000000000        -0.99856741947213878     
  0.14040000000000002        -0.60969558334186114     
  0.14069999999999999        -0.15976757020346233     
  0.14100000000000001         0.33793913318878532     
  0.14130000000000004         0.86750484200918287     
  0.14160000000000000          1.4097675405056003     
  0.14189999999999997          1.9434165907474341     
  0.14219999999999999          2.4466052986916269     
  0.14250000000000002          2.8990056197305418     
  0.14279999999999998          3.2819916180487252     
  0.14310000000000000          3.5794274366274266     
  0.14339999999999997          3.7804450824124149     
  0.14369999999999999          3.8785787458462826     
  0.14400000000000002          3.8724413966161570     
  0.14429999999999998          3.7663209740350858     
  0.14460000000000001          3.5686309831520826     
  0.14490000000000003          3.2927614910209586     
  0.14520000000000000          2.9550752560577092     
  0.14550000000000002          2.5736456678646049     
  0.14579999999999999          2.1676594462815251     
  0.14610000000000001          1.7555051339523398     
  0.14640000000000003          1.3546638875659223     
  0.14670000000000000         0.98085896667271655     
  0.14699999999999996         0.64637060405933855     
  0.14729999999999999         0.36009065563981979     
  0.14760000000000001         0.12742911004079660     
  0.14789999999999998         -5.0022397658013390E-002
  0.14820000000000000        -0.17463182883429992     