  -1.4999999999999999E-002     0.0000000000000000     
  -1.4700000000000000E-002     0.0000000000000000     
  -1.4400000000000000E-002     0.0000000000000000     
  -1.4100000000000000E-002     0.0000000000000000     
  -1.3800000000000000E-002     0.0000000000000000     
  -1.3500000000000000E-002     0.0000000000000000     
  -1.3200000000000000E-002     0.0000000000000000     
  -1.2899999999999998E-002     0.0000000000000000     
  -1.2600000000000000E-002     0.0000000000000000     
  -1.2299999999999998E-002     0.0000000000000000     
  -1.2000000000000000E-002     0.0000000000000000     
  -1.1699999999999999E-002     0.0000000000000000     
  -1.1399999999999999E-002     0.0000000000000000     
  -1.1099999999999999E-002     0.0000000000000000     
  -1.0799999999999999E-002     0.0000000000000000     
  -1.0499999999999999E-002     0.0000000000000000     
  -1.0199999999999999E-002     0.0000000000000000     
  -9.8999999999999991E-003     0.0000000000000000     
  -9.5999999999999992E-003     0.0000000000000000     
  -9.2999999999999992E-003     0.0000000000000000     
  -8.9999999999999993E-003     0.0000000000000000     
  -8.6999999999999994E-003     0.0000000000000000     
  -8.3999999999999995E-003     0.0000000000000000     
  -8.0999999999999996E-003     0.0000000000000000     
  -7.7999999999999988E-003     0.0000000000000000     
  -7.4999999999999997E-003     0.0000000000000000     
  -7.1999999999999998E-003     0.0000000000000000     
  -6.8999999999999981E-003     0.0000000000000000     
  -6.5999999999999982E-003     0.0000000000000000     
  -6.3000000000000000E-003     0.0000000000000000     
  -6.0000000000000001E-003     0.0000000000000000     
  -5.6999999999999985E-003     0.0000000000000000     
  -5.3999999999999986E-003     0.0000000000000000     
  -5.1000000000000004E-003     0.0000000000000000     
  -4.7999999999999987E-003     0.0000000000000000     
  -4.5000000000000005E-003     0.0000000000000000     
  -4.1999999999999989E-003     0.0000000000000000     
  -3.8999999999999990E-003     0.0000000000000000     
  -3.5999999999999990E-003     0.0000000000000000     
  -3.2999999999999991E-003     0.0000000000000000     
  -2.9999999999999992E-003     0.0000000000000000     
  -2.6999999999999993E-003     0.0000000000000000     
  -2.3999999999999994E-003     0.0000000000000000     
  -2.0999999999999977E-003     0.0000000000000000     
  -1.7999999999999995E-003     0.0000000000000000     
  -1.4999999999999979E-003     0.0000000000000000     
  -1.1999999999999997E-003     0.0000000000000000     
  -8.9999999999999976E-004     0.0000000000000000     
  -5.9999999999999810E-004     0.0000000000000000     
  -2.9999999999999992E-004     0.0000000000000000     
   0.0000000000000000          0.0000000000000000     
   3.0000000000000165E-004     0.0000000000000000     
   5.9999999999999984E-004     0.0000000000000000     
   9.0000000000000149E-004     0.0000000000000000     
   1.2000000000000031E-003     0.0000000000000000     
   1.5000000000000013E-003     0.0000000000000000     
   1.8000000000000030E-003     0.0000000000000000     
   2.1000000000000012E-003     0.0000000000000000     
   2.3999999999999994E-003     0.0000000000000000     
   2.7000000000000010E-003     0.0000000000000000     
   2.9999999999999992E-003     0.0000000000000000     
   3.3000000000000008E-003     0.0000000000000000     
   3.6000000000000025E-003     0.0000000000000000     
   3.9000000000000007E-003     0.0000000000000000     
   4.2000000000000023E-003     0.0000000000000000     
   4.5000000000000005E-003     0.0000000000000000     
   4.7999999999999987E-003     0.0000000000000000     
   5.1000000000000004E-003     0.0000000000000000     
   5.4000000000000020E-003     0.0000000000000000     
   5.7000000000000037E-003     0.0000000000000000     
   5.9999999999999984E-003     0.0000000000000000     
   6.3000000000000000E-003     0.0000000000000000     
   6.6000000000000017E-003     0.0000000000000000     
   6.9000000000000034E-003     0.0000000000000000     
   7.2000000000000015E-003     0.0000000000000000     
   7.5000000000000032E-003     0.0000000000000000     
   7.8000000000000014E-003     0.0000000000000000     
   8.0999999999999996E-003     0.0000000000000000     
   8.4000000000000012E-003     0.0000000000000000     
   8.7000000000000029E-003     0.0000000000000000     
   9.0000000000000011E-003     0.0000000000000000     
   9.2999999999999992E-003     4.2754473254335110E-073
   9.6000000000000009E-003    -2.6325893205023271E-044
   9.8999999999999991E-003    -8.8093654453294260E-044
   1.0200000000000001E-002    -7.6972218987884009E-038
   1.0500000000000002E-002    -1.7336214856779547E-035
   1.0800000000000004E-002    -4.9659701146857720E-035
   1.1099999999999999E-002     6.7122742757110294E-034
   1.1400000000000000E-002     4.6843955165885058E-033
   1.1700000000000002E-002    -2.6207690849394528E-032
   1.2000000000000004E-002    -1.2994031850730036E-031
   1.2300000000000002E-002     9.4779404206459083E-031
   1.2600000000000000E-002     1.1749019057437379E-030
   1.2900000000000002E-002    -2.5562250253234820E-029
   1.3200000000000000E-002     6.6820606870674075E-029
   1.3500000000000002E-002     2.2795408240065321E-028
   1.3800000000000003E-002    -2.2823806239514775E-027
   1.4100000000000001E-002     6.9498883139392205E-027
   1.4400000000000000E-002     4.8953071479292455E-027
   1.4700000000000001E-002    -1.3767177282833174E-025
   1.4999999999999999E-002     5.8624498064808719E-025
   1.5300000000000001E-002    -7.9937523514953086E-025
   1.5600000000000003E-002    -3.7999903741060989E-024
   1.5899999999999997E-002     2.4700422980799465E-023
   1.6199999999999999E-002    -5.5709109617397212E-023
   1.6500000000000001E-002    -5.6911217797403579E-023
   1.6800000000000002E-002     9.2826696519928398E-022
   1.7100000000000004E-002    -3.8675095979643713E-021
   1.7400000000000006E-002     9.4689283523343276E-021
   1.7700000000000000E-002    -9.9291735941850142E-021
   1.8000000000000002E-002    -3.5476587003151392E-020
   1.8300000000000004E-002     2.6506732634436219E-019
   1.8600000000000005E-002    -1.0836951123334410E-018
   1.8900000000000000E-002     3.6640154364546272E-018
   1.9200000000000002E-002    -1.1642907079949712E-017
   1.9500000000000003E-002     3.6979623440846100E-017
   1.9799999999999998E-002    -1.1798307575595846E-016
   2.0100000000000000E-002     3.5799533243110316E-016
   2.0400000000000001E-002    -8.9954684812310621E-016
   2.0700000000000003E-002     9.9838772952158589E-016
   2.0999999999999998E-002     7.6464963571034990E-015
   2.1299999999999999E-002    -7.4250066113676851E-014
   2.1600000000000001E-002     4.1521459758272898E-013
   2.1900000000000003E-002    -1.7489120225276917E-012
   2.2200000000000004E-002     5.6410422859977621E-012
   2.2500000000000006E-002    -1.2475924206663563E-011
   2.2800000000000001E-002     8.1952750144034853E-012
   2.3100000000000002E-002     7.2234410956278515E-011
   2.3400000000000004E-002    -3.6175197805022264E-010
   2.3699999999999999E-002     7.9806045677517157E-010
   2.4000000000000000E-002    -1.8017743655083822E-010
   2.4300000000000002E-002    -4.3176523214227282E-009
   2.4599999999999997E-002     1.1534755735119697E-008
   2.4900000000000005E-002    -2.1359455149231853E-009
   2.5200000000000000E-002    -4.8777405290337438E-008
   2.5499999999999995E-002     7.4290794408278570E-008
   2.5800000000000003E-002     1.0746578511158339E-007
   2.6099999999999998E-002    -3.3054509951312124E-007
   2.6400000000000007E-002    -2.3674020412810861E-007
   2.6700000000000002E-002     9.2665850043818769E-007
   2.6999999999999996E-002     8.0564572282032283E-007
   2.7300000000000005E-002    -2.1206955681495109E-006
   2.7600000000000000E-002    -3.6428638493717051E-006
   2.7900000000000008E-002     3.5973310059841942E-006
   2.8200000000000003E-002     2.2160742386660980E-005
   2.8499999999999998E-002     4.7754649258342968E-005
   2.8800000000000006E-002     7.7680291889702921E-005
   2.9100000000000001E-002     1.1798924245538335E-004
   2.9400000000000003E-002     1.8195519796418793E-004
   2.9700000000000004E-002     2.8678178196847419E-004
   3.0000000000000006E-002     4.5170189698281289E-004
   3.0300000000000001E-002     6.9992098744626140E-004
   3.0600000000000002E-002     1.0662599237974315E-003
   3.0900000000000004E-002     1.6019383916582161E-003
   3.1199999999999999E-002     2.3759917828952708E-003
   3.1500000000000007E-002     3.4800008881245774E-003
   3.1800000000000002E-002     5.0328504311259762E-003
   3.2099999999999997E-002     7.1826465454430857E-003
   3.2400000000000005E-002     1.0107237849364388E-002
   3.2700000000000000E-002     1.4015574013225198E-002
   3.3000000000000002E-002     1.9150126732302399E-002
   3.3300000000000003E-002     2.5777468467218612E-002
   3.3599999999999998E-002     3.4167177987689167E-002
   3.3900000000000000E-002     4.4570956395372743E-002
   3.4200000000000001E-002     5.7195238789724490E-002
   3.4500000000000003E-002     7.2156697537994724E-002
   3.4799999999999998E-002     8.9427731964164564E-002
   3.5099999999999999E-002    0.10877149556152794     
   3.5400000000000001E-002    0.12968023126258205     
   3.5699999999999996E-002    0.15131598716852829     
   3.6000000000000004E-002    0.17245011038474523     
   3.6299999999999999E-002    0.19143190987819200     
   3.6600000000000008E-002    0.20618407437048736     
   3.6900000000000002E-002    0.21423383066719415     
   3.7199999999999997E-002    0.21280787895373143     
   3.7500000000000006E-002    0.19897505651313313     
   3.7800000000000000E-002    0.16984500000867769     
   3.8100000000000009E-002    0.12285467245981505     
   3.8400000000000004E-002     5.6056037612351992E-002
   3.8699999999999998E-002    -3.1541690194660750E-002
   3.9000000000000007E-002   -0.13967195153913489     
   3.9300000000000002E-002   -0.26650482422362815     
   3.9600000000000003E-002   -0.40846189869487581     
   3.9900000000000005E-002   -0.56013768932071073     
   4.0200000000000000E-002   -0.71435719757727056     
   4.0500000000000001E-002   -0.86243075170626493     
   4.0800000000000003E-002   -0.99458456086485103     
   4.1100000000000005E-002    -1.1005233531748109     
   4.1399999999999999E-002    -1.1701902157290218     
   4.1700000000000008E-002    -1.1945312029804498     
   4.2000000000000003E-002    -1.1663355834165356     
   4.2299999999999997E-002    -1.0809934145925957     
   4.2600000000000006E-002   -0.93707174124445514     
   4.2900000000000001E-002   -0.73679602198787431     
   4.3200000000000002E-002   -0.48607748786772847     
   4.3500000000000004E-002   -0.19441692555097304     
   4.3799999999999999E-002    0.12552872295302003     
   4.4100000000000000E-002    0.45882442609382251     
   4.4400000000000002E-002    0.78907120265062014     
   4.4700000000000004E-002     1.0995395189442283     
   4.4999999999999998E-002     1.3744176634077303     
   4.5300000000000000E-002     1.5997765073831263     
   4.5600000000000002E-002     1.7645092021520961     
   4.5899999999999996E-002     1.8611944925846902     
   4.6200000000000005E-002     1.8862969887819976     
   4.6500000000000000E-002     1.8404142869143554     
   4.6799999999999994E-002     1.7281316530835142     
   4.7100000000000003E-002     1.5573141586034742     
   4.7399999999999998E-002     1.3386713276266089     
   4.7700000000000006E-002     1.0847558983472276     
   4.8000000000000001E-002    0.80895441835049442     
   4.8300000000000010E-002    0.52483779236206118     
   4.8600000000000004E-002    0.24502722942592670     
   4.8899999999999999E-002    -1.9300149720562400E-002
   4.9200000000000008E-002   -0.25893721001185666     
   4.9500000000000002E-002   -0.46713513170594662     
   4.9800000000000011E-002   -0.63943767598650769     
   5.0100000000000006E-002   -0.77380621498504909     
   5.0400000000000000E-002   -0.87037038879419293     
   5.0700000000000009E-002   -0.93091100539836158     
   5.1000000000000004E-002   -0.95876985879833765     
   5.1299999999999998E-002   -0.95812606906042508     
   5.1600000000000007E-002   -0.93364501095228614     
   5.1900000000000002E-002   -0.89032673929516637     
   5.2200000000000010E-002   -0.83284145683526112     
   5.2500000000000005E-002   -0.76554769362208497     
   5.2800000000000000E-002   -0.69238287287188816     
   5.3099999999999994E-002   -0.61650806733840469     
   5.3400000000000003E-002   -0.54069352208932953     
   5.3699999999999998E-002   -0.46713939357440382     
   5.4000000000000006E-002   -0.39744347372140282     
   5.4300000000000001E-002   -0.33305722502474699     
   5.4599999999999996E-002   -0.27502509968260536     
   5.4900000000000004E-002   -0.22416755564106378     
   5.5199999999999999E-002   -0.18130968508087938     
   5.5499999999999994E-002   -0.14690834271996012     
   5.5800000000000002E-002   -0.12136641870310620     
   5.6099999999999997E-002   -0.10491798790992013     
   5.6400000000000006E-002    -9.7316056165510464E-002
   5.6700000000000000E-002    -9.8182998228241031E-002
   5.6999999999999995E-002   -0.10658452619738611     
   5.7300000000000004E-002   -0.12103459943617396     
   5.7599999999999998E-002   -0.13976916630959438     
   5.7900000000000007E-002   -0.16031993888936147     
   5.8200000000000002E-002   -0.17990604012147698     
   5.8499999999999996E-002   -0.19554826593293040     
   5.8800000000000005E-002   -0.20394048080720739     
   5.9100000000000000E-002   -0.20207545158554632     
   5.9400000000000008E-002   -0.18723393985665815     
   5.9700000000000003E-002   -0.15709644578537837     
   6.0000000000000012E-002   -0.11041297798407751     
   6.0300000000000006E-002    -4.6707533761294925E-002
   6.0600000000000001E-002     3.3362578037211807E-002
   6.0900000000000010E-002    0.12776568469700625     
   6.1200000000000004E-002    0.23360437089222763     
   6.1500000000000013E-002    0.34676876599384082     
   6.1800000000000008E-002    0.46231812180444704     
   6.2100000000000002E-002    0.57501161050265981     
   6.2399999999999997E-002    0.67909091678387268     
   6.2700000000000006E-002    0.76910150038548430     
   6.3000000000000000E-002    0.84014385948452519     
   6.3300000000000009E-002    0.88783866203262585     
   6.3600000000000004E-002    0.90915089908929592     
   6.3899999999999998E-002    0.90208500713871875     
   6.4199999999999993E-002    0.86589127895961160     
   6.4500000000000002E-002    0.80137884756573630     
   6.4800000000000010E-002    0.71031189124012750     
   6.5100000000000005E-002    0.59570694143560055     
   6.5400000000000000E-002    0.46157294693074458     
   6.5700000000000008E-002    0.31241896931744567     
   6.5999999999999989E-002    0.15353796063315628     
   6.6299999999999998E-002    -9.5766347280889733E-003
   6.6600000000000006E-002   -0.17135465000591579     
   6.6900000000000001E-002   -0.32604038597477447     
   6.7199999999999996E-002   -0.46828481468688410     
   6.7500000000000004E-002   -0.59299457022159741     
   6.7800000000000013E-002   -0.69549322116096612     
   6.8099999999999994E-002   -0.77196580198525278     
   6.8400000000000002E-002   -0.81928253239385540     
   6.8700000000000011E-002   -0.83538091285186833     
   6.8999999999999992E-002   -0.81950795785141217     
   6.9300000000000000E-002   -0.77206260128088322     
   6.9600000000000009E-002   -0.69499546472696994     
   6.9900000000000004E-002   -0.59171432453158912     
   7.0199999999999999E-002   -0.46688121759861195     
   7.0500000000000007E-002   -0.32649761638928071     
   7.0800000000000016E-002   -0.17736968588708898     
   7.1099999999999997E-002    -2.6781203106658592E-002
   7.1400000000000005E-002    0.11777794209488494     
   7.1700000000000000E-002    0.24938267345384518     
   7.1999999999999995E-002    0.36202284600097151     
   7.2300000000000003E-002    0.45094874440642235     
   7.2600000000000012E-002    0.51326143714248007     
   7.2900000000000006E-002    0.54793715481555738     
   7.3200000000000001E-002    0.55580997502034257     
   7.3499999999999996E-002    0.53967440189917770     
   7.3800000000000004E-002    0.50372564876736936     
   7.4099999999999999E-002    0.45319360597219688     
   7.4400000000000008E-002    0.39393073435458054     
   7.4700000000000003E-002    0.33149236563730972     
   7.5000000000000011E-002    0.27096000439668028     
   7.5299999999999992E-002    0.21629299346170225     
   7.5600000000000001E-002    0.16979141649470181     
   7.5900000000000009E-002    0.13242437049453715     
   7.6200000000000004E-002    0.10340198962529727     
   7.6499999999999999E-002     8.0577336947600761E-002
   7.6800000000000007E-002     6.1031897091035826E-002
   7.7099999999999988E-002     4.1084416446593483E-002
   7.7399999999999997E-002     1.7319468774349107E-002
   7.7700000000000005E-002    -1.3137950817293213E-002
   7.8000000000000014E-002    -5.2365616437988642E-002
   7.8299999999999995E-002   -0.10089456356860123     
   7.8600000000000003E-002   -0.15805879317115848     
   7.8900000000000012E-002   -0.22187259883211632     
   7.9199999999999993E-002   -0.28905677887564141     
   7.9500000000000001E-002   -0.35585153188827401     
   7.9800000000000010E-002   -0.41802349758500812     
   8.0100000000000018E-002   -0.47149518183605577     
   8.0399999999999999E-002   -0.51295852684894638     
   8.0700000000000008E-002   -0.53985595695785660     
   8.1000000000000003E-002   -0.55093550642055056     
   8.1299999999999997E-002   -0.54622316288296524     
   8.1600000000000006E-002   -0.52680367131950601     
   8.1900000000000014E-002   -0.49489775180356860     
   8.2199999999999995E-002   -0.45331573356011901     
   8.2500000000000004E-002   -0.40508743991764862     
   8.2799999999999999E-002   -0.35327225808686319     
   8.3100000000000007E-002   -0.30044749290792555     
   8.3400000000000002E-002   -0.24847988734491980     
   8.3700000000000011E-002   -0.19847585258336434     
   8.4000000000000005E-002   -0.15054838410882843     
   8.4300000000000000E-002   -0.10412201393257921     
   8.4599999999999995E-002    -5.8027414359886086E-002
   8.4900000000000003E-002    -1.0730155052898501E-002
   8.5199999999999998E-002     3.9120921245045480E-002
   8.5500000000000007E-002     9.2684512090737470E-002
   8.5800000000000001E-002    0.15050501839117206     
   8.6100000000000010E-002    0.21226058625881519     
   8.6399999999999991E-002    0.27690022933871616     
   8.6699999999999999E-002    0.34248715428909693     
   8.7000000000000008E-002    0.40642386517830592     
   8.7300000000000003E-002    0.46589565182549736     
   8.7599999999999997E-002    0.51796895239120710     
   8.7900000000000006E-002    0.55992931171104565     
   8.8200000000000014E-002    0.58973908534638408     
   8.8499999999999995E-002    0.60609811715062756     
   8.8800000000000004E-002    0.60862553340881065     
   8.9100000000000013E-002    0.59786534568726568     
   8.9399999999999993E-002    0.57504707859325777     
   8.9700000000000002E-002    0.54193842706986983     
   9.0000000000000011E-002    0.50038409527018857     
   9.0299999999999991E-002    0.45194974822554135     
   9.0600000000000000E-002    0.39784083028350475     
   9.0900000000000009E-002    0.33833211888179721     
   9.1200000000000017E-002    0.27279705002543486     
   9.1499999999999998E-002    0.19997537291846229     
   9.1800000000000007E-002    0.11789441226943032     
   9.2100000000000001E-002     2.4415214428387441E-002
   9.2399999999999996E-002    -8.2363537981487073E-002
   9.2700000000000005E-002   -0.20355197773434919     
   9.3000000000000013E-002   -0.33892700093197892     
   9.3300000000000008E-002   -0.48672846005572951     
   9.3600000000000003E-002   -0.64318317248460699     
   9.3899999999999997E-002   -0.80258989434732131     
   9.4200000000000006E-002   -0.95759236939680170     
   9.4500000000000001E-002    -1.0993797794441920     
   9.4800000000000009E-002    -1.2183288353740380     
   9.5100000000000004E-002    -1.3047261258460661     
   9.5399999999999999E-002    -1.3494385503406539     
   9.5699999999999993E-002    -1.3446335816851529     
   9.6000000000000002E-002    -1.2845101381977104     
   9.6300000000000011E-002    -1.1657139088804449     
   9.6600000000000005E-002   -0.98776078479173179     
   9.6900000000000000E-002   -0.75317669155159694     
   9.7200000000000009E-002   -0.46742621280168634     
   9.7499999999999989E-002   -0.13897228421186689     
   9.7799999999999998E-002    0.22123941644303274     
   9.8100000000000007E-002    0.60010355629813306     
   9.8400000000000015E-002    0.98273384551282439     
   9.8699999999999996E-002     1.3533281092423624     
   9.9000000000000005E-002     1.6954343330196209     
   9.9300000000000013E-002     1.9928188341882200     
   9.9599999999999994E-002     2.2303195023771663     
   9.9900000000000003E-002     2.3941755324433949     
  0.10020000000000001          2.4732389484288859     
  0.10049999999999999          2.4594452418659154     
  0.10080000000000000          2.3483164350099148     
  0.10110000000000001          2.1400117914348744     
  0.10140000000000000          1.8391147891175055     
  0.10170000000000000          1.4549282826018999     
  0.10200000000000001          1.0014772448027258     
  0.10230000000000002         0.49673611202950535     
  0.10260000000000000         -3.8071283786340893E-002
  0.10290000000000001        -0.57971000527872418     
  0.10320000000000000         -1.1041010611486846     
  0.10350000000000001         -1.5876178742644418     
  0.10380000000000000         -2.0087113389530846     
  0.10410000000000001         -2.3490808026812040     
  0.10440000000000001         -2.5946643376321297     
  0.10470000000000000         -2.7365179092002738     
  0.10500000000000000         -2.7710070645579168     
  0.10530000000000000         -2.6999168435960046     
  0.10560000000000000         -2.5299208207469244     
  0.10590000000000001         -2.2718904063791743     
  0.10620000000000000         -1.9400481031915859     
  0.10650000000000001         -1.5507442997227427     
  0.10679999999999999         -1.1215198084602009     
  0.10710000000000000        -0.66992658796286664     
  0.10740000000000001        -0.21276864791591540     
  0.10770000000000000         0.23442625665926475     
  0.10800000000000000         0.65799075089801984     
  0.10830000000000001          1.0463722923428633     
  0.10859999999999999          1.3900603042614903     
  0.10890000000000000          1.6815706486189124     
  0.10920000000000001          1.9152226451209704     
  0.10950000000000001          2.0870077621720897     
  0.10979999999999999          2.1944243928133731     
  0.11009999999999999          2.2363998918254424     
  0.11040000000000001          2.2131106889388730     
  0.11070000000000001          2.1260173363480050     
  0.11100000000000000          1.9779505778235669     
  0.11130000000000000          1.7730835729494452     
  0.11160000000000002          1.5169569310673505     
  0.11190000000000001          1.2164938508734824     
  0.11220000000000001         0.88002259134967642     
  0.11250000000000000         0.51713711610219670     
  0.11280000000000000         0.13833994234859265     
  0.11309999999999999        -0.24499672131205399     
  0.11340000000000001        -0.62090682523029983     
  0.11369999999999998        -0.97769558045345073     
  0.11400000000000000         -1.3039507836745512     
  0.11430000000000000         -1.5891566258306549     
  0.11460000000000002         -1.8244388097290400     
  0.11489999999999999         -2.0025064952202336     
  0.11520000000000001         -2.1185882112227117     
  0.11550000000000001         -2.1703383957003033     
  0.11580000000000000         -2.1577053117897487     
  0.11609999999999999         -2.0835216105443322     
  0.11640000000000002         -1.9525942873154702     
  0.11670000000000001         -1.7715624650203696     
  0.11700000000000001         -1.5486502732607597     
  0.11730000000000000         -1.2925772755143723     
  0.11760000000000000         -1.0125526277884864     
  0.11789999999999999        -0.71755648504788605     
  0.11820000000000001        -0.41561580483474925     
  0.11850000000000001        -0.11423901404328446     
  0.11880000000000000         0.18027956228792347     
  0.11910000000000000         0.46250646900631648     
  0.11940000000000002         0.72762304308369830     
  0.11970000000000001         0.97161537354299765     
  0.12000000000000001          1.1903910650321070     
  0.12030000000000000          1.3799990447907005     
  0.12060000000000000          1.5364910414522179     
  0.12089999999999999          1.6556775636958028     
  0.12119999999999999          1.7337275824840761     
  0.12150000000000001          1.7670348975481749     
  0.12180000000000001          1.7530253034410770     
  0.12210000000000000          1.6906935081633143     
  0.12239999999999999          1.5806516514051316     
  0.12270000000000002          1.4259480338969841     
  0.12300000000000001          1.2321844193759037     
  0.12330000000000001          1.0073183855879047     
  0.12360000000000000         0.76142430963737551     
  0.12390000000000000         0.50609446052982976     
  0.12419999999999999         0.25367617892877553     
  0.12450000000000001          1.6185850708519058E-002
  0.12480000000000001        -0.19566044338617225     
  0.12509999999999999        -0.37354088159091797     
  0.12540000000000001        -0.51236534636957809     
  0.12570000000000003        -0.61064917537012975     
  0.12600000000000000        -0.67086494801906482     
  0.12630000000000002        -0.69912661071574489     
  0.12659999999999999        -0.70457542975547771     
  0.12690000000000001        -0.69810445197852522     
  0.12719999999999998        -0.69125790497765272     
  0.12750000000000000        -0.69489801997298406     
  0.12780000000000002        -0.71732379009604297     
  0.12809999999999999        -0.76355690666810361     
  0.12840000000000001        -0.83433706334044011     
  0.12869999999999998        -0.92539919021068484     
  0.12900000000000000         -1.0281353037105643     
  0.12930000000000003         -1.1297612208847256     
  0.12959999999999999         -1.2146753068450569     
  0.12990000000000002         -1.2662079306582517     
  0.13019999999999998         -1.2678149888346988     
  0.13050000000000000         -1.2055512595645286     
  0.13080000000000003         -1.0694625288450310     
  0.13109999999999999        -0.85462682407094193     
  0.13140000000000002        -0.56299941603921400     
  0.13169999999999998        -0.20277957936713495     
  0.13200000000000001         0.21140771772105829     
  0.13229999999999997         0.65889848371991144     
  0.13260000000000000          1.1156135895111203     
  0.13290000000000002          1.5545407615391769     
  0.13319999999999999          1.9485954108970518     
  0.13350000000000001          2.2730164569241942     
  0.13380000000000003          2.5064396877621857     
  0.13410000000000000          2.6337032315952333     
  0.13440000000000002          2.6464345432862677     
  0.13469999999999999          2.5435106714669229     
  0.13500000000000001          2.3320708220896758     
  0.13529999999999998          2.0257720882805073     
  0.13560000000000000          1.6443217921844500     
  0.13590000000000002          1.2118543312650840     
  0.13619999999999999         0.75428145396571256     
  0.13650000000000001         0.29832246214117752     
  0.13680000000000003        -0.13132288177208182     
  0.13710000000000000        -0.51352978272575578     
  0.13740000000000002        -0.83169335535404254     
  0.13769999999999999         -1.0755945472254971     
  0.13800000000000001         -1.2409088626362992     
  0.13829999999999998         -1.3298243285397502     
  0.13860000000000000         -1.3504059302576057     
  0.13890000000000002         -1.3153877233840074     
  0.13919999999999999         -1.2414201462787340     
  0.13950000000000001         -1.1471750692465528     
  0.13979999999999998         -1.0519947956122504     
  0.14010000000000000        -0.97401016429325349     
  0.14040000000000002        -0.92870991910235046     
  0.14069999999999999        -0.92775749691451026     
  0.14100000000000001        -0.97745936717425541     
  0.14130000000000004         -1.0785586805264880     
  0.14160000000000000         -1.2254552824946892     
  0.14189999999999997         -1.4065492150643031     
  0.14219999999999999         -1.6053409587451974     
  0.14250000000000002         -1.8007671856879712     
  0.14279999999999998         -1.9697325264328585     
  0.14310000000000000         -2.0884788079020855     
  0.14339999999999997         -2.1343562650830319     
  0.14369999999999999         -2.0887696792508050     
  0.14400000000000002         -1.9378893423543886     
  0.14429999999999998         -1.6749256893618660     
  0.14460000000000001         -1.3012523689536692     
  0.14490000000000003        -0.82608759721391922     
  0.14520000000000000        -0.26740619790179077     
  0.14550000000000002         0.34975522567447764     
  0.14579999999999999         0.99435269687938443     
  0.14610000000000001          1.6306661355789096     
  0.14640000000000003          2.2216346252927779     
  0.14670000000000000          2.7304108130659572     
  0.14699999999999996          3.1231837257930106     
  0.14729999999999999          3.3721289616407346     
  0.14760000000000001          3.4567530133383237     
  0.14789999999999998          3.3664519762336527     
  0.14820000000000000          3.1014523480326592     