  -1.4999999999999999E-002     0.0000000000000000     
  -1.4700000000000000E-002     0.0000000000000000     
  -1.4400000000000000E-002     0.0000000000000000     
  -1.4100000000000000E-002     0.0000000000000000     
  -1.3800000000000000E-002     0.0000000000000000     
  -1.3500000000000000E-002     0.0000000000000000     
  -1.3200000000000000E-002     0.0000000000000000     
  -1.2899999999999998E-002     0.0000000000000000     
  -1.2600000000000000E-002     0.0000000000000000     
  -1.2299999999999998E-002     0.0000000000000000     
  -1.2000000000000000E-002     0.0000000000000000     
  -1.1699999999999999E-002     0.0000000000000000     
  -1.1399999999999999E-002     0.0000000000000000     
  -1.1099999999999999E-002     0.0000000000000000     
  -1.0799999999999999E-002     0.0000000000000000     
  -1.0499999999999999E-002     0.0000000000000000     
  -1.0199999999999999E-002     0.0000000000000000     
  -9.8999999999999991E-003     0.0000000000000000     
  -9.5999999999999992E-003     0.0000000000000000     
  -9.2999999999999992E-003     0.0000000000000000     
  -8.9999999999999993E-003     0.0000000000000000     
  -8.6999999999999994E-003     0.0000000000000000     
  -8.3999999999999995E-003     0.0000000000000000     
  -8.0999999999999996E-003     0.0000000000000000     
  -7.7999999999999988E-003     0.0000000000000000     
  -7.4999999999999997E-003     0.0000000000000000     
  -7.1999999999999998E-003     0.0000000000000000     
  -6.8999999999999981E-003     0.0000000000000000     
  -6.5999999999999982E-003     0.0000000000000000     
  -6.3000000000000000E-003     0.0000000000000000     
  -6.0000000000000001E-003     0.0000000000000000     
  -5.6999999999999985E-003     0.0000000000000000     
  -5.3999999999999986E-003     0.0000000000000000     
  -5.1000000000000004E-003     0.0000000000000000     
  -4.7999999999999987E-003     0.0000000000000000     
  -4.5000000000000005E-003     0.0000000000000000     
  -4.1999999999999989E-003     0.0000000000000000     
  -3.8999999999999990E-003     0.0000000000000000     
  -3.5999999999999990E-003     0.0000000000000000     
  -3.2999999999999991E-003     0.0000000000000000     
  -2.9999999999999992E-003     0.0000000000000000     
  -2.6999999999999993E-003     0.0000000000000000     
  -2.3999999999999994E-003     0.0000000000000000     
  -2.0999999999999977E-003     0.0000000000000000     
  -1.7999999999999995E-003     0.0000000000000000     
  -1.4999999999999979E-003     0.0000000000000000     
  -1.1999999999999997E-003     0.0000000000000000     
  -8.9999999999999976E-004     0.0000000000000000     
  -5.9999999999999810E-004     0.0000000000000000     
  -2.9999999999999992E-004     0.0000000000000000     
   0.0000000000000000          0.0000000000000000     
   3.0000000000000165E-004     0.0000000000000000     
   5.9999999999999984E-004     0.0000000000000000     
   9.0000000000000149E-004     0.0000000000000000     
   1.2000000000000031E-003     0.0000000000000000     
   1.5000000000000013E-003     0.0000000000000000     
   1.8000000000000030E-003     0.0000000000000000     
   2.1000000000000012E-003     0.0000000000000000     
   2.3999999999999994E-003     0.0000000000000000     
   2.7000000000000010E-003     0.0000000000000000     
   2.9999999999999992E-003     0.0000000000000000     
   3.3000000000000008E-003     1.7606027761530018E-072
   3.6000000000000025E-003     6.2594295384345876E-044
   3.9000000000000007E-003     4.8235124184331227E-043
   4.2000000000000023E-003     5.3643799449562013E-038
   4.5000000000000005E-003    -5.0395651380635567E-036
   4.7999999999999987E-003    -2.5782002486175545E-035
   5.1000000000000004E-003     7.8745398531186660E-035
   5.4000000000000020E-003     1.0099651664457592E-033
   5.7000000000000037E-003     7.3548691687331068E-034
   5.9999999999999984E-003    -2.2275443248717759E-032
   6.3000000000000000E-003    -5.5767916837513199E-033
   6.6000000000000017E-003     3.0278240260926269E-031
   6.9000000000000034E-003    -5.7394834247072818E-031
   7.2000000000000015E-003    -1.1496893082678569E-030
   7.5000000000000032E-003     1.6596042016589715E-029
   7.8000000000000014E-003    -8.8313610197221525E-029
   8.0999999999999996E-003     6.8419492885106470E-029
   8.4000000000000012E-003     1.7562718240347560E-027
   8.7000000000000029E-003    -1.0198353041743393E-026
   9.0000000000000011E-003     1.9073805395400949E-026
   9.2999999999999992E-003     7.2897581586495480E-026
   9.6000000000000009E-003    -6.7320086128964446E-025
   9.8999999999999991E-003     2.4227832677189734E-024
   1.0200000000000001E-002    -3.2443747309961105E-024
   1.0500000000000002E-002    -1.4093610012395234E-023
   1.0800000000000004E-002     1.0410037688909159E-022
   1.1099999999999999E-002    -3.2790548323256700E-022
   1.1400000000000000E-002     4.1545412763068679E-022
   1.1700000000000002E-002     1.4299813409551312E-021
   1.2000000000000004E-002    -1.1127543438350692E-020
   1.2300000000000002E-002     4.1925730014642730E-020
   1.2600000000000000E-002    -1.1342376177382994E-019
   1.2900000000000002E-002     2.3382373721273336E-019
   1.3200000000000000E-002    -3.3936293047836121E-019
   1.3500000000000002E-002     1.4795767112860495E-019
   1.3800000000000003E-002     9.7999052897831347E-019
   1.4100000000000001E-002    -2.0691743991814068E-018
   1.4400000000000000E-002    -2.2383208269255809E-017
   1.4700000000000001E-002     2.9312281886100846E-016
   1.4999999999999999E-002    -2.2520929023515038E-015
   1.5300000000000001E-002     1.3761983699326094E-014
   1.5600000000000003E-002    -7.1235065183215009E-014
   1.5899999999999997E-002     3.1518838835126485E-013
   1.6199999999999999E-002    -1.1684951308921950E-012
   1.6500000000000001E-002     3.4187971324140286E-012
   1.6800000000000002E-002    -6.5275337393464245E-012
   1.7100000000000004E-002    -6.9323024205327082E-013
   1.7400000000000006E-002     6.4356998148291871E-011
   1.7700000000000000E-002    -2.7261821470530077E-010
   1.8000000000000002E-002     5.5736024488456052E-010
   1.8300000000000004E-002     6.1596379493655919E-012
   1.8600000000000005E-002    -3.5682170246853060E-009
   1.8900000000000000E-002     9.1845135335106893E-009
   1.9200000000000002E-002    -1.3055647983310513E-009
   1.9500000000000003E-002    -4.1216312113484121E-008
   1.9799999999999998E-002     6.4098489371452412E-008
   2.0100000000000000E-002     9.1689554434151891E-008
   2.0400000000000001E-002    -2.9746541699884801E-007
   2.0700000000000003E-002    -2.0996214155349391E-007
   2.0999999999999998E-002     8.4871835109391329E-007
   2.1299999999999999E-002     7.2878687193479332E-007
   2.1600000000000001E-002    -2.0513825158855659E-006
   2.1900000000000003E-002    -3.4451377326131751E-006
   2.2200000000000004E-002     4.4757202204687407E-006
   2.2500000000000006E-002     2.6243464187435440E-005
   2.2800000000000001E-002     6.0056266466992537E-005
   2.3100000000000002E-002     1.0401054776867378E-004
   2.3400000000000004E-002     1.6269059987525096E-004
   2.3699999999999999E-002     2.4894313328896640E-004
   2.4000000000000000E-002     3.8378132419810643E-004
   2.4300000000000002E-002     5.9430684845568447E-004
   2.4599999999999997E-002     9.1444723417249724E-004
   2.4900000000000005E-002     1.3913633174630102E-003
   2.5200000000000000E-002     2.0902680507482274E-003
   2.5499999999999995E-002     3.0986170467006140E-003
   2.5800000000000003E-002     4.5329210865162617E-003
   2.6099999999999998E-002     6.5437484862469831E-003
   2.6400000000000007E-002     9.3174743537737716E-003
   2.6700000000000002E-002     1.3076625643682673E-002
   2.6999999999999996E-002     1.8081355673104822E-002
   2.7300000000000005E-002     2.4627120937844089E-002
   2.7600000000000000E-002     3.3028088204496146E-002
   2.7900000000000008E-002     4.3590586228827014E-002
   2.8200000000000003E-002     5.6585579586284143E-002
   2.8499999999999998E-002     7.2204745636360076E-002
   2.8800000000000006E-002     9.0499921792705940E-002
   2.9100000000000001E-002    0.11130853638791123     
   2.9400000000000003E-002    0.13417532914954677     
   2.9700000000000004E-002    0.15826961250178298     
   3.0000000000000006E-002    0.18231120534582618     
   3.0300000000000001E-002    0.20450894341924256     
   3.0600000000000002E-002    0.22253204671402491     
   3.0900000000000004E-002    0.23353339509056437     
   3.1199999999999999E-002    0.23422601593725345     
   3.1500000000000007E-002    0.22103433095605995     
   3.1800000000000002E-002    0.19032728482642100     
   3.2099999999999997E-002    0.13874094044389401     
   3.2400000000000005E-002     6.3546582295655851E-002
   3.2700000000000000E-002    -3.6904707392675110E-002
   3.3000000000000002E-002   -0.16275761889167972     
   3.3300000000000003E-002   -0.31223824347928403     
   3.3599999999999998E-002   -0.48133864566434592     
   3.3900000000000000E-002   -0.66364615548878725     
   3.4200000000000001E-002   -0.85035317348860517     
   3.4500000000000003E-002    -1.0305038594141305     
   3.4799999999999998E-002    -1.1915292627366096     
   3.5099999999999999E-002    -1.3199446075635368     
   3.5400000000000001E-002    -1.4023460015097704     
   3.5699999999999996E-002    -1.4265190224772590     
   3.6000000000000004E-002    -1.3825490339505722     
   3.6299999999999999E-002    -1.2640105360932827     
   3.6600000000000008E-002    -1.0687820804102459     
   3.6900000000000002E-002   -0.79980193745978079     
   3.7199999999999997E-002   -0.46524238080391411     
   3.7500000000000006E-002    -7.8367932273826699E-002
   3.7800000000000000E-002    0.34304696049150180     
   3.8100000000000009E-002    0.77787684697405757     
   3.8400000000000004E-002     1.2029566653285944     
   3.8699999999999998E-002     1.5947424022821843     
   3.9000000000000007E-002     1.9310918862115605     
   3.9300000000000002E-002     2.1927907255955010     
   3.9600000000000003E-002     2.3650314578919702     
   3.9900000000000005E-002     2.4385375739352599     
   4.0200000000000000E-002     2.4099824193114845     
   4.0500000000000001E-002     2.2823409810434052     
   4.0800000000000003E-002     2.0643369948577019     
   4.1100000000000005E-002     1.7696543757540304     
   4.1399999999999999E-002     1.4158598044837161     
   4.1700000000000008E-002     1.0228679079088541     
   4.2000000000000003E-002    0.61162632100109038     
   4.2299999999999997E-002    0.20260569256772065     
   4.2600000000000006E-002   -0.18560135175731868     
   4.2900000000000001E-002   -0.53694837746075630     
   4.3200000000000002E-002   -0.83906804676474145     
   4.3500000000000004E-002    -1.0833049904697438     
   4.3799999999999999E-002    -1.2648875587754274     
   4.4100000000000000E-002    -1.3829372984831283     
   4.4400000000000002E-002    -1.4395681478694344     
   4.4700000000000004E-002    -1.4397346833868507     
   4.4999999999999998E-002    -1.3904951678160102     
   4.5300000000000000E-002    -1.3000507232964473     
   4.5600000000000002E-002    -1.1776858460817952     
   4.5899999999999996E-002    -1.0327333121120947     
   4.6200000000000005E-002   -0.87435727578712830     
   4.6500000000000000E-002   -0.71140044372432931     
   4.6799999999999994E-002   -0.55163395015190175     
   4.7100000000000003E-002   -0.40210273619893805     
   4.7399999999999998E-002   -0.26869043589031383     
   4.7700000000000006E-002   -0.15590591699292500     
   4.8000000000000001E-002    -6.7195944764953289E-002
   4.8300000000000010E-002    -4.3277531137007269E-003
   4.8600000000000004E-002     3.2329883083497504E-002
   4.8899999999999999E-002     4.3774429790505651E-002
   4.9200000000000008E-002     3.2735739687512151E-002
   4.9500000000000002E-002     3.0374306007369136E-003
   4.9800000000000011E-002    -4.0165637812220961E-002
   5.0100000000000006E-002    -9.0792346896962930E-002
   5.0400000000000000E-002   -0.14255578374047048     
   5.0700000000000009E-002   -0.18881101396617006     
   5.1000000000000004E-002   -0.22357262120013829     
   5.1299999999999998E-002   -0.24181284942441877     
   5.1600000000000007E-002   -0.23966028754486152     
   5.1900000000000002E-002   -0.21517359743461928     
   5.2200000000000010E-002   -0.16807469358659732     
   5.2500000000000005E-002    -9.9969205870936384E-002
   5.2800000000000000E-002    -1.4323969498597709E-002
   5.3099999999999994E-002     8.4212913196625966E-002
   5.3400000000000003E-002    0.18983818320368698     
   5.3699999999999998E-002    0.29629909543028493     
   5.4000000000000006E-002    0.39759510141947813     
   5.4300000000000001E-002    0.48794897630116602     
   5.4599999999999996E-002    0.56276517225120259     
   5.4900000000000004E-002    0.61865328772943196     
   5.5199999999999999E-002    0.65334277318394496     
   5.5499999999999994E-002    0.66614471818797860     
   5.5800000000000002E-002    0.65732853569344762     
   5.6099999999999997E-002    0.62814449270695327     
   5.6400000000000006E-002    0.58055644305705112     
   5.6700000000000000E-002    0.51667516596240315     
   5.6999999999999995E-002    0.43893732908663691     
   5.7300000000000004E-002    0.34968581216966627     
   5.7599999999999998E-002    0.25106364055092706     
   5.7900000000000007E-002    0.14537323736113736     
   5.8200000000000002E-002     3.4795752566466019E-002
   5.8499999999999996E-002    -7.8225403409034958E-002
   5.8800000000000005E-002   -0.19077947499272657     
   5.9100000000000000E-002   -0.29968234488290896     
   5.9400000000000008E-002   -0.40107079766132064     
   5.9700000000000003E-002   -0.49076759087166422     
   6.0000000000000012E-002   -0.56446187826757066     
   6.0300000000000006E-002   -0.61782520038856614     
   6.0600000000000001E-002   -0.64718579200136295     
   6.0900000000000010E-002   -0.64963768830624369     
   6.1200000000000004E-002   -0.62352936384205837     
   6.1500000000000013E-002   -0.56890546253699148     
   6.1800000000000008E-002   -0.48742415578137493     
   6.2100000000000002E-002   -0.38258036190055683     
   6.2399999999999997E-002   -0.25945117468450224     
   6.2700000000000006E-002   -0.12432071172491614     
   6.3000000000000000E-002     1.5636382453586707E-002
   6.3300000000000009E-002    0.15313813029005177     
   6.3600000000000004E-002    0.28133383109465371     
   6.3899999999999998E-002    0.39431634057741721     
   6.4199999999999993E-002    0.48786931568427677     
   6.4500000000000002E-002    0.55977749026131551     
   6.4800000000000010E-002    0.60989933310782118     
   6.5100000000000005E-002    0.64029960874729774     
   6.5400000000000000E-002    0.65487479197503917     
   6.5700000000000008E-002    0.65892063619832608     
   6.5999999999999989E-002    0.65847807208647291     
   6.6299999999999998E-002    0.65935527412687123     
   6.6600000000000006E-002    0.66651093143567453     
   6.6900000000000001E-002    0.68311219632958431     
   6.7199999999999996E-002    0.70982813084051188     
   6.7500000000000004E-002    0.74462186543898212     
   6.7800000000000013E-002    0.78218954040156508     
   6.8099999999999994E-002    0.81446175975167656     
   6.8400000000000002E-002    0.83121579057590034     
   6.8700000000000011E-002    0.82062219715452045     
   6.8999999999999992E-002    0.77062993376894617     
   6.9300000000000000E-002    0.67016743780583998     
   6.9600000000000009E-002    0.51054935899177578     
   6.9900000000000004E-002    0.28681009412326053     
   7.0199999999999999E-002    -1.3618692090827001E-003
   7.0500000000000007E-002   -0.34880071937291013     
   7.0800000000000016E-002   -0.74444865855440223     
   7.1099999999999997E-002    -1.1718605679535676     
   7.1400000000000005E-002    -1.6096699111267756     
   7.1700000000000000E-002    -2.0328421414593461     
   7.1999999999999995E-002    -2.4143643150532288     
   7.2300000000000003E-002    -2.7268457137519544     
   7.2600000000000012E-002    -2.9448685331746218     
   7.2900000000000006E-002    -3.0468988075884327     
   7.3200000000000001E-002    -3.0167851090235831     
   7.3499999999999996E-002    -2.8456465840503702     
   7.3800000000000004E-002    -2.5327129023618427     
   7.4099999999999999E-002    -2.0856556585676662     
   7.4400000000000008E-002    -1.5207643252152974     
   7.4700000000000003E-002   -0.86185775260703545     
   7.5000000000000011E-002   -0.13935609479179784     
   7.5299999999999992E-002    0.61152744632150347     
   7.5600000000000001E-002     1.3532023377023310     
   7.5900000000000009E-002     2.0475065569090622     
   7.6200000000000004E-002     2.6585006493638947     
   7.6499999999999999E-002     3.1545357412611175     
   7.6800000000000007E-002     3.5097353108048912     
   7.7099999999999988E-002     3.7066735828171460     
   7.7399999999999997E-002     3.7364744722028633     
   7.7700000000000005E-002     3.5993041567290041     
   7.8000000000000014E-002     3.3050162379345491     
   7.8299999999999995E-002     2.8712544057056162     
   7.8600000000000003E-002     2.3230952876020057     
   7.8900000000000012E-002     1.6908759786323455     
   7.9199999999999993E-002     1.0078111666737259     
   7.9500000000000001E-002    0.30872504399981276     
   7.9800000000000010E-002   -0.37334299876029087     
   8.0100000000000018E-002    -1.0083682546188315     
   8.0399999999999999E-002    -1.5708421411658582     
   8.0700000000000008E-002    -2.0420219782104336     
   8.1000000000000003E-002    -2.4090955089690334     
   8.1299999999999997E-002    -2.6665756491699506     
   8.1600000000000006E-002    -2.8153898471537797     
   8.1900000000000014E-002    -2.8613662449529338     
   8.2199999999999995E-002    -2.8151647757197340     
   8.2500000000000004E-002    -2.6895062625908852     
   8.2799999999999999E-002    -2.4983873065896485     
   8.3100000000000007E-002    -2.2557229696896250     
   8.3400000000000002E-002    -1.9733155674621614     
   8.3700000000000011E-002    -1.6612406691266604     
   8.4000000000000005E-002    -1.3265529612286751     
   8.4300000000000000E-002   -0.97369370505925834     
   8.4599999999999995E-002   -0.60540429716388366     
   8.4900000000000003E-002   -0.22282719463371486     
   8.5199999999999998E-002    0.17264134878913903     
   8.5500000000000007E-002    0.57850295972542265     
   8.5800000000000001E-002    0.99046206564636452     
   8.6100000000000010E-002     1.4010620063995429     
   8.6399999999999991E-002     1.7994953275741274     
   8.6699999999999999E-002     2.1719624813176384     
   8.7000000000000008E-002     2.5016283743492607     
   8.7300000000000003E-002     2.7701425250251543     
   8.7599999999999997E-002     2.9587423451511494     
   8.7900000000000006E-002     3.0499949068990300     
   8.8200000000000014E-002     3.0298869201407856     
   8.8499999999999995E-002     2.8890637936555645     
   8.8800000000000004E-002     2.6246440005857306     
   8.9100000000000013E-002     2.2413506130226684     
   8.9399999999999993E-002     1.7515840195493126     
   8.9700000000000002E-002     1.1758207996722339     
   9.0000000000000011E-002    0.54145429419843027     
   9.0299999999999991E-002   -0.11887714116187073     
   9.0600000000000000E-002   -0.76897424996333941     
   9.0900000000000009E-002    -1.3721374246737954     
   9.1200000000000017E-002    -1.8935041324650395     
   9.1499999999999998E-002    -2.3027434177127866     
   9.1800000000000007E-002    -2.5766329535321519     
   9.2100000000000001E-002    -2.7007546149915438     
   9.2399999999999996E-002    -2.6707808666326511     
   9.2700000000000005E-002    -2.4926225819299188     
   9.3000000000000013E-002    -2.1819946446848029     
   9.3300000000000008E-002    -1.7628692084473789     
   9.3600000000000003E-002    -1.2653995475667772     
   9.3899999999999997E-002   -0.72350606911842852     
   9.4200000000000006E-002   -0.17191366401503011     
   9.4500000000000001E-002    0.35641266358303297     
   9.4800000000000009E-002    0.83260763618334022     
   9.5100000000000004E-002     1.2336912197182754     
   9.5399999999999999E-002     1.5434311622453984     
   9.5699999999999993E-002     1.7530878733440534     
   9.6000000000000002E-002     1.8604273710488226     
   9.6300000000000011E-002     1.8690354708583103     
   9.6600000000000005E-002     1.7871420245786074     
   9.6900000000000000E-002     1.6255757656089498     
   9.7200000000000009E-002     1.3968977768276540     
   9.7499999999999989E-002     1.1139033872790747     
   9.7799999999999998E-002    0.78907452476341777     
   9.8100000000000007E-002    0.43456102987108125     
   9.8400000000000015E-002     6.1738933243173158E-002
   9.8699999999999996E-002   -0.31763945030280177     
   9.9000000000000005E-002   -0.69098264705930301     
   9.9300000000000013E-002    -1.0448404593112326     
   9.9599999999999994E-002    -1.3640631447501368     
   9.9900000000000003E-002    -1.6325628734844551     
  0.10020000000000001         -1.8338848298318888     
  0.10049999999999999         -1.9524048483933887     
  0.10080000000000000         -1.9755638731410612     
  0.10110000000000001         -1.8949079389987957     
  0.10140000000000000         -1.7085432873379147     
  0.10170000000000000         -1.4223749504548482     
  0.10200000000000001         -1.0502230996088353     
  0.10230000000000002        -0.61471544611437967     
  0.10260000000000000        -0.14517191686447622     
  0.10290000000000001         0.32396853560035549     
  0.10320000000000000         0.75556403706656461     
  0.10350000000000001          1.1138799195806162     
  0.10380000000000000          1.3670362219164673     
  0.10410000000000001          1.4907329055374547     
  0.10440000000000001          1.4708970756625637     
  0.10470000000000000          1.3045644741169753     
  0.10500000000000000          1.0013363363359047     
  0.10530000000000000         0.58213025659985262     
  0.10560000000000000          7.7535815141675235E-002
  0.10590000000000001        -0.47446288536342568     
  0.10620000000000000         -1.0325212325542901     
  0.10650000000000001         -1.5547922660803242     
  0.10679999999999999         -2.0025915883586261     
  0.10710000000000000         -2.3440105684973855     
  0.10740000000000001         -2.5554249057158529     
  0.10770000000000000         -2.6236860539223521     
  0.10800000000000000         -2.5466644583644449     
  0.10830000000000001         -2.3323333129315045     
  0.10859999999999999         -1.9982086343110128     
  0.10890000000000000         -1.5690622316932337     
  0.10920000000000001         -1.0743477397557428     
  0.10950000000000001        -0.54629487964551837     
  0.10979999999999999         -1.6421208653666183E-002
  0.11009999999999999         0.48634729597234833     
  0.11040000000000001         0.93764922517625204     
  0.11070000000000001          1.3199884627399869     
  0.11100000000000000          1.6225069496283822     
  0.11130000000000000          1.8420864091005134     
  0.11160000000000002          1.9826512107007683     
  0.11190000000000001          2.0537943639033083     
  0.11220000000000001          2.0700526067446519     
  0.11250000000000000          2.0481769896665245     
  0.11280000000000000          2.0056917546741362     
  0.11309999999999999          1.9589091430964904     
  0.11340000000000001          1.9205311429124901     
  0.11369999999999998          1.8993699433340567     
  0.11400000000000000          1.8986803157612260     
  0.11430000000000000          1.9163181621934062     
  0.11460000000000002          1.9458684736839129     
  0.11489999999999999          1.9765214714683697     
  0.11520000000000001          1.9959462663617815     
  0.11550000000000001          1.9918036244855584     
  0.11580000000000000          1.9529042043920648     
  0.11609999999999999          1.8724225592513766     
  0.11640000000000002          1.7473853707449321     
  0.11670000000000001          1.5801360547017498     
  0.11700000000000001          1.3787447220478095     
  0.11730000000000000          1.1544237209304400     
  0.11760000000000000         0.92186511888993161     
  0.11789999999999999         0.69630934615856788     
  0.11820000000000001         0.49116583784134138     
  0.11850000000000001         0.31750082194125706     
  0.11880000000000000         0.18050964766834590     
  0.11910000000000000          8.0042811827842716E-002
  0.11940000000000002          1.0013808909707541E-002
  0.11970000000000001         -4.1771331065405301E-002
  0.12000000000000001         -9.0733610390479807E-002
  0.12030000000000000        -0.15523584859066566     
  0.12060000000000000        -0.25329078471031075     
  0.12089999999999999        -0.40037976342629777     
  0.12119999999999999        -0.60822482761495167     
  0.12150000000000001        -0.88176574168730659     
  0.12180000000000001         -1.2193561955856678     
  0.12210000000000000         -1.6121859673791565     
  0.12239999999999999         -2.0444111890658938     
  0.12270000000000002         -2.4953196047670145     
  0.12300000000000001         -2.9400315209523860     
  0.12330000000000001         -3.3523447362701440     
  0.12360000000000000         -3.7068512217030802     
  0.12390000000000000         -3.9801678369263533     
  0.12419999999999999         -4.1541399611994185     
  0.12450000000000001         -4.2160353272437119     
  0.12480000000000001         -4.1599969442730016     
  0.12509999999999999         -3.9875874077145674     
  0.12540000000000001         -3.7068240189845638     
  0.12570000000000003         -3.3325368905069501     
  0.12600000000000000         -2.8846349272124141     
  0.12630000000000002         -2.3868720104524717     
  0.12659999999999999         -1.8656125859166830     
  0.12690000000000001         -1.3474425900813736     
  0.12719999999999998        -0.85781833221297810     
  0.12750000000000000        -0.41949650808773620     
  0.12780000000000002         -5.0373434533253512E-002
  0.12809999999999999         0.23724819927666901     
  0.12840000000000001         0.43788553362877430     
  0.12869999999999998         0.55304581367297911     
  0.12900000000000000         0.59162682105580799     
  0.12930000000000003         0.56869541811814173     
  0.12959999999999999         0.50424252608429454     
  0.12990000000000002         0.42210568181710617     
  0.13019999999999998         0.34706801982856644     
  0.13050000000000000         0.30310482316447734     
  0.13080000000000003         0.31054097760911120     
  0.13109999999999999         0.38435432561079891     
  0.13140000000000002         0.53283789970939344     
  0.13169999999999998         0.75563070404934751     
  0.13200000000000001          1.0448320831642164     
  0.13229999999999997          1.3848342625972281     
  0.13260000000000000          1.7534844605587654     
  0.13290000000000002          2.1255171026152646     
  0.13319999999999999          2.4736094195138327     
  0.13350000000000001          2.7719862171727518     
  0.13380000000000003          2.9991273580511586     
  0.13410000000000000          3.1395919014020879     
  0.13440000000000002          3.1865207835246512     
  0.13469999999999999          3.1416134522190644     
  0.13500000000000001          3.0161943134146467     
  0.13529999999999998          2.8299009519631606     
  0.13560000000000000          2.6085424174156833     
  0.13590000000000002          2.3826572687341949     
  0.13619999999999999          2.1834356625660067     
  0.13650000000000001          2.0402064216873437     
  0.13680000000000003          1.9773441499961979     
  0.13710000000000000          2.0108673568800919     
  0.13740000000000002          2.1469039954995690     
  0.13769999999999999          2.3798325130260074     
  0.13800000000000001          2.6921267594897484     
  0.13829999999999998          3.0549333183312632     
  0.13860000000000000          3.4299793319369565     
  0.13890000000000002          3.7721500448264753     
  0.13919999999999999          4.0328760164544404     
  0.13950000000000001          4.1643562294682459     
  0.13979999999999998          4.1234178480062678     
  0.14010000000000000          3.8755030530980554     
  0.14040000000000002          3.3981127606999304     
  0.14069999999999999          2.6829185333050147     
  0.14100000000000001          1.7374336558185708     
  0.14130000000000004         0.58533923255491416     
  0.14160000000000000        -0.73515893418382361     
  0.14189999999999997         -2.1725058665029606     
  0.14219999999999999         -3.6657712530263749     
  0.14250000000000002         -5.1477980638621119     
  0.14279999999999998         -6.5493864987862915     
  0.14310000000000000         -7.8036465567569406     
  0.14339999999999997         -8.8494777550545454     
  0.14369999999999999         -9.6349000752047669     
  0.14400000000000002         -10.119733787812915     
  0.14429999999999998         -10.277663203874862     
  0.14460000000000001         -10.096797911968428     
  0.14490000000000003         -9.5805368073743615     
  0.14520000000000000         -8.7469949337519832     
  0.14550000000000002         -7.6276330531072016     
  0.14579999999999999         -6.2666883023956288     
  0.14610000000000001         -4.7186002264640363     
  0.14640000000000003         -3.0456215853253692     
  0.14670000000000000         -1.3164170493489600     
  0.14699999999999996         0.39842860740430835     
  0.14729999999999999          2.0277739031894910     
  0.14760000000000001          3.5042465158110230     
  0.14789999999999998          4.7670979873800459     
  0.14820000000000000          5.7646203348417524     