  -1.4999999999999999E-002     0.0000000000000000     
  -1.4700000000000000E-002     0.0000000000000000     
  -1.4400000000000000E-002     0.0000000000000000     
  -1.4100000000000000E-002     0.0000000000000000     
  -1.3800000000000000E-002     0.0000000000000000     
  -1.3500000000000000E-002     0.0000000000000000     
  -1.3200000000000000E-002     0.0000000000000000     
  -1.2899999999999998E-002     0.0000000000000000     
  -1.2600000000000000E-002     0.0000000000000000     
  -1.2299999999999998E-002     0.0000000000000000     
  -1.2000000000000000E-002     0.0000000000000000     
  -1.1699999999999999E-002     0.0000000000000000     
  -1.1399999999999999E-002     0.0000000000000000     
  -1.1099999999999999E-002     0.0000000000000000     
  -1.0799999999999999E-002     0.0000000000000000     
  -1.0499999999999999E-002     0.0000000000000000     
  -1.0199999999999999E-002     0.0000000000000000     
  -9.8999999999999991E-003     0.0000000000000000     
  -9.5999999999999992E-003     0.0000000000000000     
  -9.2999999999999992E-003     0.0000000000000000     
  -8.9999999999999993E-003     0.0000000000000000     
  -8.6999999999999994E-003     0.0000000000000000     
  -8.3999999999999995E-003     0.0000000000000000     
  -8.0999999999999996E-003     0.0000000000000000     
  -7.7999999999999988E-003     0.0000000000000000     
  -7.4999999999999997E-003     0.0000000000000000     
  -7.1999999999999998E-003     0.0000000000000000     
  -6.8999999999999981E-003     0.0000000000000000     
  -6.5999999999999982E-003     0.0000000000000000     
  -6.3000000000000000E-003     0.0000000000000000     
  -6.0000000000000001E-003     0.0000000000000000     
  -5.6999999999999985E-003     0.0000000000000000     
  -5.3999999999999986E-003     0.0000000000000000     
  -5.1000000000000004E-003     0.0000000000000000     
  -4.7999999999999987E-003     0.0000000000000000     
  -4.5000000000000005E-003     0.0000000000000000     
  -4.1999999999999989E-003     0.0000000000000000     
  -3.8999999999999990E-003     0.0000000000000000     
  -3.5999999999999990E-003     0.0000000000000000     
  -3.2999999999999991E-003     0.0000000000000000     
  -2.9999999999999992E-003     0.0000000000000000     
  -2.6999999999999993E-003     0.0000000000000000     
  -2.3999999999999994E-003     0.0000000000000000     
  -2.0999999999999977E-003     0.0000000000000000     
  -1.7999999999999995E-003     0.0000000000000000     
  -1.4999999999999979E-003     0.0000000000000000     
  -1.1999999999999997E-003     0.0000000000000000     
  -8.9999999999999976E-004     0.0000000000000000     
  -5.9999999999999810E-004     0.0000000000000000     
  -2.9999999999999992E-004     0.0000000000000000     
   0.0000000000000000          0.0000000000000000     
   3.0000000000000165E-004     0.0000000000000000     
   5.9999999999999984E-004     0.0000000000000000     
   9.0000000000000149E-004     0.0000000000000000     
   1.2000000000000031E-003     0.0000000000000000     
   1.5000000000000013E-003     0.0000000000000000     
   1.8000000000000030E-003     0.0000000000000000     
   2.1000000000000012E-003     0.0000000000000000     
   2.3999999999999994E-003     0.0000000000000000     
   2.7000000000000010E-003     0.0000000000000000     
   2.9999999999999992E-003     0.0000000000000000     
   3.3000000000000008E-003     0.0000000000000000     
   3.6000000000000025E-003     0.0000000000000000     
   3.9000000000000007E-003     0.0000000000000000     
   4.2000000000000023E-003     0.0000000000000000     
   4.5000000000000005E-003     0.0000000000000000     
   4.7999999999999987E-003     0.0000000000000000     
   5.1000000000000004E-003     0.0000000000000000     
   5.4000000000000020E-003     0.0000000000000000     
   5.7000000000000037E-003     0.0000000000000000     
   5.9999999999999984E-003     0.0000000000000000     
   6.3000000000000000E-003     0.0000000000000000     
   6.6000000000000017E-003     0.0000000000000000     
   6.9000000000000034E-003     0.0000000000000000     
   7.2000000000000015E-003     0.0000000000000000     
   7.5000000000000032E-003    -4.3067816551630213E-057
   7.8000000000000014E-003    -1.7709575706029525E-044
   8.0999999999999996E-003     1.9058386850726607E-042
   8.4000000000000012E-003     5.2577687312056519E-036
   8.7000000000000029E-003    -2.0657848793974189E-035
   9.0000000000000011E-003    -2.0126761311821213E-034
   9.2999999999999992E-003     9.4274424819758801E-034
   9.6000000000000009E-003     1.9440720296978958E-033
   9.8999999999999991E-003    -3.0077206444348321E-032
   1.0200000000000001E-002     1.2926758712862352E-031
   1.0500000000000002E-002    -2.6019172847691091E-031
   1.0800000000000004E-002    -2.1118753773408507E-030
   1.1099999999999999E-002     2.6557205714344292E-029
   1.1400000000000000E-002    -1.1726932973644192E-028
   1.1700000000000002E-002     1.8653019943875334E-029
   1.2000000000000004E-002     2.5722562316803159E-027
   1.2300000000000002E-002    -1.4709885305453340E-026
   1.2600000000000000E-002     3.3291577001943268E-026
   1.2900000000000002E-002     6.8312231745073431E-026
   1.3200000000000000E-002    -8.6687613859072092E-025
   1.3500000000000002E-002     3.2943348078367643E-024
   1.3800000000000003E-002    -3.5747554877384931E-024
   1.4100000000000001E-002    -2.8967129892492654E-023
   1.4400000000000000E-002     1.9137075091980554E-022
   1.4700000000000001E-002    -5.8423909232093040E-022
   1.4999999999999999E-002     6.9698611854374720E-022
   1.5300000000000001E-002     2.4085459682228849E-021
   1.5600000000000003E-002    -1.5937170362295406E-020
   1.5899999999999997E-002     4.4062633129590043E-020
   1.6199999999999999E-002    -4.7060821910385989E-020
   1.6500000000000001E-002    -1.5114414724863338E-019
   1.6800000000000002E-002     8.5037984949961491E-019
   1.7100000000000004E-002    -1.4024578663348976E-018
   1.7400000000000006E-002    -4.9797424268261251E-018
   1.7700000000000000E-002     4.3661554424832116E-017
   1.8000000000000002E-002    -1.3931077885527869E-016
   1.8300000000000004E-002    -1.0983837313918299E-016
   1.8600000000000005E-002     4.5361676470713564E-015
   1.8900000000000000E-002    -3.5446404126900836E-014
   1.9200000000000002E-002     1.9121336779695579E-013
   1.9500000000000003E-002    -8.0346302542461075E-013
   1.9799999999999998E-002     2.6280840228379916E-012
   2.0100000000000000E-002    -6.0727766385159502E-012
   2.0400000000000001E-002     5.6547889962297461E-012
   2.0700000000000003E-002     2.5483374029514991E-011
   2.0999999999999998E-002    -1.4260863017543132E-010
   2.1299999999999999E-002     3.1878006228261650E-010
   2.1600000000000001E-002    -6.6518229455480967E-011
   2.1900000000000003E-002    -1.6714567078801114E-009
   2.2200000000000004E-002     4.0773091520208130E-009
   2.2500000000000006E-002     9.0284903667559917E-010
   2.2800000000000001E-002    -1.9861412597087293E-008
   2.3100000000000002E-002     1.7194780343837483E-008
   2.3400000000000004E-002     6.4198692215160397E-008
   2.3699999999999999E-002    -9.3275427778414140E-008
   2.4000000000000000E-002    -2.1798682385962327E-007
   2.4300000000000002E-002     2.4573046736662378E-007
   2.4599999999999997E-002     6.9288734236984783E-007
   2.4900000000000005E-002    -3.4898743656510837E-007
   2.5200000000000000E-002    -1.9350553014995659E-006
   2.5499999999999995E-002    -1.0912251253858788E-007
   2.5800000000000003E-002     6.4572487040843215E-006
   2.6099999999999998E-002     1.2975636061247450E-005
   2.6400000000000007E-002     1.5647266264456590E-005
   2.6700000000000002E-002     2.0214244237357437E-005
   2.6999999999999996E-002     3.6942393405887117E-005
   2.7300000000000005E-002     6.7890945030274185E-005
   2.7600000000000000E-002     1.0727862826548045E-004
   2.7900000000000008E-002     1.5702180739610687E-004
   2.8200000000000003E-002     2.3450091064550064E-004
   2.8499999999999998E-002     3.6015063229265172E-004
   2.8800000000000006E-002     5.4501952695499320E-004
   2.9100000000000001E-002     8.0029140581088138E-004
   2.9400000000000003E-002     1.1557692348694703E-003
   2.9700000000000004E-002     1.6587015214199103E-003
   3.0000000000000006E-002     2.3563266972938175E-003
   3.0300000000000001E-002     3.2929697767324125E-003
   3.0600000000000002E-002     4.5277071123359892E-003
   3.0900000000000004E-002     6.1423565657898237E-003
   3.1199999999999999E-002     8.2242925004833815E-003
   3.1500000000000007E-002     1.0849219797344706E-002
   3.1800000000000002E-002     1.4086464705146406E-002
   3.2099999999999997E-002     1.8006983758477424E-002
   3.2400000000000005E-002     2.2666318241232900E-002
   3.2700000000000000E-002     2.8073132234860149E-002
   3.3000000000000002E-002     3.4174828341018766E-002
   3.3300000000000003E-002     4.0860409647660495E-002
   3.3599999999999998E-002     4.7950676630977553E-002
   3.3900000000000000E-002     5.5169566624051612E-002
   3.4200000000000001E-002     6.2127004438957259E-002
   3.4500000000000003E-002     6.8332779084411072E-002
   3.4799999999999998E-002     7.3217036598102178E-002
   3.5099999999999999E-002     7.6144525556110523E-002
   3.5400000000000001E-002     7.6437488978312498E-002
   3.5699999999999996E-002     7.3423452358562000E-002
   3.6000000000000004E-002     6.6504081941568066E-002
   3.6299999999999999E-002     5.5223372440053008E-002
   3.6600000000000008E-002     3.9325199039527643E-002
   3.6900000000000002E-002     1.8812804692258978E-002
   3.7199999999999997E-002    -5.9964627951067471E-003
   3.7500000000000006E-002    -3.4423598828370046E-002
   3.7800000000000000E-002    -6.5429742286148604E-002
   3.8100000000000009E-002    -9.7653697590747449E-002
   3.8400000000000004E-002   -0.12946648460848545     
   3.8699999999999998E-002   -0.15906159080185486     
   3.9000000000000007E-002   -0.18456824986001885     
   3.9300000000000002E-002   -0.20420936421789901     
   3.9600000000000003E-002   -0.21646275053328401     
   3.9900000000000005E-002   -0.22019662103449544     
   4.0200000000000000E-002   -0.21479147500822249     
   4.0500000000000001E-002   -0.20023744807752314     
   4.0800000000000003E-002   -0.17718773285628789     
   4.1100000000000005E-002   -0.14696516524971956     
   4.1399999999999999E-002   -0.11147077599990435     
   4.1700000000000008E-002    -7.3061422325408701E-002
   4.2000000000000003E-002    -3.4420162728893970E-002
   4.2299999999999997E-002     1.6277473214530911E-003
   4.2600000000000006E-002     3.2375836576127394E-002
   4.2900000000000001E-002     5.5426142603343297E-002
   4.3200000000000002E-002     6.8838671111064759E-002
   4.3500000000000004E-002     7.1311716412382542E-002
   4.3799999999999999E-002     6.2314193870981111E-002
   4.4100000000000000E-002     4.2114410287642394E-002
   4.4400000000000002E-002     1.1775601912890694E-002
   4.4700000000000004E-002    -2.6891997937236983E-002
   4.4999999999999998E-002    -7.1418733011108751E-002
   4.5300000000000000E-002   -0.11882642260872005     
   4.5600000000000002E-002   -0.16580984562646403     
   4.5899999999999996E-002   -0.20893678772196608     
   4.6200000000000005E-002   -0.24483264248040892     
   4.6500000000000000E-002   -0.27037113136518115     
   4.6799999999999994E-002   -0.28289412566202421     
   4.7100000000000003E-002   -0.28037499300075341     
   4.7399999999999998E-002   -0.26155077064592774     
   4.7700000000000006E-002   -0.22601799485792740     
   4.8000000000000001E-002   -0.17428735834486331     
   4.8300000000000010E-002   -0.10779507984486780     
   4.8600000000000004E-002    -2.8883173145737715E-002
   4.8899999999999999E-002     5.9320099367425341E-002
   4.9200000000000008E-002    0.15308349611160860     
   4.9500000000000002E-002    0.24822848735131706     
   4.9800000000000011E-002    0.34031598349824649     
   5.0100000000000006E-002    0.42488654369463952     
   5.0400000000000000E-002    0.49774616149943984     
   5.0700000000000009E-002    0.55520721667537953     
   5.1000000000000004E-002    0.59420510652578518     
   5.1299999999999998E-002    0.61248352694456165     
   5.1600000000000007E-002    0.60879292612645741     
   5.1900000000000002E-002    0.58300431966987332     
   5.2200000000000010E-002    0.53605594435139270     
   5.2500000000000005E-002    0.46989201433415867     
   5.2800000000000000E-002    0.38752372658796302     
   5.3099999999999994E-002    0.29295350340208648     
   5.3400000000000003E-002    0.19093769132993957     
   5.3699999999999998E-002     8.6775955597638510E-002
   5.4000000000000006E-002    -1.3875621400088337E-002
   5.4300000000000001E-002   -0.10522878395047428     
   5.4599999999999996E-002   -0.18169063803228544     
   5.4900000000000004E-002   -0.23819760125939043     
   5.5199999999999999E-002   -0.27051789274329574     
   5.5499999999999994E-002   -0.27556953505446213     
   5.5800000000000002E-002   -0.25164035494996340     
   5.6099999999999997E-002   -0.19860430353745118     
   5.6400000000000006E-002   -0.11812616846529685     
   5.6700000000000000E-002    -1.3687585753613033E-002
   5.6999999999999995E-002    0.10951234539891799     
   5.7300000000000004E-002    0.24478278915663254     
   5.7599999999999998E-002    0.38418625614546331     
   5.7900000000000007E-002    0.51891573509312017     
   5.8200000000000002E-002    0.63984164185227255     
   5.8499999999999996E-002    0.73804941606356644     
   5.8800000000000005E-002    0.80539855313569242     
   5.9100000000000000E-002    0.83504471112375311     
   5.9400000000000008E-002    0.82192918410151572     
   5.9700000000000003E-002    0.76318153154740243     
   6.0000000000000012E-002    0.65837754725550701     
   6.0300000000000006E-002    0.50964845503025324     
   6.0600000000000001E-002    0.32163262892554212     
   6.0900000000000010E-002    0.10127284058357069     
   6.1200000000000004E-002   -0.14251550767030705     
   6.1500000000000013E-002   -0.39931749471680372     
   6.1800000000000008E-002   -0.65778169122636754     
   6.2100000000000002E-002   -0.90624109852530910     
   6.2399999999999997E-002    -1.1333746186374816     
   6.2700000000000006E-002    -1.3287556703081416     
   6.3000000000000000E-002    -1.4833857400079582     
   6.3300000000000009E-002    -1.5901801002183773     
   6.3600000000000004E-002    -1.6443015954585489     
   6.3899999999999998E-002    -1.6433212171953746     
   6.4199999999999993E-002    -1.5872580389315194     
   6.4500000000000002E-002    -1.4785144855834036     
   6.4800000000000010E-002    -1.3217415077969192     
   6.5100000000000005E-002    -1.1235149286853487     
   6.5400000000000000E-002   -0.89193525820870811     
   6.5700000000000008E-002   -0.63627513171040229     
   6.5999999999999989E-002   -0.36656338870059374     
   6.6299999999999998E-002    -9.3149780106365987E-002
   6.6600000000000006E-002    0.17374319909646613     
   6.6900000000000001E-002    0.42437269253481036     
   6.7199999999999996E-002    0.64979776476354312     
   6.7500000000000004E-002    0.84222785004258005     
   6.7800000000000013E-002    0.99529210574319804     
   6.8099999999999994E-002     1.1042230542455800     
   6.8400000000000002E-002     1.1660573910011733     
   6.8700000000000011E-002     1.1797488161220657     
   6.8999999999999992E-002     1.1462387254780844     
   6.9300000000000000E-002     1.0684560914962693     
   6.9600000000000009E-002    0.95119610805365895     
   6.9900000000000004E-002    0.80101218688347164     
   7.0199999999999999E-002    0.62600304979181998     
   7.0500000000000007E-002    0.43542240757839906     
   7.0800000000000016E-002    0.23925618428131651     
   7.1099999999999997E-002     4.7824026621851951E-002
   7.1400000000000005E-002   -0.12876735628783600     
   7.1700000000000000E-002   -0.28122157306909423     
   7.1999999999999995E-002   -0.40160999509519579     
   7.2300000000000003E-002   -0.48384458892883209     
   7.2600000000000012E-002   -0.52413494612103817     
   7.2900000000000006E-002   -0.52140076229966492     
   7.3200000000000001E-002   -0.47743873015782845     
   7.3499999999999996E-002   -0.39693639751739396     
   7.3800000000000004E-002   -0.28737957152131871     
   7.4099999999999999E-002   -0.15867129594288876     
   7.4400000000000008E-002    -2.2559303853118440E-002
   7.4700000000000003E-002    0.10810281178623748     
   7.5000000000000011E-002    0.22026014332058261     
   7.5299999999999992E-002    0.30168008879143493     
   7.5600000000000001E-002    0.34201803833443939     
   7.5900000000000009E-002    0.33379241678501376     
   7.6200000000000004E-002    0.27319970267737576     
   7.6499999999999999E-002    0.16074753391860588     
   7.6800000000000007E-002     1.6036874358596692E-003
   7.7099999999999988E-002   -0.19449538600765479     
   7.7399999999999997E-002   -0.41383322855538462     
   7.7700000000000005E-002   -0.63955972024433050     
   7.8000000000000014E-002   -0.85281346237126898     
   7.8299999999999995E-002    -1.0341623267938584     
   7.8600000000000003E-002    -1.1653718216008049     
   7.8900000000000012E-002    -1.2310083368943974     
   7.9199999999999993E-002    -1.2196869083672297     
   7.9500000000000001E-002    -1.1251911289947127     
   7.9800000000000010E-002   -0.94735905302095269     
   8.0100000000000018E-002   -0.69231434277379189     
   8.0399999999999999E-002   -0.37204730752960535     
   8.0700000000000008E-002    -3.5082832709395304E-003
   8.1000000000000003E-002    0.39250758136827268     
   8.1299999999999997E-002    0.79282145099839763     
   8.1600000000000006E-002     1.1737462861159143     
   8.1900000000000014E-002     1.5129668221720460     
   8.2199999999999995E-002     1.7911367021235931     
   8.2500000000000004E-002     1.9931375649313414     
   8.2799999999999999E-002     2.1090835030914019     
   8.3100000000000007E-002     2.1349030424380944     
   8.3400000000000002E-002     2.0724166282230652     
   8.3700000000000011E-002     1.9288619336709787     
   8.4000000000000005E-002     1.7159157476501343     
   8.4300000000000000E-002     1.4484816161302214     
   8.4599999999999995E-002     1.1434476813885006     
   8.4900000000000003E-002    0.81832841135407819     
   8.5199999999999998E-002    0.48974599233684246     
   8.5500000000000007E-002    0.17214982742827495     
   8.5800000000000001E-002   -0.12295084345850950     
   8.6100000000000010E-002   -0.38736920299920774     
   8.6399999999999991E-002   -0.61641683917047263     
   8.6699999999999999E-002   -0.80885777524138447     
   8.7000000000000008E-002   -0.96631579094060194     
   8.7300000000000003E-002    -1.0922880697341164     
   8.7599999999999997E-002    -1.1911479832069580     
   8.7900000000000006E-002    -1.2673545547571679     
   8.8200000000000014E-002    -1.3246618039956977     
   8.8499999999999995E-002    -1.3653128918694928     
   8.8800000000000004E-002    -1.3894918770828339     
   8.9100000000000013E-002    -1.3952440843547183     
   8.9399999999999993E-002    -1.3788961981360079     
   8.9700000000000002E-002    -1.3355884129364852     
   9.0000000000000011E-002    -1.2597380381546102     
   9.0299999999999991E-002    -1.1460306042202821     
   9.0600000000000000E-002   -0.99059806777157200     
   9.0900000000000009E-002   -0.79188295983444923     
   9.1200000000000017E-002   -0.55116320457878343     
   9.1499999999999998E-002   -0.27302347284472672     
   9.1800000000000007E-002     3.4310849237730784E-002
   9.2100000000000001E-002    0.35914614496802627     
   9.2399999999999996E-002    0.68710668551743681     
   9.2700000000000005E-002     1.0019160244985694     
   9.3000000000000013E-002     1.2863697867901684     
   9.3300000000000008E-002     1.5235372721744094     
   9.3600000000000003E-002     1.6980491839793752     
   9.3899999999999997E-002     1.7973039079651068     
   9.4200000000000006E-002     1.8124098617263560     
   9.4500000000000001E-002     1.7388810808781836     
   9.4800000000000009E-002     1.5771141754117859     
   9.5100000000000004E-002     1.3324730874734523     
   9.5399999999999999E-002     1.0149458876919639     
   9.5699999999999993E-002    0.63869416404176160     
   9.6000000000000002E-002    0.22126546562415728     
   9.6300000000000011E-002   -0.21746174435555821     
   9.6600000000000005E-002   -0.65650607850340303     
   9.6900000000000000E-002    -1.0749140743716463     
   9.7200000000000009E-002    -1.4527021564227085     
   9.7499999999999989E-002    -1.7720025800830748     
   9.7799999999999998E-002    -2.0180572349648087     
   9.8100000000000007E-002    -2.1799303376421322     
   9.8400000000000015E-002    -2.2508825103107544     
   9.8699999999999996E-002    -2.2284904668130991     
   9.9000000000000005E-002    -2.1148146209633092     
   9.9300000000000013E-002    -1.9163328062520983     
   9.9599999999999994E-002    -1.6433571038718784     
   9.9900000000000003E-002    -1.3093244280847534     
  0.10020000000000001        -0.93014927947435078     
  0.10049999999999999        -0.52341437346582975     
  0.10080000000000000        -0.10739694622664109     
  0.10110000000000001         0.30011842843169423     
  0.10140000000000000         0.68262940681490958     
  0.10170000000000000          1.0256977839474390     
  0.10200000000000001          1.3177141839646156     
  0.10230000000000002          1.5504269396020554     
  0.10260000000000000          1.7192653281746053     
  0.10290000000000001          1.8231875796629682     
  0.10320000000000000          1.8643649720604647     
  0.10350000000000001          1.8477805729686434     
  0.10380000000000000          1.7804999171715385     
  0.10410000000000001          1.6706661914385008     
  0.10440000000000001          1.5264324768300734     
  0.10470000000000000          1.3553593843231078     
  0.10500000000000000          1.1638126903192449     
  0.10530000000000000         0.95625588902087832     
  0.10560000000000000         0.73505451028408808     
  0.10590000000000001         0.50104856285237409     
  0.10620000000000000         0.25397972080929876     
  0.10650000000000001         -6.8337433660593753E-003
  0.10679999999999999        -0.28137740471718675     
  0.10710000000000000        -0.56778927299829296     
  0.10740000000000001        -0.86157789904065407     
  0.10770000000000000         -1.1551117717171551     
  0.10800000000000000         -1.4372619284594050     
  0.10830000000000001         -1.6935946868425049     
  0.10859999999999999         -1.9071657573517609     
  0.10890000000000000         -2.0597807028670791     
  0.10920000000000001         -2.1336406229112570     
  0.10950000000000001         -2.1130910731552222     
  0.10979999999999999         -1.9863826673527998     
  0.11009999999999999         -1.7472945885551292     
  0.11040000000000001         -1.3965201587951386     
  0.11070000000000001        -0.94243728869282029     
  0.11100000000000000        -0.40105110780108533     
  0.11130000000000000         0.20467752648452936     
  0.11160000000000002         0.84570104959009551     
  0.11190000000000001          1.4885990319844222     
  0.11220000000000001          2.0979975319368012     
  0.11250000000000000          2.6387099005537404     
  0.11280000000000000          3.0776771363551187     
  0.11309999999999999          3.3861254542597092     
  0.11340000000000001          3.5416654421403986     
  0.11369999999999998          3.5294250258423490     
  0.11400000000000000          3.3426741257314476     
  0.11430000000000000          2.9833985302552062     
  0.11460000000000002          2.4624036082225857     
  0.11489999999999999          1.7987211233042171     
  0.11520000000000001          1.0187216015503184     
  0.11550000000000001         0.15508875902874492     
  0.11580000000000000        -0.75431016994971201     
  0.11609999999999999         -1.6679902767930388     
  0.11640000000000002         -2.5426567578036439     
  0.11670000000000001         -3.3351854127188227     
  0.11700000000000001         -4.0043436542142308     
  0.11730000000000000         -4.5128213574659881     
  0.11760000000000000         -4.8295799986419894     
  0.11789999999999999         -4.9319669510340809     
  0.11820000000000001         -4.8071395591097321     
  0.11850000000000001         -4.4533745333268833     
  0.11880000000000000         -3.8812369166749634     
  0.11910000000000000         -3.1138182649516124     
  0.11940000000000002         -2.1855967670848275     
  0.11970000000000001         -1.1408946768937613     
  0.12000000000000001         -3.2045634397998006E-002
  0.12030000000000000          1.0836037907263607     
  0.12060000000000000          2.1477013496876416     
  0.12089999999999999          3.1044200639092194     
  0.12119999999999999          3.9038475984392678     
  0.12150000000000001          4.5051781354101603     
  0.12180000000000001          4.8796154781033261     
  0.12210000000000000          5.0121375869256113     
  0.12239999999999999          4.9019767542614998     
  0.12270000000000002          4.5621835368183854     
  0.12300000000000001          4.0183516930180794     
  0.12330000000000001          3.3067020129722104     
  0.12360000000000000          2.4712236795317497     
  0.12390000000000000          1.5603590577480062     
  0.12419999999999999         0.62408723960814771     
  0.12450000000000001        -0.28848401318975414     
  0.12480000000000001         -1.1322226881592603     
  0.12509999999999999         -1.8680885466079988     
  0.12540000000000001         -2.4640012650069836     
  0.12570000000000003         -2.8958138086108454     
  0.12600000000000000         -3.1483217469824369     
  0.12630000000000002         -3.2154594725894849     
  0.12659999999999999         -3.0998755770533402     
  0.12690000000000001         -2.8126732133280248     
  0.12719999999999998         -2.3733640812529422     
  0.12750000000000000         -1.8090630494694029     
  0.12780000000000002         -1.1533429116485883     
  0.12809999999999999        -0.44522644231647673     
  0.12840000000000001         0.27236487358562989     
  0.12869999999999998         0.95478202950928415     
  0.12900000000000000          1.5578927313165212     
  0.12930000000000003          2.0408774215489767     
  0.12959999999999999          2.3687897758644296     
  0.12990000000000002          2.5150443327957541     
  0.13019999999999998          2.4635385383495785     
  0.13050000000000000          2.2103892680461943     
  0.13080000000000003          1.7647724180675706     
  0.13109999999999999          1.1485403625066022     
  0.13140000000000002         0.39504565567764421     
  0.13169999999999998        -0.45248802218869449     
  0.13200000000000001         -1.3435949066385213     
  0.13229999999999997         -2.2241039696942901     
  0.13260000000000000         -3.0396946351217831     
  0.13290000000000002         -3.7392631892078985     
  0.13319999999999999         -4.2780091093129791     
  0.13350000000000001         -4.6202003619651233     
  0.13380000000000003         -4.7415125277988732     
  0.13410000000000000         -4.6304299877793795     
  0.13440000000000002         -4.2883484430714551     
  0.13469999999999999         -3.7290997468321465     
  0.13500000000000001         -2.9782421323998314     
  0.13529999999999998         -2.0716573585119544     
  0.13560000000000000         -1.0529365685130168     
  0.13590000000000002          2.9354706235099372E-002
  0.13619999999999999          1.1238383992512517     
  0.13650000000000001          2.1789036128213275     
  0.13680000000000003          3.1457477517573982     
  0.13710000000000000          3.9810358520262916     
  0.13740000000000002          4.6488196342035364     
  0.13769999999999999          5.1221659025207469     
  0.13800000000000001          5.3848998618440689     
  0.13829999999999998          5.4326894456303876     
  0.13860000000000000          5.2729733134569745     
  0.13890000000000002          4.9242961398878693     
  0.13919999999999999          4.4153878420669495     
  0.13950000000000001          3.7834181172096439     
  0.13979999999999998          3.0711966929498642     
  0.14010000000000000          2.3240283476337922     
  0.14040000000000002          1.5865175050999754     
  0.14069999999999999         0.89899678373062297     
  0.14100000000000001         0.29437832132488895     
  0.14130000000000004        -0.20458325560542420     
  0.14160000000000000        -0.58723836904590576     
  0.14189999999999997        -0.85579037883271358     
  0.14219999999999999         -1.0246714921690370     
  0.14250000000000002         -1.1191322049034200     
  0.14279999999999998         -1.1725452194212092     
  0.14310000000000000         -1.2224886443424530     
  0.14339999999999997         -1.3064738313329798     
  0.14369999999999999         -1.4580508076512624     
  0.14400000000000002         -1.7025489278016102     
  0.14429999999999998         -2.0533139125991484     
  0.14460000000000001         -2.5098943182027154     
  0.14490000000000003         -3.0575468174995253     
  0.14520000000000000         -3.6676416306836068     
  0.14550000000000002         -4.2993464753316442     
  0.14579999999999999         -4.9033404128851457     
  0.14610000000000001         -5.4263807568963989     
  0.14640000000000003         -5.8157436191339453     
  0.14670000000000000         -6.0235783865322272     
  0.14699999999999996         -6.0116841996641455     
  0.14729999999999999         -5.7549565320899170     
  0.14760000000000001         -5.2433403155662832     
  0.14789999999999998         -4.4828141321899206     
  0.14820000000000000         -3.4951513193824049     