  -1.4999999999999999E-002     0.0000000000000000     
  -1.4700000000000000E-002     0.0000000000000000     
  -1.4400000000000000E-002     0.0000000000000000     
  -1.4100000000000000E-002     0.0000000000000000     
  -1.3800000000000000E-002     0.0000000000000000     
  -1.3500000000000000E-002     0.0000000000000000     
  -1.3200000000000000E-002     0.0000000000000000     
  -1.2899999999999998E-002     0.0000000000000000     
  -1.2600000000000000E-002     0.0000000000000000     
  -1.2299999999999998E-002     0.0000000000000000     
  -1.2000000000000000E-002     0.0000000000000000     
  -1.1699999999999999E-002    -1.0417562959621735E-043
  -1.1399999999999999E-002     9.8820043167549671E-037
  -1.1099999999999999E-002     8.5228138202701606E-035
  -1.0799999999999999E-002     1.0769461662875295E-033
  -1.0499999999999999E-002    -1.3330571637737391E-031
  -1.0199999999999999E-002     3.0426960831419359E-030
  -9.8999999999999991E-003    -3.9403808887930141E-029
  -9.5999999999999992E-003     3.5369443475782802E-028
  -9.2999999999999992E-003    -2.4069986460980002E-027
  -8.9999999999999993E-003     1.3205359317483936E-026
  -8.6999999999999994E-003    -6.0996884818749991E-026
  -8.3999999999999995E-003     2.4200174178990503E-025
  -8.0999999999999996E-003    -8.2515885534972567E-025
  -7.7999999999999988E-003     2.4216486447982199E-024
  -7.4999999999999997E-003    -6.2495752953540516E-024
  -7.1999999999999998E-003     1.4579830422705364E-023
  -6.8999999999999981E-003    -2.9185823222432240E-023
  -6.5999999999999982E-003     3.2282916841196156E-023
  -6.3000000000000000E-003     9.2239759250395672E-023
  -6.0000000000000001E-003    -6.7300052609885303E-022
  -5.6999999999999985E-003     1.7426586027659650E-021
  -5.3999999999999986E-003     7.2903865277129422E-022
  -5.1000000000000004E-003    -2.7121491579744393E-020
  -4.7999999999999987E-003     1.3828814549717882E-019
  -4.5000000000000005E-003    -4.5892304500716131E-019
  -4.1999999999999989E-003     1.1489910226783268E-018
  -3.8999999999999990E-003    -2.2148537202718133E-018
  -3.5999999999999990E-003     3.0333279953244727E-018
  -3.2999999999999991E-003    -1.6215268879229918E-018
  -2.9999999999999992E-003    -5.8779388169651751E-018
  -2.6999999999999993E-003     2.4498649959875505E-017
  -2.3999999999999994E-003    -5.7683499917680830E-017
  -2.0999999999999977E-003     1.0347298682999378E-016
  -1.7999999999999995E-003    -1.5154982975537167E-016
  -1.4999999999999979E-003     1.7095004777669722E-016
  -1.1999999999999997E-003    -4.9985415601598441E-017
  -8.9999999999999976E-004    -5.3642350063240692E-016
  -5.9999999999999810E-004     2.1813370567758941E-015
  -2.9999999999999992E-004    -5.2585654829869183E-015
   0.0000000000000000          8.5069654958873260E-015
   3.0000000000000165E-004    -7.6219421604593590E-015
   5.9999999999999984E-004    -3.0964555424766500E-015
   9.0000000000000149E-004     2.3537094388045756E-014
   1.2000000000000031E-003    -3.9280662193908478E-014
   1.5000000000000013E-003     2.5010927680827502E-014
   1.8000000000000030E-003     2.8884214143884036E-014
   2.1000000000000012E-003    -7.5419554179081460E-014
   2.3999999999999994E-003    -1.0356220466673858E-014
   2.7000000000000010E-003     3.9179424385838223E-013
   2.9999999999999992E-003    -1.1441921091988137E-012
   3.3000000000000008E-003     2.0627969288945298E-012
   3.6000000000000025E-003    -2.4890209855234648E-012
   3.9000000000000007E-003     9.6178315235746350E-013
   4.2000000000000023E-003     6.6471979611146940E-012
   4.5000000000000005E-003    -3.1478073623084062E-011
   4.7999999999999987E-003     8.9216020526512809E-011
   5.1000000000000004E-003    -1.6409945766271746E-010
   5.4000000000000020E-003     1.3721471060132993E-010
   5.7000000000000037E-003     2.2635763785090284E-010
   5.9999999999999984E-003    -1.1639397819331882E-009
   6.3000000000000000E-003     2.8424021824675979E-009
   6.6000000000000017E-003    -4.6398858391999185E-009
   6.9000000000000034E-003     7.6563437227252498E-010
   7.2000000000000015E-003     2.3787691788273446E-008
   7.5000000000000032E-003    -6.3263633040379168E-008
   7.8000000000000014E-003     1.2646493299748623E-008
   8.0999999999999996E-003     2.4687210919931904E-007
   8.4000000000000012E-003    -3.2281312966765407E-007
   8.7000000000000029E-003    -6.6306909578183425E-007
   9.0000000000000011E-003     1.2061141657946069E-006
   9.2999999999999992E-003     1.8652640364681555E-006
   9.6000000000000009E-003    -3.2238678621159832E-006
   9.8999999999999991E-003    -6.7363596606951898E-006
   1.0200000000000001E-002     7.3375007219165634E-006
   1.0500000000000002E-002     4.5097626110897027E-005
   1.0800000000000004E-002     1.0256974102243405E-004
   1.1099999999999999E-002     1.8152751577686725E-004
   1.1400000000000000E-002     2.9290164676145633E-004
   1.1700000000000002E-002     4.5729434115465635E-004
   1.2000000000000004E-002     7.0829799659150017E-004
   1.2300000000000002E-002     1.0928559280778656E-003
   1.2600000000000000E-002     1.6758659520189740E-003
   1.2900000000000002E-002     2.5474387066764278E-003
   1.3200000000000000E-002     3.8320917866752767E-003
   1.3500000000000002E-002     5.6957895520528276E-003
   1.3800000000000003E-002     8.3562861616156316E-003
   1.4100000000000001E-002     1.2097019626538230E-002
   1.4400000000000000E-002     1.7265647539654282E-002
   1.4700000000000001E-002     2.4283256225349707E-002
   1.4999999999999999E-002     3.3659167370513228E-002
   1.5300000000000001E-002     4.5969236344035845E-002
   1.5600000000000003E-002     6.1821333658425751E-002
   1.5899999999999997E-002     8.1826649062106391E-002
   1.6199999999999999E-002    0.10654762315521112     
   1.6500000000000001E-002    0.13640963938243533     
   1.6800000000000002E-002    0.17157380164368682     
   1.7100000000000004E-002    0.21181478948155047     
   1.7400000000000006E-002    0.25636011180194157     
   1.7700000000000000E-002    0.30372893591650618     
   1.8000000000000002E-002    0.35157480578717393     
   1.8300000000000004E-002    0.39655935468852044     
   1.8600000000000005E-002    0.43429925707704969     
   1.8900000000000000E-002    0.45935371160903943     
   1.9200000000000002E-002    0.46535855159563122     
   1.9500000000000003E-002    0.44529670107835473     
   1.9799999999999998E-002    0.39192741767347916     
   2.0100000000000000E-002    0.29838818027086894     
   2.0400000000000001E-002    0.15893672214985302     
   2.0700000000000003E-002    -3.0236524187994801E-002
   2.0999999999999998E-002   -0.27015697839877717     
   2.1299999999999999E-002   -0.55824416543032951     
   2.1600000000000001E-002   -0.88758605131370316     
   2.1900000000000003E-002    -1.2465218218419085     
   2.2200000000000004E-002    -1.6185632826724197     
   2.2500000000000006E-002    -1.9827709050287468     
   2.2800000000000001E-002    -2.3147191825343825     
   2.3100000000000002E-002    -2.5878264703945968     
   2.3400000000000004E-002    -2.7752434989850783     
   2.3699999999999999E-002    -2.8518819582939585     
   2.4000000000000000E-002    -2.7967641130100618     
   2.4300000000000002E-002    -2.5951897889430229     
   2.4599999999999997E-002    -2.2407784281701355     
   2.4900000000000005E-002    -1.7367864708214402     
   2.5200000000000000E-002    -1.0969900999398032     
   2.5499999999999995E-002   -0.34522455708352717     
   2.5800000000000003E-002    0.48546707151136681     
   2.6099999999999998E-002     1.3548192856707879     
   2.6400000000000007E-002     2.2181420133045546     
   2.6700000000000002E-002     3.0292308070956442     
   2.6999999999999996E-002     3.7439469974908115     
   2.7300000000000005E-002     4.3232779143648061     
   2.7600000000000000E-002     4.7361831279039652     
   2.7900000000000008E-002     4.9618177019241596     
   2.8200000000000003E-002     4.9905647846458550     
   2.8499999999999998E-002     4.8243598580254687     
   2.8800000000000006E-002     4.4757637662714975     
   2.9100000000000001E-002     3.9662692287540651     
   2.9400000000000003E-002     3.3239276214517282     
   2.9700000000000004E-002     2.5809211606233706     
   3.0000000000000006E-002     1.7705081648002352     
   3.0300000000000001E-002    0.92475736301935352     
   3.0600000000000002E-002     7.2959267262748359E-002
   3.0900000000000004E-002   -0.76014559067666865     
   3.1199999999999999E-002    -1.5540134716815646     
   3.1500000000000007E-002    -2.2924744850392376     
   3.1800000000000002E-002    -2.9624449939999775     
   3.2099999999999997E-002    -3.5524294082382553     
   3.2400000000000005E-002    -4.0515637083709324     
   3.2700000000000000E-002    -4.4476036697542387     
   3.3000000000000002E-002    -4.7266721390390432     
   3.3300000000000003E-002    -4.8733148239632582     
   3.3599999999999998E-002    -4.8711518913847165     
   3.3900000000000000E-002    -4.7044195818623420     
   3.4200000000000001E-002    -4.3600673393079337     
   3.4500000000000003E-002    -3.8306994196131035     
   3.4799999999999998E-002    -3.1166355421058807     
   3.5099999999999999E-002    -2.2289838668972695     
   3.5400000000000001E-002    -1.1905387597571531     
   3.5699999999999996E-002    -3.6523205323207152E-002
   3.6000000000000004E-002     1.1856373403530427     
   3.6299999999999999E-002     2.4188446753715143     
   3.6600000000000008E-002     3.5987479344419535     
   3.6900000000000002E-002     4.6584696338922864     
   3.7199999999999997E-002     5.5327424498971585     
   3.7500000000000006E-002     6.1632923523802488     
   3.7800000000000000E-002     6.5034622564226385     
   3.8100000000000009E-002     6.5222958940910614     
   3.8400000000000004E-002     6.2076606209452088     
   3.8699999999999998E-002     5.5680312637439018     
   3.9000000000000007E-002     4.6325592619523448     
   3.9300000000000002E-002     3.4492835745483368     
   3.9600000000000003E-002     2.0829136258903898     
   3.9900000000000005E-002    0.61013961208441292     
   4.0200000000000000E-002   -0.88545976199574239     
   4.0500000000000001E-002    -2.3191873700057797     
   4.0800000000000003E-002    -3.6112486868010949     
   4.1100000000000005E-002    -4.6917042190020819     
   4.1399999999999999E-002    -5.5063132637441905     
   4.1700000000000008E-002    -6.0188364358095736     
   4.2000000000000003E-002    -6.2140473710881476     
   4.2299999999999997E-002    -6.0990814608027994     
   4.2600000000000006E-002    -5.7007321841322653     
   4.2900000000000001E-002    -5.0653781530493935     
   4.3200000000000002E-002    -4.2531990768815122     
   4.3500000000000004E-002    -3.3344747911375388     
   4.3799999999999999E-002    -2.3847451221931162     
   4.4100000000000000E-002    -1.4771807307235454     
   4.4400000000000002E-002   -0.67962517238196085     
   4.4700000000000004E-002    -4.7530733648221093E-002
   4.4999999999999998E-002    0.37940583278901041     
   4.5300000000000000E-002    0.57957486286261783     
   4.5600000000000002E-002    0.55187164377199938     
   4.5899999999999996E-002    0.31490295668179669     
   4.6200000000000005E-002    -9.4544583604122420E-002
   4.6500000000000000E-002   -0.62405507086633394     
   4.6799999999999994E-002    -1.2097799512575385     
   4.7100000000000003E-002    -1.7816806690000264     
   4.7399999999999998E-002    -2.2684545130774447     
   4.7700000000000006E-002    -2.6036290731662279     
   4.8000000000000001E-002    -2.7300066595819286     
   4.8300000000000010E-002    -2.6038071838203702     
   4.8600000000000004E-002    -2.1987695542590644     
   4.8899999999999999E-002    -1.5066865680769650     
   4.9200000000000008E-002   -0.53901834957677275     
   4.9500000000000002E-002    0.67407282762424925     
   4.9800000000000011E-002     2.0865995378419502     
   5.0100000000000006E-002     3.6378189866396284     
   5.0400000000000000E-002     5.2585677336457737     
   5.0700000000000009E-002     6.8731211778095762     
   5.1000000000000004E-002     8.4040421570910890     
   5.1299999999999998E-002     9.7762660125011287     
   5.1600000000000007E-002     10.919229427246426     
   5.1900000000000002E-002     11.771911549596313     
   5.2200000000000010E-002     12.284151016929769     
   5.2500000000000005E-002     12.418390226306583     
   5.2800000000000000E-002     12.151282275905972     
   5.3099999999999994E-002     11.473969437636828     
   5.3400000000000003E-002     10.392994870357802     
   5.3699999999999998E-002     8.9299983975610484     
   5.4000000000000006E-002     7.1207170566558498     
   5.4300000000000001E-002     5.0139560844601245     
   5.4599999999999996E-002     2.6708488661661383     
   5.4900000000000004E-002    0.16109060639148673     
   5.5199999999999999E-002    -2.4367534840705272     
   5.5499999999999994E-002    -5.0403251339001525     
   5.5800000000000002E-002    -7.5650405536688048     
   5.6099999999999997E-002    -9.9261350239722628     
   5.6400000000000006E-002    -12.043422654759533     
   5.6700000000000000E-002    -13.842032382631171     
   5.6999999999999995E-002    -15.256033841392300     
   5.7300000000000004E-002    -16.231056151459953     
   5.7599999999999998E-002    -16.725047997731767     
   5.7900000000000007E-002    -16.712560581769687     
   5.8200000000000002E-002    -16.184137269528694     
   5.8499999999999996E-002    -15.148719711599361     
   5.8800000000000005E-002    -13.636104508978434     
   5.9100000000000000E-002    -11.693279195136229     
   5.9400000000000008E-002    -9.3872231785056286     
   5.9700000000000003E-002    -6.8032469182637616     
   6.0000000000000012E-002    -4.0402063861743107     
   6.0300000000000006E-002    -1.2104839941324255     
   6.0600000000000001E-002     1.5679642161186065     
   6.0900000000000010E-002     4.1759738976169576     
   6.1200000000000004E-002     6.4986619854459917     
   6.1500000000000013E-002     8.4338979482708289     
   6.1800000000000008E-002     9.8962554560205440     
   6.2100000000000002E-002     10.824541996866603     
   6.2399999999999997E-002     11.186374606335413     
   6.2700000000000006E-002     10.979556019326063     
   6.3000000000000000E-002     10.234064034611661     
   6.3300000000000009E-002     9.0114745422299141     
   6.3600000000000004E-002     7.4000782332077080     
   6.3899999999999998E-002     5.5118851098694615     
   6.4199999999999993E-002     3.4737071528454311     
   6.4500000000000002E-002     1.4200667995560439     
   6.4800000000000010E-002   -0.51527871711346362     
   6.5100000000000005E-002    -2.2093064842793786     
   6.5400000000000000E-002    -3.5557851711161681     
   6.5700000000000008E-002    -4.4742841517132685     
   6.5999999999999989E-002    -4.9157356915582122     
   6.6299999999999998E-002    -4.8632483116817316     
   6.6600000000000006E-002    -4.3354549016196895     
   6.6900000000000001E-002    -3.3833136181129975     
   6.7199999999999996E-002    -2.0864534054838733     
   6.7500000000000004E-002   -0.54778585490395060     
   6.7800000000000013E-002     1.1162573212107778     
   6.8099999999999994E-002     2.7837102387446788     
   6.8400000000000002E-002     4.3364105050626822     
   6.8700000000000011E-002     5.6703524270907568     
   6.8999999999999992E-002     6.7017883803486162     
   6.9300000000000000E-002     7.3746408855772811     
   6.9600000000000009E-002     7.6640924766888254     
   6.9900000000000004E-002     7.5763935355323007     
   7.0199999999999999E-002     7.1464561714911241     
   7.0500000000000007E-002     6.4335502895593875     
   7.0800000000000016E-002     5.5140036898205409     
   7.1099999999999997E-002     4.4735302351634862     
   7.1400000000000005E-002     3.3963720302408285     
   7.1700000000000000E-002     2.3584892335592156     
   7.1999999999999995E-002     1.4211963083132175     
   7.2300000000000003E-002    0.62371328882337973     
   7.2600000000000012E-002    -1.5196171044040398E-002
   7.2900000000000006E-002   -0.49846421001415725     
   7.3200000000000001E-002   -0.84957540858473291     
   7.3499999999999996E-002    -1.1030160226240895     
   7.3800000000000004E-002    -1.3023194071115043     
   7.4099999999999999E-002    -1.4905372815497619     
   7.4400000000000008E-002    -1.7042316111884410     
   7.4700000000000003E-002    -1.9734485020161960     
   7.5000000000000011E-002    -2.3113546194277812     
   7.5299999999999992E-002    -2.7205946219898847     
   7.5600000000000001E-002    -3.1906988348801479     
   7.5900000000000009E-002    -3.6991848626606680     
   7.6200000000000004E-002    -4.2213148712198789     
   7.6499999999999999E-002    -4.7262844644042108     
   7.6800000000000007E-002    -5.1871799994930718     
   7.7099999999999988E-002    -5.5812506222527096     
   7.7399999999999997E-002    -5.8900861261003250     
   7.7700000000000005E-002    -6.1057395434220263     
   7.8000000000000014E-002    -6.2238015604535768     
   7.8299999999999995E-002    -6.2477416444374896     
   7.8600000000000003E-002    -6.1865596198624742     
   7.8900000000000012E-002    -6.0513162014718729     
   7.9199999999999993E-002    -5.8555449815083502     
   7.9500000000000001E-002    -5.6139907187998395     
   7.9800000000000010E-002    -5.3397759717191349     
   8.0100000000000018E-002    -5.0451058642513571     
   8.0399999999999999E-002    -4.7404808274334753     
   8.0700000000000008E-002    -4.4300836763855926     
   8.1000000000000003E-002    -4.1146430185017167     
   8.1299999999999997E-002    -3.7868065015711272     
   8.1600000000000006E-002    -3.4320818522420495     
   8.1900000000000014E-002    -3.0313135691891051     
   8.2199999999999995E-002    -2.5578097390254801     
   8.2500000000000004E-002    -1.9853272725893387     
   8.2799999999999999E-002    -1.2882836189622617     
   8.3100000000000007E-002   -0.44646562198636613     
   8.3400000000000002E-002    0.54546821699959891     
   8.3700000000000011E-002     1.6816241014249826     
   8.4000000000000005E-002     2.9357376319981676     
   8.4300000000000000E-002     4.2655234267311952     
   8.4599999999999995E-002     5.6171154589724566     
   8.4900000000000003E-002     6.9263324023064623     
   8.5199999999999998E-002     8.1337746548779712     
   8.5500000000000007E-002     9.1889151227984929     
   8.5800000000000001E-002     10.061899033338234     
   8.6100000000000010E-002     10.750624489400602     
   8.6399999999999991E-002     11.281376661924449     
   8.6699999999999999E-002     11.711264429029924     
   8.7000000000000008E-002     12.115964706026844     
   8.7300000000000003E-002     12.581204227887525     
   8.7599999999999997E-002     13.184553906503501     
   8.7900000000000006E-002     13.976386815865073     
   8.8200000000000014E-002     14.965336568153567     
   8.8499999999999995E-002     16.098623010909758     
   8.8800000000000004E-002     17.261333159484355     
   8.9100000000000013E-002     18.269681578811962     
   8.9399999999999993E-002     18.884961686023235     
   8.9700000000000002E-002     18.833156154922591     
   9.0000000000000011E-002     17.828532724218540     
   9.0299999999999991E-002     15.613887347141477     
   9.0600000000000000E-002     11.990006048852052     
   9.0900000000000009E-002     6.8547717731725051     
   9.1200000000000017E-002    0.22952027325975702     
   9.1499999999999998E-002    -7.7250481022879756     
   9.1800000000000007E-002    -16.695438229019675     
   9.2100000000000001E-002    -26.236064538923156     
   9.2399999999999996E-002    -35.783908246084906     
   9.2700000000000005E-002    -44.700862066320369     
   9.3000000000000013E-002    -52.326239524551447     
   9.3300000000000008E-002    -58.022593279081271     
   9.3600000000000003E-002    -61.245287573435959     
   9.3899999999999997E-002    -61.580008148169874     
   9.4200000000000006E-002    -58.796789800774555     
   9.4500000000000001E-002    -52.874026087917436     
   9.4800000000000009E-002    -44.004538507380254     
   9.5100000000000004E-002    -32.598635888729106     
   9.5399999999999999E-002    -19.243937998183405     
   9.5699999999999993E-002    -4.6755636843634951     
   9.6000000000000002E-002     10.284293926956444     
   9.6300000000000011E-002     24.789056259281459     
   9.6600000000000005E-002     38.021170764249966     
   9.6900000000000000E-002     49.263823419093434     
   9.7200000000000009E-002     57.935484618507331     
   9.7499999999999989E-002     63.636553388541778     
   9.7799999999999998E-002     66.167006081856144     
   9.8100000000000007E-002     65.523222548043151     
   9.8400000000000015E-002     61.900431358619016     
   9.8699999999999996E-002     55.651614070207934     
   9.9000000000000005E-002     47.263804514306258     
   9.9300000000000013E-002     37.313830679935506     
   9.9599999999999994E-002     26.419797486166853     
   9.9900000000000003E-002     15.206170862565489     
  0.10020000000000001          4.2525530367773348     
  0.10049999999999999         -5.9227635734740192     
  0.10080000000000000         -14.899733124115221     
  0.10110000000000001         -22.363683150159432     
  0.10140000000000000         -28.111974073768135     
  0.10170000000000000         -32.060549995577304     
  0.10200000000000001         -34.222392326897833     
  0.10230000000000002         -34.709498669126035     
  0.10260000000000000         -33.704161955199645     
  0.10290000000000001         -31.443791770037720     
  0.10320000000000000         -28.205756653973140     
  0.10350000000000001         -24.275897587026453     
  0.10380000000000000         -19.946338359089644     
  0.10410000000000001         -15.483134070540990     
  0.10440000000000001         -11.124383815672187     
  0.10470000000000000         -7.0653524070278735     
  0.10500000000000000         -3.4501290636979625     
  0.10530000000000000        -0.37754454498314644     
  0.10560000000000000          2.1091717492839530     
  0.10590000000000001          4.0029328844715719     
  0.10620000000000000          5.3400896462413217     
  0.10650000000000001          6.1823647880773560     
  0.10679999999999999          6.6056273899726614     
  0.10710000000000000          6.7022999366603520     
  0.10740000000000001          6.5523418164754288     
  0.10770000000000000          6.2397831806690647     
  0.10800000000000000          5.8295744935520126     
  0.10830000000000001          5.3721431902393100     
  0.10859999999999999          4.9123510657026133     
  0.10890000000000000          4.4680356418735814     
  0.10920000000000001          4.0601906303135360     
  0.10950000000000001          3.6940574243049098     
  0.10979999999999999          3.3711743003380574     
  0.11009999999999999          3.0955886537764585     
  0.11040000000000001          2.8594486436956350     
  0.11070000000000001          2.6653122649325574     
  0.11100000000000000          2.5059327835732921     
  0.11130000000000000          2.3768481963461587     
  0.11160000000000002          2.2722096194039501     
  0.11190000000000001          2.1788546774159325     
  0.11220000000000001          2.0897810184180998     
  0.11250000000000000          1.9888213585666172     
  0.11280000000000000          1.8666227766701271     
  0.11309999999999999          1.7124197203536016     
  0.11340000000000001          1.5183833578034156     
  0.11369999999999998          1.2850616951143972     
  0.11400000000000000          1.0105877943482737     
  0.11430000000000000         0.70545880912335002     
  0.11460000000000002         0.37767538038473797     
  0.11489999999999999          4.0795746511433029E-002
  0.11520000000000001        -0.29029097138658461     
  0.11550000000000001        -0.60583613718522689     
  0.11580000000000000        -0.89219138884873206     
  0.11609999999999999         -1.1463957778238587     
  0.11640000000000002         -1.3622643674519768     
  0.11670000000000001         -1.5411383818647617     
  0.11700000000000001         -1.6856337496623335     
  0.11730000000000000         -1.7965372511491855     
  0.11760000000000000         -1.8811968286161243     
  0.11789999999999999         -1.9384259905859522     
  0.11820000000000001         -1.9720605350597418     
  0.11850000000000001         -1.9800933349527214     
  0.11880000000000000         -1.9583899732659571     
  0.11910000000000000         -1.9066049826220182     
  0.11940000000000002         -1.8189508699791688     
  0.11970000000000001         -1.6981192633282398     
  0.12000000000000001         -1.5419026439664711     
  0.12030000000000000         -1.3559471221407893     
  0.12060000000000000         -1.1479539753797792     
  0.12089999999999999        -0.92440574467897663     
  0.12119999999999999        -0.69950532344135152     
  0.12150000000000001        -0.48038130680277702     
  0.12180000000000001        -0.27944984952737162     
  0.12210000000000000        -0.10130374240019147     
  0.12239999999999999          5.1618659788450788E-002
  0.12270000000000002         0.17690683580929764     
  0.12300000000000001         0.28485634611683519     
  0.12330000000000001         0.37712290494747419     
  0.12360000000000000         0.46708491020585663     
  0.12390000000000000         0.56246315948087711     
  0.12419999999999999         0.66820555247281710     
  0.12450000000000001         0.79330658100062068     
  0.12480000000000001         0.92992251007629412     
  0.12509999999999999          1.0790260895317871     
  0.12540000000000001          1.2285921413792729     
  0.12570000000000003          1.3641381076803829     
  0.12600000000000000          1.4765438836498417     
  0.12630000000000002          1.5466487200813310     
  0.12659999999999999          1.5676303904850089     
  0.12690000000000001          1.5291801513642731     
  0.12719999999999998          1.4288134427122134     
  0.12750000000000000          1.2720291508232535     
  0.12780000000000002          1.0632983381697083     
  0.12809999999999999         0.81674796150126527     
  0.12840000000000001         0.54435926868524087     
  0.12869999999999998         0.26076320317248491     
  0.12900000000000000         -2.1656478188319690E-002
  0.12930000000000003        -0.29233150885147330     
  0.12959999999999999        -0.54331796575060276     
  0.12990000000000002        -0.77345680513812431     
  0.13019999999999998        -0.97900282764661584     
  0.13050000000000000         -1.1632643893302057     
  0.13080000000000003         -1.3258783779070524     
  0.13109999999999999         -1.4661166626357429     
  0.13140000000000002         -1.5820981213779737     
  0.13169999999999998         -1.6650262996882346     
  0.13200000000000001         -1.7103487154263561     
  0.13229999999999997         -1.7043015826712598     
  0.13260000000000000         -1.6379855713386229     
  0.13290000000000002         -1.5033702677037049     
  0.13319999999999999         -1.2933062133245465     
  0.13350000000000001         -1.0139502121366835     
  0.13380000000000003        -0.67103175937411097     
  0.13410000000000000        -0.28509538474726209     
  0.13440000000000002         0.11978760636580296     
  0.13469999999999999         0.51511019117613088     
  0.13500000000000001         0.86555813720058306     
  0.13529999999999998          1.1446039526185667     
  0.13560000000000000          1.3231833987526436     
  0.13590000000000002          1.3882205294053542     
  0.13619999999999999          1.3358281679601411     
  0.13650000000000001          1.1746897571979245     
  0.13680000000000003         0.93055825880513621     
  0.13710000000000000         0.63555562747270677     
  0.13740000000000002         0.33486426972181227     
  0.13769999999999999          7.1409042260819719E-002
  0.13800000000000001        -0.11114350680859994     
  0.13829999999999998        -0.18009444159128954     
  0.13860000000000000        -0.11847927560079208     
  0.13890000000000002          7.9684309161141470E-002
  0.13919999999999999         0.39436790683518086     
  0.13950000000000001         0.79506461831595543     
  0.13979999999999998          1.2320164198084271     
  0.14010000000000000          1.6479401199969643     
  0.14040000000000002          1.9870790931231681     
  0.14069999999999999          2.1908954986075786     
  0.14100000000000001          2.2225047927659514     
  0.14130000000000004          2.0546578778516489     
  0.14160000000000000          1.6832967502769691     
  0.14189999999999997          1.1303366079799126     
  0.14219999999999999         0.42996098000797361     
  0.14250000000000002        -0.35733314773508301     
  0.14279999999999998         -1.1669831001063791     
  0.14310000000000000         -1.9271443607196515     
  0.14339999999999997         -2.5682715728184413     
  0.14369999999999999         -3.0358628475984615     
  0.14400000000000002         -3.2853039896539289     
  0.14429999999999998         -3.2966653524920844     
  0.14460000000000001         -3.0688862115452715     
  0.14490000000000003         -2.6226179061835242     
  0.14520000000000000         -1.9979182138987490     
  0.14550000000000002         -1.2470798368957088     
  0.14579999999999999        -0.43387470737539413     
  0.14610000000000001         0.37906753741912463     
  0.14640000000000003          1.1276097973625523     
  0.14670000000000000          1.7602969937878181     
  0.14699999999999996          2.2363380631963365     
  0.14729999999999999          2.5277654333900546     
  0.14760000000000001          2.6264325807797388     
  0.14789999999999998          2.5346228386168468     
  0.14820000000000000          2.2735840706806707     