  -1.4999999999999999E-002     0.0000000000000000     
  -1.4700000000000000E-002     0.0000000000000000     
  -1.4400000000000000E-002     1.1134559422723104E-064
  -1.4100000000000000E-002    -5.9070871243912273E-034
  -1.3800000000000000E-002    -1.0602472551543837E-031
  -1.3500000000000000E-002     1.7721406735898899E-029
  -1.3200000000000000E-002     3.9389038972343775E-027
  -1.2899999999999998E-002     4.9762614884845733E-026
  -1.2600000000000000E-002    -1.3191699289128826E-024
  -1.2299999999999998E-002    -9.3780341506524012E-025
  -1.2000000000000000E-002     3.9007123289490863E-023
  -1.1699999999999999E-002     4.0471927202173049E-022
  -1.1399999999999999E-002    -6.8220495790599528E-021
  -1.1099999999999999E-002     3.7527941897911275E-020
  -1.0799999999999999E-002     1.4748563103940122E-019
  -1.0499999999999999E-002    -3.2750982233655195E-018
  -1.0199999999999999E-002     1.5634471310938753E-017
  -9.8999999999999991E-003    -3.1591021169872605E-018
  -9.5999999999999992E-003    -2.5101213228101682E-016
  -9.2999999999999992E-003     1.0906942854056293E-015
  -8.9999999999999993E-003    -2.0649330426467171E-015
  -8.6999999999999994E-003     7.4390482919235132E-016
  -8.3999999999999995E-003     6.8669459945576518E-015
  -8.0999999999999996E-003    -2.4693916363144165E-014
  -7.7999999999999988E-003     5.2400768381682760E-014
  -7.4999999999999997E-003    -7.8573257211426890E-014
  -7.1999999999999998E-003     8.7795378780628190E-014
  -6.8999999999999981E-003    -5.2801574335755004E-014
  -6.5999999999999982E-003    -1.2221098310137521E-013
  -6.3000000000000000E-003     4.1840942596947360E-013
  -6.0000000000000001E-003    -1.6868098740571311E-013
  -5.6999999999999985E-003    -1.4557980767522285E-012
  -5.3999999999999986E-003     2.4159107726603443E-012
  -5.1000000000000004E-003     4.8907468192979752E-012
  -4.7999999999999987E-003    -2.5246950877372986E-011
  -4.5000000000000005E-003     3.5259665748752300E-011
  -4.1999999999999989E-003     1.9445798161025847E-011
  -3.8999999999999990E-003    -1.3959209541618396E-010
  -3.5999999999999990E-003     1.7446472555592244E-010
  -3.2999999999999991E-003     5.0488608133720941E-011
  -2.9999999999999992E-003    -3.8702550298870790E-010
  -2.6999999999999993E-003     3.4271065788875352E-010
  -2.3999999999999994E-003     2.2455339131397609E-010
  -2.0999999999999977E-003    -5.8450164291306817E-010
  -1.7999999999999995E-003     8.8441768714996704E-011
  -1.4999999999999979E-003     5.7685519510836822E-010
  -1.1999999999999997E-003    -4.0854716061366231E-010
  -8.9999999999999976E-004    -1.4049947378827413E-010
  -5.9999999999999810E-004     2.2306962882425185E-010
  -2.9999999999999992E-004    -3.2722108238372151E-010
   0.0000000000000000          8.4740953211866995E-010
   3.0000000000000165E-004    -1.5012517418988303E-010
   5.9999999999999984E-004    -3.9385591510478011E-009
   9.0000000000000149E-004     7.1519739863763338E-009
   1.2000000000000031E-003     9.4100162127272538E-009
   1.5000000000000013E-003    -5.1684140505302097E-008
   1.8000000000000030E-003     3.7927029126345432E-008
   2.1000000000000012E-003     1.4912546864682934E-007
   2.3999999999999994E-003    -3.2535621521651716E-007
   2.7000000000000010E-003    -1.2814837604792076E-007
   2.9999999999999992E-003     1.1958147173257754E-006
   3.3000000000000008E-003    -6.0158618829711752E-007
   3.6000000000000025E-003    -3.4338190210455309E-006
   3.9000000000000007E-003     2.8900561432628325E-006
   4.2000000000000023E-003     9.1921213227764451E-006
   4.5000000000000005E-003    -6.7968266967017585E-006
   4.7999999999999987E-003    -2.6833302532285575E-005
   5.1000000000000004E-003     5.0204572030598432E-006
   5.4000000000000020E-003     1.1827551901408468E-004
   5.7000000000000037E-003     2.9395031639131052E-004
   5.9999999999999984E-003     4.9786874236901668E-004
   6.3000000000000000E-003     7.2419939154087440E-004
   6.6000000000000017E-003     1.0246693757516101E-003
   6.9000000000000034E-003     1.5130074364812969E-003
   7.2000000000000015E-003     2.3323891065036230E-003
   7.5000000000000032E-003     3.6186393985262332E-003
   7.8000000000000014E-003     5.5293789564468008E-003
   8.0999999999999996E-003     8.2788522562832201E-003
   8.4000000000000012E-003     1.2164436176089082E-002
   8.7000000000000029E-003     1.7628012071433510E-002
   9.0000000000000011E-003     2.5231197253937861E-002
   9.2999999999999992E-003     3.5602327119022281E-002
   9.6000000000000009E-003     4.9461174312381916E-002
   9.8999999999999991E-003     6.7624575775534032E-002
   1.0200000000000001E-002     9.0954377411578663E-002
   1.0500000000000002E-002    0.12025056667615981     
   1.0800000000000004E-002    0.15617433042987844     
   1.1099999999999999E-002    0.19914136636447899     
   1.1400000000000000E-002    0.24907371160126496     
   1.1700000000000002E-002    0.30515023765205951     
   1.2000000000000004E-002    0.36554252734177467     
   1.2300000000000002E-002    0.42713576115949853     
   1.2600000000000000E-002    0.48533701384511807     
   1.2900000000000002E-002    0.53387706891974362     
   1.3200000000000000E-002    0.56478845437649139     
   1.3500000000000002E-002    0.56854998395986889     
   1.3800000000000003E-002    0.53432946726860053     
   1.4100000000000001E-002    0.45055257649588443     
   1.4400000000000000E-002    0.30580821116419221     
   1.4700000000000001E-002     9.0056311711905090E-002
   1.4999999999999999E-002   -0.20387546784183086     
   1.5300000000000001E-002   -0.57884412703578070     
   1.5600000000000003E-002    -1.0319167298992902     
   1.5899999999999997E-002    -1.5528814659795585     
   1.6199999999999999E-002    -2.1234524052668671     
   1.6500000000000001E-002    -2.7167477339958843     
   1.6800000000000002E-002    -3.2976135866696370     
   1.7100000000000004E-002    -3.8241273944888157     
   1.7400000000000006E-002    -4.2497114659449196     
   1.7700000000000000E-002    -4.5264477203472664     
   1.8000000000000002E-002    -4.6090411582508892     
   1.8300000000000004E-002    -4.4590882691587392     
   1.8600000000000005E-002    -4.0496315416507347     
   1.8900000000000000E-002    -3.3691825384530238     
   1.9200000000000002E-002    -2.4245175924615743     
   1.9500000000000003E-002    -1.2430003616003527     
   1.9799999999999998E-002    0.12792400636737944     
   2.0100000000000000E-002     1.6221671038546757     
   2.0400000000000001E-002     3.1587431173525662     
   2.0700000000000003E-002     4.6475915457116121     
   2.0999999999999998E-002     5.9959682781026320     
   2.1299999999999999E-002     7.1158432157935501     
   2.1600000000000001E-002     7.9317835825973209     
   2.1900000000000003E-002     8.3870448039181333     
   2.2200000000000004E-002     8.4493712308543838     
   2.2500000000000006E-002     8.1146782767619285     
   2.2800000000000001E-002     7.4074777556642140     
   2.3100000000000002E-002     6.3801182809382615     
   2.3400000000000004E-002     5.1086730215898690     
   2.3699999999999999E-002     3.6866650019903218     
   2.4000000000000000E-002     2.2181012266529674     
   2.4300000000000002E-002    0.80847732591114385     
   2.4599999999999997E-002   -0.44390234059708533     
   2.4900000000000005E-002    -1.4554946224417700     
   2.5200000000000000E-002    -2.1650159025351141     
   2.5499999999999995E-002    -2.5380484630635896     
   2.5800000000000003E-002    -2.5692796231226764     
   2.6099999999999998E-002    -2.2833456514638444     
   2.6400000000000007E-002    -1.7319039860172130     
   2.6700000000000002E-002   -0.98923762983609598     
   2.6999999999999996E-002   -0.14625051982334525     
   2.7300000000000005E-002    0.69786216296780745     
   2.7600000000000000E-002     1.4432321818226552     
   2.7900000000000008E-002     1.9976950811353760     
   2.8200000000000003E-002     2.2842225876068745     
   2.8499999999999998E-002     2.2462060251629978     
   2.8800000000000006E-002     1.8523026495994266     
   2.9100000000000001E-002     1.0984035554798011     
   2.9400000000000003E-002     6.9968336581755376E-003
   2.9700000000000004E-002    -1.3740298743691282     
   3.0000000000000006E-002    -2.9754905561220699     
   3.0300000000000001E-002    -4.7129416175857699     
   3.0600000000000002E-002    -6.4914001973571054     
   3.0900000000000004E-002    -8.2124080065317226     
   3.1199999999999999E-002    -9.7804450268921670     
   3.1500000000000007E-002    -11.107279695610231     
   3.1800000000000002E-002    -12.117905528517603     
   3.2099999999999997E-002    -12.752849488301369     
   3.2400000000000005E-002    -12.970029741927265     
   3.2700000000000000E-002    -12.746773636229182     
   3.3000000000000002E-002    -12.077494546228126     
   3.3300000000000003E-002    -10.974369938620340     
   3.3599999999999998E-002    -9.4654149495585624     
   3.3900000000000000E-002    -7.5907535172375269     
   3.4200000000000001E-002    -5.4039273015612306     
   3.4500000000000003E-002    -2.9677424312709197     
   3.4799999999999998E-002   -0.35327851745398758     
   3.5099999999999999E-002     2.3597078222226644     
   3.5400000000000001E-002     5.0868682672312326     
   3.5699999999999996E-002     7.7379731867839450     
   3.6000000000000004E-002     10.220393147942060     
   3.6299999999999999E-002     12.442100486555022     
   3.6600000000000008E-002     14.312986330516415     
   3.6900000000000002E-002     15.751457166318529     
   3.7199999999999997E-002     16.687419838921514     
   3.7500000000000006E-002     17.067695560842580     
   3.7800000000000000E-002     16.862043319695026     
   3.8100000000000009E-002     16.065837794987438     
   3.8400000000000004E-002     14.704155853117518     
   3.8699999999999998E-002     12.832481312301748     
   3.9000000000000007E-002     10.535576745827290     
   3.9300000000000002E-002     7.9250110817356711     
   3.9600000000000003E-002     5.1325525466678092     
   3.9900000000000005E-002     2.3027431195174870     
   4.0200000000000000E-002   -0.41640053821706358     
   4.0500000000000001E-002    -2.8844731589875998     
   4.0800000000000003E-002    -4.9787326561986180     
   4.1100000000000005E-002    -6.6033669175932941     
   4.1399999999999999E-002    -7.6973186137825245     
   4.1700000000000008E-002    -8.2400532293632036     
   4.2000000000000003E-002    -8.2527265983097298     
   4.2299999999999997E-002    -7.7961707437934518     
   4.2600000000000006E-002    -6.9675235941558817     
   4.2900000000000001E-002    -5.8885850947670981     
   4.3200000000000002E-002    -4.6978216038653748     
   4.3500000000000004E-002    -3.5377597486216383     
   4.3799999999999999E-002    -2.5398213333147464     
   4.4100000000000000E-002    -1.8165754526683504     
   4.4400000000000002E-002    -1.4487622012471495     
   4.4700000000000004E-002    -1.4800683272394910     
   4.4999999999999998E-002    -1.9147563985592322     
   4.5300000000000000E-002    -2.7149651873510745     
   4.5600000000000002E-002    -3.8095234111282577     
   4.5899999999999996E-002    -5.0977562028128984     
   4.6200000000000005E-002    -6.4595964429869328     
   4.6500000000000000E-002    -7.7691243137955501     
   4.6799999999999994E-002    -8.9011447885089954     
   4.7100000000000003E-002    -9.7456443825286545     
   4.7399999999999998E-002    -10.214720550097775     
   4.7700000000000006E-002    -10.247437316510654     
   4.8000000000000001E-002    -9.8168400310451105     
   4.8300000000000010E-002    -8.9267863055349341     
   4.8600000000000004E-002    -7.6121734667934202     
   4.8899999999999999E-002    -5.9334782942444440     
   4.9200000000000008E-002    -3.9674191167906736     
   4.9500000000000002E-002    -1.8022007946907546     
   4.9800000000000011E-002    0.47575685238452142     
   5.0100000000000006E-002     2.7891659130033348     
   5.0400000000000000E-002     5.0766786639543184     
   5.0700000000000009E-002     7.3010491164580449     
   5.1000000000000004E-002     9.4488819598864016     
   5.1299999999999998E-002     11.530909366778218     
   5.1600000000000007E-002     13.574349199786898     
   5.1900000000000002E-002     15.614184137843344     
   5.2200000000000010E-002     17.679778764922148     
   5.2500000000000005E-002     19.778117789619788     
   5.2800000000000000E-002     21.882608003930628     
   5.3099999999999994E-002     23.916980259172824     
   5.3400000000000003E-002     25.750241669617317     
   5.3699999999999998E-002     27.196469618806226     
   5.4000000000000006E-002     28.020249609380240     
   5.4300000000000001E-002     27.957238389825864     
   5.4599999999999996E-002     26.736548595966216     
   5.4900000000000004E-002     24.111859513210504     
   5.5199999999999999E-002     19.899947427091217     
   5.5499999999999994E-002     14.008263019290109     
   5.5800000000000002E-002     6.4683018630275821     
   5.6099999999999997E-002    -2.5436019005733801     
   5.6400000000000006E-002    -12.705981119749497     
   5.6700000000000000E-002    -23.549668812402796     
   5.6999999999999995E-002    -34.489165471801776     
   5.7300000000000004E-002    -44.856295422424331     
   5.7599999999999998E-002    -53.947401536474885     
   5.7900000000000007E-002    -61.085634473162429     
   5.8200000000000002E-002    -65.671270436683486     
   5.8499999999999996E-002    -67.243047695304028     
   5.8800000000000005E-002    -65.521299359984127     
   5.9100000000000000E-002    -60.436910749128252     
   5.9400000000000008E-002    -52.151609765444690     
   5.9700000000000003E-002    -41.046045964061364     
   6.0000000000000012E-002    -27.700049496873877     
   6.0300000000000006E-002    -12.852014124565891     
   6.0600000000000001E-002     2.6588816182460531     
   6.0900000000000010E-002     17.950093718866814     
   6.1200000000000004E-002     32.164423966893217     
   6.1500000000000013E-002     44.529749527440110     
   6.1800000000000008E-002     54.412020051290270     
   6.2100000000000002E-002     61.356214648145873     
   6.2399999999999997E-002     65.110883740794478     
   6.2700000000000006E-002     65.633459122529501     
   6.3000000000000000E-002     63.083051810097004     
   6.3300000000000009E-002     57.796373675543457     
   6.3600000000000004E-002     50.248850422046395     
   6.3899999999999998E-002     41.014933477323858     
   6.4199999999999993E-002     30.718369692943714     
   6.4500000000000002E-002     19.985183294447864     
   6.4800000000000010E-002     9.4060667841955059     
   6.5100000000000005E-002   -0.50295442990712913     
   6.5400000000000000E-002    -9.3214755680719001     
   6.5700000000000008E-002    -16.739739762776498     
   6.5999999999999989E-002    -22.567969525641232     
   6.6299999999999998E-002    -26.725640412104436     
   6.6600000000000006E-002    -29.234101372282232     
   6.6900000000000001E-002    -30.203515137301558     
   6.7199999999999996E-002    -29.804564605736768     
   6.7500000000000004E-002    -28.258414473669191     
   6.7800000000000013E-002    -25.811921422521014     
   6.8099999999999994E-002    -22.715873177298363     
   6.8400000000000002E-002    -19.221356920904963     
   6.8700000000000011E-002    -15.554036784186984     
   6.8999999999999992E-002    -11.913101947357577     
   6.9300000000000000E-002    -8.4669999022157629     
   6.9600000000000009E-002    -5.3382496599602307     
   6.9900000000000004E-002    -2.6177738142897096     
   7.0199999999999999E-002   -0.35684118102082563     
   7.0500000000000007E-002     1.4319909727790288     
   7.0800000000000016E-002     2.7583068321249429     
   7.1099999999999997E-002     3.6625927319613298     
   7.1400000000000005E-002     4.2009228125102513     
   7.1700000000000000E-002     4.4361270408467979     
   7.1999999999999995E-002     4.4422200800762370     
   7.2300000000000003E-002     4.2845877451567738     
   7.2600000000000012E-002     4.0242289507241944     
   7.2900000000000006E-002     3.7146803501532628     
   7.3200000000000001E-002     3.3910137905519120     
   7.3499999999999996E-002     3.0824634438930683     
   7.3800000000000004E-002     2.8038703896844637     
   7.4099999999999999E-002     2.5590076010948040     
   7.4400000000000008E-002     2.3511530973495915     
   7.4700000000000003E-002     2.1740512510737622     
   7.5000000000000011E-002     2.0227071934625402     
   7.5299999999999992E-002     1.8948906392196236     
   7.5600000000000001E-002     1.7844087837941696     
   7.5900000000000009E-002     1.6911678101792660     
   7.6200000000000004E-002     1.6149039083875332     
   7.6499999999999999E-002     1.5523091385382386     
   7.6800000000000007E-002     1.5038580740139700     
   7.7099999999999988E-002     1.4646023365559564     
   7.7399999999999997E-002     1.4280307143340289     
   7.7700000000000005E-002     1.3894908278912927     
   7.8000000000000014E-002     1.3384892784511990     
   7.8299999999999995E-002     1.2686403828429702     
   7.8600000000000003E-002     1.1756692968483997     
   7.8900000000000012E-002     1.0534229124869767     
   7.9199999999999993E-002    0.90517102286581597     
   7.9500000000000001E-002    0.73413710645093788     
   7.9800000000000010E-002    0.54435913829810911     
   8.0100000000000018E-002    0.34827547696259459     
   8.0399999999999999E-002    0.15155493961376618     
   8.0700000000000008E-002    -3.7224419180659808E-002
   8.1000000000000003E-002   -0.20878392067245216     
   8.1299999999999997E-002   -0.36431586150068751     
   8.1600000000000006E-002   -0.49815424436051392     
   8.1900000000000014E-002   -0.61235796321951497     
   8.2199999999999995E-002   -0.71164809467731194     
   8.2500000000000004E-002   -0.79268662669917733     
   8.2799999999999999E-002   -0.86255858750665915     
   8.3100000000000007E-002   -0.91838495204967530     
   8.3400000000000002E-002   -0.95691011409694104     
   8.3700000000000011E-002   -0.98009542670609595     
   8.4000000000000005E-002   -0.97769842498957760     
   8.4300000000000000E-002   -0.94968471914134189     
   8.4599999999999995E-002   -0.89396337851968344     
   8.4900000000000003E-002   -0.80565748949948857     
   8.5199999999999998E-002   -0.69286231905737528     
   8.5500000000000007E-002   -0.55696498447395526     
   8.5800000000000001E-002   -0.40645622672181303     
   8.6100000000000010E-002   -0.25412350839265413     
   8.6399999999999991E-002   -0.10509865225736217     
   8.6699999999999999E-002     2.6690311968773379E-002
   8.7000000000000008E-002    0.13517876722432481     
   8.7300000000000003E-002    0.21760299076041553     
   8.7599999999999997E-002    0.26805522308296004     
   8.7900000000000006E-002    0.29216417121743904     
   8.8200000000000014E-002    0.29206508071654119     
   8.8499999999999995E-002    0.27255722755540945     
   8.8800000000000004E-002    0.24277007711717705     
   8.9100000000000013E-002    0.20578430883233639     
   8.9399999999999993E-002    0.16764665045957738     
   8.9700000000000002E-002    0.13120538451914376     
   9.0000000000000011E-002     9.5652129735424543E-002
   9.0299999999999991E-002     6.1863529880588991E-002
   9.0600000000000000E-002     2.6524942570200400E-002
   9.0900000000000009E-002    -1.3032426341758574E-002
   9.1200000000000017E-002    -5.7744376374769930E-002
   9.1499999999999998E-002   -0.10944146721047963     
   9.1800000000000007E-002   -0.16628927049150477     
   9.2100000000000001E-002   -0.22495722760792847     
   9.2399999999999996E-002   -0.28162127639357265     
   9.2700000000000005E-002   -0.33033650919347907     
   9.3000000000000013E-002   -0.36550080490457215     
   9.3300000000000008E-002   -0.38318818476409811     
   9.3600000000000003E-002   -0.38065585185479767     
   9.3899999999999997E-002   -0.35777053002172665     
   9.4200000000000006E-002   -0.31866314934379680     
   9.4500000000000001E-002   -0.26841518404735903     
   9.4800000000000009E-002   -0.21482226570695839     
   9.5100000000000004E-002   -0.16718188453437230     
   9.5399999999999999E-002   -0.13197966547676379     
   9.5699999999999993E-002   -0.11626262886362008     
   9.6000000000000002E-002   -0.12143788338569647     
   9.6300000000000011E-002   -0.14456101134114430     
   9.6600000000000005E-002   -0.18124206471257992     
   9.6900000000000000E-002   -0.21920695645693714     
   9.7200000000000009E-002   -0.24643980829704545     
   9.7499999999999989E-002   -0.25063072728887592     
   9.7799999999999998E-002   -0.21818679930524695     
   9.8100000000000007E-002   -0.14344412424228037     
   9.8400000000000015E-002    -2.3080705870221069E-002
   9.8699999999999996E-002    0.13849205481746399     
   9.9000000000000005E-002    0.32781937903307395     
   9.9300000000000013E-002    0.52992498492212015     
   9.9599999999999994E-002    0.72163902719734530     
   9.9900000000000003E-002    0.87981115192233639     
  0.10020000000000001         0.98538146448015707     
  0.10049999999999999          1.0200236818234565     
  0.10080000000000000         0.97713039194366125     
  0.10110000000000001         0.85842607646128222     
  0.10140000000000000         0.67480992054557509     
  0.10170000000000000         0.44984966064555765     
  0.10200000000000001         0.21099447067872809     
  0.10230000000000002         -8.7196176692317297E-003
  0.10260000000000000        -0.17553801621672974     
  0.10290000000000001        -0.26334295684911202     
  0.10320000000000000        -0.25242842336084242     
  0.10350000000000001        -0.13699789434307885     
  0.10380000000000000          7.3393133691344883E-002
  0.10410000000000001         0.35685529589969694     
  0.10440000000000001         0.67612133286243947     
  0.10470000000000000         0.98576697114694367     
  0.10500000000000000          1.2370875591664028     
  0.10530000000000000          1.3812666556081949     
  0.10560000000000000          1.3799256663742459     
  0.10590000000000001          1.2078443175520195     
  0.10620000000000000         0.85788739700063255     
  0.10650000000000001         0.34513708539200905     
  0.10679999999999999        -0.29617683360423419     
  0.10710000000000000         -1.0126207941919065     
  0.10740000000000001         -1.7377286757707431     
  0.10770000000000000         -2.3997115443193198     
  0.10800000000000000         -2.9270409675347420     
  0.10830000000000001         -3.2585376674669826     
  0.10859999999999999         -3.3496927120500239     
  0.10890000000000000         -3.1772686352073336     
  0.10920000000000001         -2.7439438316610314     
  0.10950000000000001         -2.0767845313227014     
  0.10979999999999999         -1.2258548194267984     
  0.11009999999999999        -0.25906900108948533     
  0.11040000000000001         0.74552952537363737     
  0.11070000000000001          1.7058100322153411     
  0.11100000000000000          2.5452560728388782     
  0.11130000000000000          3.1985158055452145     
  0.11160000000000002          3.6177472060916580     
  0.11190000000000001          3.7765399343730421     
  0.11220000000000001          3.6694144157986610     
  0.11250000000000000          3.3137363443752976     
  0.11280000000000000          2.7440053638617066     
  0.11309999999999999          2.0089351566644358     
  0.11340000000000001          1.1672508397757673     
  0.11369999999999998         0.27991160099793022     
  0.11400000000000000        -0.59287450895101246     
  0.11430000000000000         -1.3967737750499456     
  0.11460000000000002         -2.0876240148900980     
  0.11489999999999999         -2.6312555551549837     
  0.11520000000000001         -3.0069364704899497     
  0.11550000000000001         -3.2063542975230965     
  0.11580000000000000         -3.2307602560442086     
  0.11609999999999999         -3.0940787064816222     
  0.11640000000000002         -2.8160962440371429     
  0.11670000000000001         -2.4223005287446218     
  0.11700000000000001         -1.9443752438859929     
  0.11730000000000000         -1.4124201369388087     
  0.11760000000000000        -0.85918563523793889     
  0.11789999999999999        -0.31500886298902281     
  0.11820000000000001         0.19480069312496473     
  0.11850000000000001         0.64552887576959594     
  0.11880000000000000          1.0209866323753012     
  0.11910000000000000          1.3097536089524502     
  0.11940000000000002          1.5038328877891185     
  0.11970000000000001          1.6059516207954991     
  0.12000000000000001          1.6195824926608366     
  0.12030000000000000          1.5539551625145378     
  0.12060000000000000          1.4247778391728589     
  0.12089999999999999          1.2439921915472123     
  0.12119999999999999          1.0306234269179175     
  0.12150000000000001         0.80032449913566661     
  0.12180000000000001         0.56521064658548503     
  0.12210000000000000         0.34195534650615705     
  0.12239999999999999         0.13678740146469770     
  0.12270000000000002         -4.2254410040081396E-002
  0.12300000000000001        -0.18913629038948734     
  0.12330000000000001        -0.30569491736062021     
  0.12360000000000000        -0.38765798063998452     
  0.12390000000000000        -0.43846089908139735     
  0.12419999999999999        -0.46074845008672188     
  0.12450000000000001        -0.45322333674012394     
  0.12480000000000001        -0.42254646939421575     
  0.12509999999999999        -0.36823346938350149     
  0.12540000000000001        -0.29266503535531929     
  0.12570000000000003        -0.20157211064237635     
  0.12600000000000000         -9.3879760490687844E-002
  0.12630000000000002          2.3371132979997787E-002
  0.12659999999999999         0.14648973892840755     
  0.12690000000000001         0.27275244654975173     
  0.12719999999999998         0.39328397356189221     
  0.12750000000000000         0.50644610296147519     
  0.12780000000000002         0.60634831567978931     
  0.12809999999999999         0.68807671487828959     
  0.12840000000000001         0.75201759964229986     
  0.12869999999999998         0.79321263671448072     
  0.12900000000000000         0.81322960776592113     
  0.12930000000000003         0.81315307898557410     
  0.12959999999999999         0.79186266047511800     
  0.12990000000000002         0.75372433407142958     
  0.13019999999999998         0.69854837704438100     
  0.13050000000000000         0.62768459616872829     
  0.13080000000000003         0.54329205102015843     
  0.13109999999999999         0.44418869112907922     
  0.13140000000000002         0.33256895170559381     
  0.13169999999999998         0.20871917317226518     
  0.13200000000000001          7.3551634396472804E-002
  0.13229999999999997         -6.9656451788499732E-002
  0.13260000000000000        -0.21871147076301226     
  0.13290000000000002        -0.36898337827510674     
  0.13319999999999999        -0.51501803618151676     
  0.13350000000000001        -0.65163355112608534     
  0.13380000000000003        -0.77262269509258763     
  0.13410000000000000        -0.87314652474011023     
  0.13440000000000002        -0.94898419677936174     
  0.13469999999999999        -0.99751680239083818     
  0.13500000000000001         -1.0174044291199253     
  0.13529999999999998         -1.0094239637847311     
  0.13560000000000000        -0.97613339971949109     
  0.13590000000000002        -0.91978525538870781     
  0.13619999999999999        -0.84476542005750865     
  0.13650000000000001        -0.75385337695375798     
  0.13680000000000003        -0.65007054540485021     
  0.13710000000000000        -0.53543972845276522     
  0.13740000000000002        -0.40920129411963363     
  0.13769999999999999        -0.27226308164413482     
  0.13800000000000001        -0.12265847993305257     
  0.13829999999999998          4.0876747857892748E-002
  0.13860000000000000         0.21707323846272264     
  0.13890000000000002         0.40601347776817326     
  0.13919999999999999         0.60363273451827859     
  0.13950000000000001         0.80376909531477969     
  0.13979999999999998         0.99919454413392672     
  0.14010000000000000          1.1787395277048545     
  0.14040000000000002          1.3322137386452058     
  0.14069999999999999          1.4483295475195042     
  0.14100000000000001          1.5164900825307672     
  0.14130000000000004          1.5300069880338203     
  0.14160000000000000          1.4829765424521504     
  0.14189999999999997          1.3742366937622761     
  0.14219999999999999          1.2064572529323832     
  0.14250000000000002         0.98492771458941819     
  0.14279999999999998         0.71850205030521341     
  0.14310000000000000         0.41839722836709564     
  0.14339999999999997          9.5946654169081477E-002
  0.14369999999999999        -0.23578057900736313     
  0.14400000000000002        -0.56436560494758958     
  0.14429999999999998        -0.87933031508239889     
  0.14460000000000001         -1.1693275936054666     
  0.14490000000000003         -1.4262578253365978     
  0.14520000000000000         -1.6430270440858108     
  0.14550000000000002         -1.8130290282192936     
  0.14579999999999999         -1.9328688167675478     
  0.14610000000000001         -1.9990238940539673     
  0.14640000000000003         -2.0104090978397018     
  0.14670000000000000         -1.9687403270246511     
  0.14699999999999996         -1.8753495064412200     
  0.14729999999999999         -1.7359092104067881     
  0.14760000000000001         -1.5576708210513899     
  0.14789999999999998         -1.3473850403495971     
  0.14820000000000000         -1.1162533699944641     