  -1.4999999999999999E-002     0.0000000000000000     
  -1.4700000000000000E-002     0.0000000000000000     
  -1.4400000000000000E-002     0.0000000000000000     
  -1.4100000000000000E-002     0.0000000000000000     
  -1.3800000000000000E-002     0.0000000000000000     
  -1.3500000000000000E-002     0.0000000000000000     
  -1.3200000000000000E-002     0.0000000000000000     
  -1.2899999999999998E-002     0.0000000000000000     
  -1.2600000000000000E-002     0.0000000000000000     
  -1.2299999999999998E-002     0.0000000000000000     
  -1.2000000000000000E-002     0.0000000000000000     
  -1.1699999999999999E-002     0.0000000000000000     
  -1.1399999999999999E-002     1.2829811531200660E-074
  -1.1099999999999999E-002     4.3979663421135316E-065
  -1.0799999999999999E-002     9.0370335545778159E-037
  -1.0499999999999999E-002     1.5383654924569501E-036
  -1.0199999999999999E-002    -2.0126134053154877E-034
  -9.8999999999999991E-003     6.2846351061543627E-033
  -9.5999999999999992E-003    -6.9829508729653948E-032
  -9.2999999999999992E-003     6.2891616142994518E-031
  -8.9999999999999993E-003    -4.9793252796106074E-030
  -8.6999999999999994E-003     3.3450081019431181E-029
  -8.3999999999999995E-003    -1.8493740878488669E-028
  -8.0999999999999996E-003     8.3150739360216526E-028
  -7.7999999999999988E-003    -3.0269582013666326E-027
  -7.4999999999999997E-003     8.7697566766463577E-027
  -7.1999999999999998E-003    -1.8609494593273273E-026
  -6.8999999999999981E-003     1.7435845134985457E-026
  -6.5999999999999982E-003     6.3359645173869511E-026
  -6.3000000000000000E-003    -2.8453528449817673E-025
  -6.0000000000000001E-003    -5.9656252075194352E-025
  -5.6999999999999985E-003     1.3079323349595564E-023
  -5.3999999999999986E-003    -8.8817859247387804E-023
  -5.1000000000000004E-003     4.1413346885716909E-022
  -4.7999999999999987E-003    -1.5140445963026421E-021
  -4.5000000000000005E-003     4.5617931256766498E-021
  -4.1999999999999989E-003    -1.1576321978793404E-020
  -3.8999999999999990E-003     2.4862223095264820E-020
  -3.5999999999999990E-003    -4.4547276347709893E-020
  -3.2999999999999991E-003     6.2844395194377618E-020
  -2.9999999999999992E-003    -5.3608706855116186E-020
  -2.6999999999999993E-003    -4.5486037061910535E-020
  -2.3999999999999994E-003     3.6335804516686613E-019
  -2.0999999999999977E-003    -1.1315458338592185E-018
  -1.7999999999999995E-003     2.6316182559552468E-018
  -1.4999999999999979E-003    -4.7218638813581696E-018
  -1.1999999999999997E-003     5.3980093463117558E-018
  -8.9999999999999976E-004     1.4370817904053815E-018
  -5.9999999999999810E-004    -2.5726542354230299E-017
  -2.9999999999999992E-004     7.0476448317278966E-017
   0.0000000000000000         -1.0364306540921958E-016
   3.0000000000000165E-004     2.7819485808749459E-017
   5.9999999999999984E-004     2.9238375242209091E-016
   9.0000000000000149E-004    -8.6262713064775302E-016
   1.2000000000000031E-003     1.2585839061067645E-015
   1.5000000000000013E-003    -4.4441175995371914E-016
   1.8000000000000030E-003    -2.7996549145222520E-015
   2.1000000000000012E-003     8.4646074468245049E-015
   2.3999999999999994E-003    -1.3269105449979273E-014
   2.7000000000000010E-003     9.5862823285753697E-015
   2.9999999999999992E-003     1.1753609441453766E-014
   3.3000000000000008E-003    -5.2165738470978931E-014
   3.6000000000000025E-003     9.4461749377428711E-014
   3.9000000000000007E-003    -1.1578834840070567E-013
   4.2000000000000023E-003     1.5359715280586411E-013
   4.5000000000000005E-003    -3.3932575284717031E-013
   4.7999999999999987E-003     5.6728667281660033E-013
   5.1000000000000004E-003     3.5851921272655047E-013
   5.4000000000000020E-003    -4.7054716983670727E-012
   5.7000000000000037E-003     1.1750978651113732E-011
   5.9999999999999984E-003    -9.3971616977039382E-012
   6.3000000000000000E-003    -3.0753879342014039E-011
   6.6000000000000017E-003     1.4090420394978936E-010
   6.9000000000000034E-003    -2.8063810244002563E-010
   7.2000000000000015E-003     6.6094838767741471E-011
   7.5000000000000032E-003     1.5148463541098840E-009
   7.8000000000000014E-003    -4.5907124718662752E-009
   8.0999999999999996E-003     2.8392926501138098E-009
   8.4000000000000012E-003     1.7336064145295801E-008
   8.7000000000000029E-003    -4.4736511050116317E-008
   9.0000000000000011E-003    -5.1264343069182708E-009
   9.2999999999999992E-003     1.7917245967917440E-007
   9.6000000000000009E-003    -1.5359585990444141E-007
   9.8999999999999991E-003    -4.9664225394017216E-007
   1.0200000000000001E-002     5.6339597566940758E-007
   1.0500000000000002E-002     1.2528396751194957E-006
   1.0800000000000004E-002    -1.2115831541701158E-006
   1.1099999999999999E-002    -3.9599228947852074E-006
   1.1400000000000000E-002     9.5556747748163107E-007
   1.1700000000000002E-002     2.2078861583771780E-005
   1.2000000000000004E-002     6.8044852698902441E-005
   1.2300000000000002E-002     1.4544194465456627E-004
   1.2600000000000000E-002     2.5292600257805251E-004
   1.2900000000000002E-002     3.9029861858272207E-004
   1.3200000000000000E-002     5.8070542975068441E-004
   1.3500000000000002E-002     8.7452770016510932E-004
   1.3800000000000003E-002     1.3398746230096200E-003
   1.4100000000000001E-002     2.0593945600542673E-003
   1.4400000000000000E-002     3.1297417431291573E-003
   1.4700000000000001E-002     4.6758820872862443E-003
   1.4999999999999999E-002     6.8786234942041962E-003
   1.5300000000000001E-002     9.9839720355739906E-003
   1.5600000000000003E-002     1.4296383124184587E-002
   1.5899999999999997E-002     2.0181973180007511E-002
   1.6199999999999999E-002     2.8076664512030499E-002
   1.6500000000000001E-002     3.8473864385593096E-002
   1.6800000000000002E-002     5.1900813153073648E-002
   1.7100000000000004E-002     6.8897227164020358E-002
   1.7400000000000006E-002     8.9969175945145863E-002
   1.7700000000000000E-002    0.11550026755164962     
   1.8000000000000002E-002    0.14564401375110453     
   1.8300000000000004E-002    0.18021190739721668     
   1.8600000000000005E-002    0.21855171719213112     
   1.8900000000000000E-002    0.25939283598072133     
   1.9200000000000002E-002    0.30068818687577309     
   1.9500000000000003E-002    0.33951110721947741     
   1.9799999999999998E-002    0.37199444753588456     
   2.0100000000000000E-002    0.39332718896698832     
   2.0400000000000001E-002    0.39786858617282078     
   2.0700000000000003E-002    0.37937979098631414     
   2.0999999999999998E-002    0.33143715103450905     
   2.1299999999999999E-002    0.24793747832785293     
   2.1600000000000001E-002    0.12376255911661957     
   2.1900000000000003E-002    -4.4485648874778357E-002
   2.2200000000000004E-002   -0.25763023737983093     
   2.2500000000000006E-002   -0.51322616791033315     
   2.2800000000000001E-002   -0.80495658098679979     
   2.3100000000000002E-002    -1.1222625134485560     
   2.3400000000000004E-002    -1.4503107529303669     
   2.3699999999999999E-002    -1.7702559790899746     
   2.4000000000000000E-002    -2.0601456813618508     
   2.4300000000000002E-002    -2.2962086922047589     
   2.4599999999999997E-002    -2.4545501048342810     
   2.4900000000000005E-002    -2.5131109547942114     
   2.5200000000000000E-002    -2.4537344746360032     
   2.5499999999999995E-002    -2.2641812078143775     
   2.5800000000000003E-002    -1.9397057899963897     
   2.6099999999999998E-002    -1.4844612345588768     
   2.6400000000000007E-002   -0.91184434148376514     
   2.6700000000000002E-002   -0.24435759341001845     
   2.6999999999999996E-002    0.48754917126876413     
   2.7300000000000005E-002     1.2474774512226059     
   2.7600000000000000E-002     1.9955634501784225     
   2.7900000000000008E-002     2.6913987046003980     
   2.8200000000000003E-002     3.2972954348664962     
   2.8499999999999998E-002     3.7807792413422754     
   2.8800000000000006E-002     4.1175872181703399     
   2.9100000000000001E-002     4.2930661590217420     
   2.9400000000000003E-002     4.3029090321025567     
   2.9700000000000004E-002     4.1535168996315521     
   3.0000000000000006E-002     3.8601971884974451     
   3.0300000000000001E-002     3.4458564412194495     
   3.0600000000000002E-002     2.9382761451601778     
   3.0900000000000004E-002     2.3669887337525894     
   3.1199999999999999E-002     1.7610791288023286     
   3.1500000000000007E-002     1.1459049351098525     
   3.1800000000000002E-002    0.54170973842260250     
   3.2099999999999997E-002    -3.7388508343151876E-002
   3.2400000000000005E-002   -0.58421095075408402     
   3.2700000000000000E-002    -1.0971314063567243     
   3.3000000000000002E-002    -1.5788456703385496     
   3.3300000000000003E-002    -2.0344472577510611     
   3.3599999999999998E-002    -2.4685288257719535     
   3.3900000000000000E-002    -2.8833616690523298     
   3.4200000000000001E-002    -3.2763897019222359     
   3.4500000000000003E-002    -3.6387468523883357     
   3.4799999999999998E-002    -3.9553424160671105     
   3.5099999999999999E-002    -4.2045985572187092     
   3.5400000000000001E-002    -4.3607083712565906     
   3.5699999999999996E-002    -4.3958827414796628     
   3.6000000000000004E-002    -4.2831107494193583     
   3.6299999999999999E-002    -4.0004707598023721     
   3.6600000000000008E-002    -3.5339323156894569     
   3.6900000000000002E-002    -2.8805952934322923     
   3.7199999999999997E-002    -2.0510099539431690     
   3.7500000000000006E-002    -1.0698906486827628     
   3.7800000000000000E-002     2.3772272548711452E-002
   3.8100000000000009E-002     1.1789101744073787     
   3.8400000000000004E-002     2.3350909488023861     
   3.8699999999999998E-002     3.4266909229277456     
   3.9000000000000007E-002     4.3878895200591561     
   3.9300000000000002E-002     5.1573478368325754     
   3.9600000000000003E-002     5.6835996451569581     
   3.9900000000000005E-002     5.9291631591230747     
   4.0200000000000000E-002     5.8737193931700373     
   4.0500000000000001E-002     5.5163928743048007     
   4.0800000000000003E-002     4.8759538210321143     
   4.1100000000000005E-002     3.9897683863192670     
   4.1399999999999999E-002     2.9113746558530158     
   4.1700000000000008E-002     1.7063206939310012     
   4.2000000000000003E-002    0.44786272715889558     
   4.2299999999999997E-002   -0.78872635428036308     
   4.2600000000000006E-002    -1.9312881818225660     
   4.2900000000000001E-002    -2.9158142494376604     
   4.3200000000000002E-002    -3.6910079639040956     
   4.3500000000000004E-002    -4.2212859473318680     
   4.3799999999999999E-002    -4.4889699384540895     
   4.4100000000000000E-002    -4.4949304035796755     
   4.4400000000000002E-002    -4.2577501641721121     
   4.4700000000000004E-002    -3.8119131308725973     
   4.4999999999999998E-002    -3.2045537044553400     
   4.5300000000000000E-002    -2.4919274655125370     
   4.5600000000000002E-002    -1.7352188220483109     
   4.5899999999999996E-002   -0.99574915350963578     
   4.6200000000000005E-002   -0.33109911132061409     
   4.6500000000000000E-002    0.20871326082362618     
   4.6799999999999994E-002    0.58482409436930116     
   4.7100000000000003E-002    0.77143217699735545     
   4.7399999999999998E-002    0.75753750099495298     
   4.7700000000000006E-002    0.54749567586369852     
   4.8000000000000001E-002    0.16002181540745106     
   4.8300000000000010E-002   -0.37242791998209734     
   4.8600000000000004E-002    -1.0065452116001703     
   4.8899999999999999E-002    -1.6909001308387142     
   4.9200000000000008E-002    -2.3690925261838580     
   4.9500000000000002E-002    -2.9843803241027733     
   4.9800000000000011E-002    -3.4822824936065100     
   5.0100000000000006E-002    -3.8147450534626937     
   5.0400000000000000E-002    -3.9435704851534514     
   5.0700000000000009E-002    -3.8416415353621951     
   5.1000000000000004E-002    -3.4956618377577322     
   5.1299999999999998E-002    -2.9058812547143957     
   5.1600000000000007E-002    -2.0855913835944895     
   5.1900000000000002E-002    -1.0607793731313981     
   5.2200000000000010E-002    0.13341652664602274     
   5.2500000000000005E-002     1.4537868812265158     
   5.2800000000000000E-002     2.8514576687606148     
   5.3099999999999994E-002     4.2760606981375116     
   5.3400000000000003E-002     5.6760732359899952     
   5.3699999999999998E-002     7.0018303064954246     
   5.4000000000000006E-002     8.2071096981287113     
   5.4300000000000001E-002     9.2489541032886500     
   5.4599999999999996E-002     10.090093928180341     
   5.4900000000000004E-002     10.698154789330149     
   5.5199999999999999E-002     11.046556828563702     
   5.5499999999999994E-002     11.115677242181194     
   5.5800000000000002E-002     10.891600967385180     
   5.6099999999999997E-002     10.368464814071153     
   5.6400000000000006E-002     9.5484383912560276     
   5.6700000000000000E-002     8.4413884136502979     
   5.6999999999999995E-002     7.0664079186316791     
   5.7300000000000004E-002     5.4507004671260040     
   5.7599999999999998E-002     3.6289929186023553     
   5.7900000000000007E-002     1.6441060860488288     
   5.8200000000000002E-002   -0.45594103677700715     
   5.8499999999999996E-002    -2.6175089762821973     
   5.8800000000000005E-002    -4.7842818911160769     
   5.9100000000000000E-002    -6.8981616418545428     
   5.9400000000000008E-002    -8.9002078157906954     
   5.9700000000000003E-002    -10.733376858683377     
   6.0000000000000012E-002    -12.342524935583867     
   6.0300000000000006E-002    -13.675924749935396     
   6.0600000000000001E-002    -14.688108923770120     
   6.0900000000000010E-002    -15.338300249408869     
   6.1200000000000004E-002    -15.595057991195953     
   6.1500000000000013E-002    -15.436430473186263     
   6.1800000000000008E-002    -14.851381775924940     
   6.2100000000000002E-002    -13.843684635361670     
   6.2399999999999997E-002    -12.430757913499876     
   6.2700000000000006E-002    -10.647170398204196     
   6.3000000000000000E-002    -8.5437519785866787     
   6.3300000000000009E-002    -6.1872913302286037     
   6.3600000000000004E-002    -3.6600280837235721     
   6.3899999999999998E-002    -1.0550396632068320     
   6.4199999999999993E-002     1.5251084009938960     
   6.4500000000000002E-002     3.9747764093618052     
   6.4800000000000010E-002     6.1913926328674540     
   6.5100000000000005E-002     8.0789873914175381     
   6.5400000000000000E-002     9.5572579673251337     
   6.5700000000000008E-002     10.564259873952061     
   6.5999999999999989E-002     11.062706351819081     
   6.6299999999999998E-002     11.043139812631358     
   6.6600000000000006E-002     10.524036743284022     
   6.6900000000000001E-002     9.5535720035990952     
   6.7199999999999996E-002     8.2058813764145686     
   6.7500000000000004E-002     6.5768353596589888     
   6.7800000000000013E-002     4.7799555330195949     
   6.8099999999999994E-002     2.9369107159272092     
   6.8400000000000002E-002     1.1713252370901677     
   6.8700000000000011E-002   -0.39967848808709738     
   6.8999999999999992E-002    -1.6744893191282542     
   6.9300000000000000E-002    -2.5728171744695354     
   6.9600000000000009E-002    -3.0421906532604730     
   6.9900000000000004E-002    -3.0618787826879736     
   7.0199999999999999E-002    -2.6440049095340190     
   7.0500000000000007E-002    -1.8334552667127586     
   7.0800000000000016E-002   -0.70459416116095963     
   7.1099999999999997E-002    0.64465715181804084     
   7.1400000000000005E-002     2.0993931920365059     
   7.1700000000000000E-002     3.5369468814782583     
   7.1999999999999995E-002     4.8367334901224446     
   7.2300000000000003E-002     5.8889624509418894     
   7.2600000000000012E-002     6.6048185490098259     
   7.2900000000000006E-002     6.9222185380805286     
   7.3200000000000001E-002     6.8115274646576598     
   7.3499999999999996E-002     6.2791282712181253     
   7.3800000000000004E-002     5.3640352983018671     
   7.4099999999999999E-002     4.1368390441752636     
   7.4400000000000008E-002     2.6920193110018893     
   7.4700000000000003E-002     1.1387356908333501     
   7.5000000000000011E-002   -0.40682495546002512     
   7.5299999999999992E-002    -1.8348990023179250     
   7.5600000000000001E-002    -3.0494066204296999     
   7.5900000000000009E-002    -3.9769157195739409     
   7.6200000000000004E-002    -4.5741597637032934     
   7.6499999999999999E-002    -4.8276259024399497     
   7.6800000000000007E-002    -4.7562080934784818     
   7.7099999999999988E-002    -4.4070168957976756     
   7.7399999999999997E-002    -3.8474725554554272     
   7.7700000000000005E-002    -3.1611806029361524     
   7.8000000000000014E-002    -2.4349654578701276     
   7.8299999999999995E-002    -1.7516092719845981     
   7.8600000000000003E-002    -1.1831695331258769     
   7.8900000000000012E-002   -0.78088489874103628     
   7.9199999999999993E-002   -0.57550331991848103     
   7.9500000000000001E-002   -0.57329484787327123     
   7.9800000000000010E-002   -0.75741669951601043     
   8.0100000000000018E-002    -1.0945492219572690     
   8.0399999999999999E-002    -1.5356675932940562     
   8.0700000000000008E-002    -2.0264425955035699     
   8.1000000000000003E-002    -2.5125373215828910     
   8.1299999999999997E-002    -2.9434910736749553     
   8.1600000000000006E-002    -3.2814799353247119     
   8.1900000000000014E-002    -3.5007752032004724     
   8.2199999999999995E-002    -3.5898679352788454     
   8.2500000000000004E-002    -3.5526398246647384     
   8.2799999999999999E-002    -3.4030095099611506     
   8.3100000000000007E-002    -3.1638396647050273     
   8.3400000000000002E-002    -2.8626344955090950     
   8.3700000000000011E-002    -2.5263140833193805     
   8.4000000000000005E-002    -2.1803737198184892     
   8.4300000000000000E-002    -1.8440796533651858     
   8.4599999999999995E-002    -1.5304377370644364     
   8.4900000000000003E-002    -1.2474644384306617     
   8.5199999999999998E-002   -0.99636889725234534     
   8.5500000000000007E-002   -0.77596837861807999     
   8.5800000000000001E-002   -0.58281803196420112     
   8.6100000000000010E-002   -0.41239797723826743     
   8.6399999999999991E-002   -0.26130639844806458     
   8.6699999999999999E-002   -0.12499736079802660     
   8.7000000000000008E-002     1.3252660748366671E-003
   8.7300000000000003E-002    0.12428571863906769     
   8.7599999999999997E-002    0.25592519409712750     
   8.7900000000000006E-002    0.41226844868187162     
   8.8200000000000014E-002    0.61445929937645027     
   8.8499999999999995E-002    0.88827440146899417     
   8.8800000000000004E-002     1.2590705548620496     
   8.9100000000000013E-002     1.7504435105479408     
   8.9399999999999993E-002     2.3776987283918154     
   8.9700000000000002E-002     3.1432090692591195     
   9.0000000000000011E-002     4.0349994829568789     
   9.0299999999999991E-002     5.0218559697809031     
   9.0600000000000000E-002     6.0570546859475662     
   9.0900000000000009E-002     7.0815951379203810     
   9.1200000000000017E-002     8.0290243438641067     
   9.1499999999999998E-002     8.8366959132679135     
   9.1800000000000007E-002     9.4518473363531026     
   9.2100000000000001E-002     9.8403141834118166     
   9.2399999999999996E-002     9.9936240115939992     
   9.2700000000000005E-002     9.9275944632388455     
   9.3000000000000013E-002     9.6822579259533210     
   9.3300000000000008E-002     9.3131592541210217     
   9.3600000000000003E-002     8.8790924704235490     
   9.3899999999999997E-002     8.4310724761939824     
   9.4200000000000006E-002     7.9946248416275019     
   9.4500000000000001E-002     7.5599891864952475     
   9.4800000000000009E-002     7.0744530689374168     
   9.5100000000000004E-002     6.4385864021592418     
   9.5399999999999999E-002     5.5148316763041976     
   9.5699999999999993E-002     4.1406246099770856     
   9.6000000000000002E-002     2.1475289104617823     
   9.6300000000000011E-002   -0.60985678385877928     
   9.6600000000000005E-002    -4.2296525682129094     
   9.6900000000000000E-002    -8.7338316947705170     
   9.7200000000000009E-002    -14.046978430327519     
   9.7499999999999989E-002    -19.986870403525636     
   9.7799999999999998E-002    -26.257479468951807     
   9.8100000000000007E-002    -32.464791257813374     
   9.8400000000000015E-002    -38.139031511887985     
   9.8699999999999996E-002    -42.767308448558722     
   9.9000000000000005E-002    -45.843339248987348     
   9.9300000000000013E-002    -46.909711182056654     
   9.9599999999999994E-002    -45.609338057518642     
   9.9900000000000003E-002    -41.729123252049071     
  0.10020000000000001         -35.227852775736572     
  0.10049999999999999         -26.261557288271469     
  0.10080000000000000         -15.179604894512286     
  0.10110000000000001         -2.5097532528957602     
  0.10140000000000000          11.069781637950452     
  0.10170000000000000          24.786646585987793     
  0.10200000000000001          37.822774019344322     
  0.10230000000000002          49.378270537920542     
  0.10260000000000000          58.740274109083792     
  0.10290000000000001          65.324601978150966     
  0.10320000000000000          68.730508743143915     
  0.10350000000000001          68.764787612157704     
  0.10380000000000000          65.448045579991344     
  0.10410000000000001          59.018769896836275     
  0.10440000000000001          49.899205599028249     
  0.10470000000000000          38.664879892530386     
  0.10500000000000000          25.999409433544560     
  0.10530000000000000          12.635574697318528     
  0.10560000000000000        -0.68791693304801060     
  0.10590000000000001         -13.281136848234421     
  0.10620000000000000         -24.543049497146324     
  0.10650000000000001         -33.989205301248674     
  0.10679999999999999         -41.277772090506915     
  0.10710000000000000         -46.214307110451188     
  0.10740000000000001         -48.747537013090749     
  0.10770000000000000         -48.967435250549244     
  0.10800000000000000         -47.072236385376513     
  0.10830000000000001         -43.356580012491207     
  0.10859999999999999         -38.181641678473085     
  0.10890000000000000         -31.941224035862852     
  0.10920000000000001         -25.048149819257578     
  0.10950000000000001         -17.897472902324893     
  0.10979999999999999         -10.853862140887140     
  0.11009999999999999         -4.2347151381392338     
  0.11040000000000001          1.7072023246509391     
  0.11070000000000001          6.7816211292463660     
  0.11100000000000000          10.872178343109095     
  0.11130000000000000          13.929825183216273     
  0.11160000000000002          15.965624271391516     
  0.11190000000000001          17.047489618398178     
  0.11220000000000001          17.281626213101379     
  0.11250000000000000          16.805458527965168     
  0.11280000000000000          15.771654566065667     
  0.11309999999999999          14.335598394992731     
  0.11340000000000001          12.647119883249719     
  0.11369999999999998          10.837881402998839     
  0.11400000000000000          9.0192234800398410     
  0.11430000000000000          7.2777101808713427     
  0.11460000000000002          5.6742512552454851     
  0.11489999999999999          4.2484275265430851     
  0.11520000000000001          3.0182221935018658     
  0.11550000000000001          1.9878854253107552     
  0.11580000000000000          1.1504126033627047     
  0.11609999999999999         0.49096237942706455     
  0.11640000000000002         -7.8029266016035959E-003
  0.11670000000000001        -0.36626193466069851     
  0.11700000000000001        -0.60478319141835513     
  0.11730000000000000        -0.74430634558468745     
  0.11760000000000000        -0.80548020497674910     
  0.11789999999999999        -0.80863043083864683     
  0.11820000000000001        -0.77439703937638238     
  0.11850000000000001        -0.72213950053157683     
  0.11880000000000000        -0.66960760120502583     
  0.11910000000000000        -0.63190486081231156     
  0.11940000000000002        -0.62043394629462889     
  0.11970000000000001        -0.64189060523094454     
  0.12000000000000001        -0.69864108255457147     
  0.12030000000000000        -0.78831031198384316     
  0.12060000000000000        -0.90410491357372491     
  0.12089999999999999         -1.0375612064398358     
  0.12119999999999999         -1.1782237607537804     
  0.12150000000000001         -1.3162371270647240     
  0.12180000000000001         -1.4439627315719832     
  0.12210000000000000         -1.5550936873612660     
  0.12239999999999999         -1.6468525371586458     
  0.12270000000000002         -1.7185999614712801     
  0.12300000000000001         -1.7713867901640190     
  0.12330000000000001         -1.8080182563470060     
  0.12360000000000000         -1.8300377626254956     
  0.12390000000000000         -1.8391218685365820     
  0.12419999999999999         -1.8357484841782963     
  0.12450000000000001         -1.8172028562043123     
  0.12480000000000001         -1.7825650466959935     
  0.12509999999999999         -1.7281263352733696     
  0.12540000000000001         -1.6509962541996126     
  0.12570000000000003         -1.5513890228100291     
  0.12600000000000000         -1.4275328331015620     
  0.12630000000000002         -1.2843171736942498     
  0.12659999999999999         -1.1258889780989900     
  0.12690000000000001        -0.95814082113767307     
  0.12719999999999998        -0.79094287487048442     
  0.12750000000000000        -0.62860008443978488     
  0.12780000000000002        -0.47937138907819637     
  0.12809999999999999        -0.34688003592553329     
  0.12840000000000001        -0.23012207385591588     
  0.12869999999999998        -0.12971891142363048     
  0.12900000000000000         -3.7335479256266076E-002
  0.12930000000000003          5.3535068054571568E-002
  0.12959999999999999         0.15073303612566627     
  0.12990000000000002         0.26584798255368908     
  0.13019999999999998         0.40227810184372037     
  0.13050000000000000         0.56651480219006078     
  0.13080000000000003         0.75842221474742266     
  0.13109999999999999         0.97145530196581198     
  0.13140000000000002          1.2008674482566342     
  0.13169999999999998          1.4314307389084537     
  0.13200000000000001          1.6509842169036992     
  0.13229999999999997          1.8465253671131281     
  0.13260000000000000          2.0026221885915314     
  0.13290000000000002          2.1134558377437398     
  0.13319999999999999          2.1709106647714580     
  0.13350000000000001          2.1746597977820010     
  0.13380000000000003          2.1305654731909907     
  0.13410000000000000          2.0423265164732394     
  0.13440000000000002          1.9224082860682514     
  0.13469999999999999          1.7796751848478105     
  0.13500000000000001          1.6217005790484698     
  0.13529999999999998          1.4570205696384340     
  0.13560000000000000          1.2850889393186697     
  0.13590000000000002          1.1066158181665371     
  0.13619999999999999         0.91741475470587430     
  0.13650000000000001         0.70954110507661106     
  0.13680000000000003         0.47967813935250597     
  0.13710000000000000         0.22163096764113049     
  0.13740000000000002         -6.4918676418516605E-002
  0.13769999999999999        -0.37433065084162853     
  0.13800000000000001        -0.69909354107725163     
  0.13829999999999998         -1.0226604042202383     
  0.13860000000000000         -1.3275610589394919     
  0.13890000000000002         -1.5947443702927915     
  0.13919999999999999         -1.8038688220411723     
  0.13950000000000001         -1.9417844374143376     
  0.13979999999999998         -1.9981666186643992     
  0.14010000000000000         -1.9717264749369077     
  0.14040000000000002         -1.8705109912407403     
  0.14069999999999999         -1.7080573362156368     
  0.14100000000000001         -1.5064478393380034     
  0.14130000000000004         -1.2898749535263290     
  0.14160000000000000         -1.0826633348920889     
  0.14189999999999997        -0.90640309758163140     
  0.14219999999999999        -0.77593621572684912     
  0.14250000000000002        -0.69719609338619015     
  0.14279999999999998        -0.66644635373128414     
  0.14310000000000000        -0.67000433297775319     
  0.14339999999999997        -0.68622347134822004     
  0.14369999999999999        -0.68984337948147989     
  0.14400000000000002        -0.65394534738047250     
  0.14429999999999998        -0.55658425573431636     
  0.14460000000000001        -0.38335711865131317     
  0.14490000000000003        -0.13047407900228700     
  0.14520000000000000         0.19115824098714496     
  0.14550000000000002         0.55985404680753792     
  0.14579999999999999         0.94211986350993071     
  0.14610000000000001          1.2965358858248655     
  0.14640000000000003          1.5821557485373960     
  0.14670000000000000          1.7587454807773195     
  0.14699999999999996          1.7973871732632687     
  0.14729999999999999          1.6827188013785654     
  0.14760000000000001          1.4145710877624251     
  0.14789999999999998          1.0138018441633043     
  0.14820000000000000         0.51473380988786266     