  -1.4999999999999999E-002     0.0000000000000000     
  -1.4700000000000000E-002     3.4068956176684220E-024
  -1.4400000000000000E-002     1.0675291365915148E-019
  -1.4100000000000000E-002     8.3413896075431075E-018
  -1.3800000000000000E-002    -6.8938222420859656E-016
  -1.3500000000000000E-002    -1.1022798143580208E-014
  -1.3200000000000000E-002     5.7119682166710449E-014
  -1.2899999999999998E-002     5.3721075429080507E-013
  -1.2600000000000000E-002    -1.1871251139577687E-012
  -1.2299999999999998E-002    -7.3363941752864266E-012
  -1.2000000000000000E-002     4.9597327332546953E-012
  -1.1699999999999999E-002     5.0920819887524231E-011
  -1.1399999999999999E-002     4.8200506334222618E-011
  -1.1099999999999999E-002    -2.4208388704942418E-010
  -1.0799999999999999E-002    -5.5970807952795382E-010
  -1.0499999999999999E-002     9.0415949648163251E-010
  -1.0199999999999999E-002     2.2257818926588154E-009
  -9.8999999999999991E-003    -2.4338122064923878E-009
  -9.5999999999999992E-003    -3.0822490852655776E-009
  -9.2999999999999992E-003     2.5673902773024600E-009
  -8.9999999999999993E-003    -3.7726887605694940E-009
  -8.6999999999999994E-003     4.5629236163474709E-009
  -8.3999999999999995E-003     1.7680955097476644E-008
  -8.0999999999999996E-003    -1.2890247930710274E-008
  -7.7999999999999988E-003    -1.7352881466562935E-008
  -7.4999999999999997E-003     9.2378159233220172E-009
  -7.1999999999999998E-003    -2.0626489549557430E-008
  -6.8999999999999981E-003    -3.6537542333656673E-008
  -6.5999999999999982E-003     8.2635484336711194E-008
  -6.3000000000000000E-003     1.5302096872717098E-007
  -6.0000000000000001E-003    -8.6002261608405739E-008
  -5.6999999999999985E-003    -2.1949821220303279E-007
  -5.3999999999999986E-003    -1.0646896830305247E-008
  -5.1000000000000004E-003    -3.9606829506018072E-008
  -4.7999999999999987E-003    -1.3153698329396417E-007
  -4.5000000000000005E-003     5.1891705395451089E-007
  -4.1999999999999989E-003     1.2502498717162621E-006
  -3.8999999999999990E-003    -4.9811208797006539E-007
  -3.5999999999999990E-003    -4.0402670194194372E-006
  -3.2999999999999991E-003    -1.5975809041129060E-006
  -2.9999999999999992E-003     8.7436978936404599E-006
  -2.6999999999999993E-003     9.3610769800753012E-006
  -2.3999999999999994E-003    -1.4590481998818224E-005
  -2.0999999999999977E-003    -3.4548139769354099E-005
  -1.7999999999999995E-003     9.9407651552885957E-006
  -1.4999999999999979E-003     1.5365709150158975E-004
  -1.1999999999999997E-003     3.8144635889557051E-004
  -8.9999999999999976E-004     6.4855666155188446E-004
  -5.9999999999999810E-004     9.4995868086409090E-004
  -2.9999999999999992E-004     1.4070562302558576E-003
   0.0000000000000000          2.2150990290557429E-003
   3.0000000000000165E-004     3.4969934947055581E-003
   5.9999999999999984E-004     5.3435176459569293E-003
   9.0000000000000149E-004     8.0156678857376731E-003
   1.2000000000000031E-003     1.1987437321756878E-002
   1.5000000000000013E-003     1.7817569656186669E-002
   1.8000000000000030E-003     2.6138532569375546E-002
   2.1000000000000012E-003     3.7762924568173324E-002
   2.3999999999999994E-003     5.3692742578673389E-002
   2.7000000000000010E-003     7.5113712988787856E-002
   2.9999999999999992E-003    0.10349547772396304     
   3.3000000000000008E-003    0.14055107426785568     
   3.6000000000000025E-003    0.18797622498238872     
   3.9000000000000007E-003    0.24728192256692813     
   4.2000000000000023E-003    0.31972300876315390     
   4.5000000000000005E-003    0.40604233631548287     
   4.7999999999999987E-003    0.50605088407099585     
   5.1000000000000004E-003    0.61822998537997975     
   5.4000000000000020E-003    0.73930663008789488     
   5.7000000000000037E-003    0.86371505578667451     
   5.9999999999999984E-003    0.98318046895468836     
   6.3000000000000000E-003     1.0865053026555731     
   6.6000000000000017E-003     1.1594210989955753     
   6.9000000000000034E-003     1.1846885853386551     
   7.2000000000000015E-003     1.1427953466242045     
   7.5000000000000032E-003     1.0130945720454578     
   7.8000000000000014E-003    0.77510002558384250     
   8.0999999999999996E-003    0.41035652917539489     
   8.4000000000000012E-003    -9.5019426593633896E-002
   8.7000000000000029E-003   -0.74794914126571377     
   9.0000000000000011E-003    -1.5460017518861859     
   9.2999999999999992E-003    -2.4748062738741075     
   9.6000000000000009E-003    -3.5064313157250804     
   9.8999999999999991E-003    -4.5992040520098847     
   1.0200000000000001E-002    -5.6979470325791741     
   1.0500000000000002E-002    -6.7350831335552490     
   1.0800000000000004E-002    -7.6343184089586718     
   1.1099999999999999E-002    -8.3159190089455368     
   1.1400000000000000E-002    -8.7019110891881244     
   1.1700000000000002E-002    -8.7221099400650992     
   1.2000000000000004E-002    -8.3212062636451165     
   1.2300000000000002E-002    -7.4648620600503905     
   1.2600000000000000E-002    -6.1441790687385351     
   1.2900000000000002E-002    -4.3786761399844574     
   1.3200000000000000E-002    -2.2176398762077056     
   1.3500000000000002E-002    0.26140547869858061     
   1.3800000000000003E-002     2.9572633376753932     
   1.4100000000000001E-002     5.7511238210421647     
   1.4400000000000000E-002     8.5140628553668130     
   1.4700000000000001E-002     11.115750352502326     
   1.4999999999999999E-002     13.433383098167701     
   1.5300000000000001E-002     15.359770956667047     
   1.5600000000000003E-002     16.809702170382007     
   1.5899999999999997E-002     17.724434212383049     
   1.6199999999999999E-002     18.074222930817477     
   1.6500000000000001E-002     17.858038354177332     
   1.6800000000000002E-002     17.100840044019012     
   1.7100000000000004E-002     15.849594551134336     
   1.7400000000000006E-002     14.168511812304036     
   1.7700000000000000E-002     12.132853896777830     
   1.8000000000000002E-002     9.8231843502772396     
   1.8300000000000004E-002     7.3208425334388654     
   1.8600000000000005E-002     4.7046248350572411     
   1.8900000000000000E-002     2.0475047478513302     
   1.9200000000000002E-002   -0.58500155052938230     
   1.9500000000000003E-002    -3.1343442343695642     
   1.9799999999999998E-002    -5.5482299388518053     
   2.0100000000000000E-002    -7.7812312770017966     
   2.0400000000000001E-002    -9.7939705545222040     
   2.0700000000000003E-002    -11.552845529224369     
   2.0999999999999998E-002    -13.030639286070013     
   2.1299999999999999E-002    -14.209563888706697     
   2.1600000000000001E-002    -15.083147701171974     
   2.1900000000000003E-002    -15.657379797435045     
   2.2200000000000004E-002    -15.953539512851556     
   2.2500000000000006E-002    -16.010536760515677     
   2.2800000000000001E-002    -15.883646505384272     
   2.3100000000000002E-002    -15.640965864082002     
   2.3400000000000004E-002    -15.359171207442753     
   2.3699999999999999E-002    -15.116772821665000     
   2.4000000000000000E-002    -14.983080896714435     
   2.4300000000000002E-002    -15.006745222388449     
   2.4599999999999997E-002    -15.206383430799560     
   2.4900000000000005E-002    -15.561371363807234     
   2.5200000000000000E-002    -16.003663409369377     
   2.5499999999999995E-002    -16.416281881825086     
   2.5800000000000003E-002    -16.638413457344960     
   2.6099999999999998E-002    -16.474512949164744     
   2.6400000000000007E-002    -15.711272034226116     
   2.6700000000000002E-002    -14.139219975707100     
   2.6999999999999996E-002    -11.576878284990412     
   2.7300000000000005E-002    -7.8975246361201616     
   2.7600000000000000E-002    -3.0536252849714622     
   2.7900000000000008E-002     2.9059172550835499     
   2.8200000000000003E-002     9.8246331661248281     
   2.8499999999999998E-002     17.436578931492800     
   2.8800000000000006E-002     25.376537120944530     
   2.9100000000000001E-002     33.203463902922373     
   2.9400000000000003E-002     40.429263066522765     
   2.9700000000000004E-002     46.555571145448980     
   3.0000000000000006E-002     51.117754225852025     
   3.0300000000000001E-002     53.725606948898339     
   3.0600000000000002E-002     54.097249908807299     
   3.0900000000000004E-002     52.088216717212269     
   3.1199999999999999E-002     47.709348746476394     
   3.1500000000000007E-002     41.128691034159111     
   3.1800000000000002E-002     32.661715214256034     
   3.2099999999999997E-002     22.750535140089749     
   3.2400000000000005E-002     11.930303218151169     
   3.2700000000000000E-002    0.78842772071347877     
   3.3000000000000002E-002    -10.078300832596289     
   3.3300000000000003E-002    -20.104849752016140     
   3.3599999999999998E-002    -28.799189158213991     
   3.3900000000000000E-002    -35.772913270947548     
   3.4200000000000001E-002    -40.761671211339319     
   3.4500000000000003E-002    -43.638250458676481     
   3.4799999999999998E-002    -44.411703285092841     
   3.5099999999999999E-002    -43.215498307128328     
   3.5400000000000001E-002    -40.290079690696771     
   3.5699999999999996E-002    -35.956690700412260     
   3.6000000000000004E-002    -30.587393995979696     
   3.6299999999999999E-002    -24.574990838814525     
   3.6600000000000008E-002    -18.304792333926283     
   3.6900000000000002E-002    -12.129529213999371     
   3.7199999999999997E-002    -6.3487052685684313     
   3.7500000000000006E-002    -1.1974220692705899     
   3.7800000000000000E-002     3.1607791900442779     
   3.8100000000000009E-002     6.6353827755991777     
   3.8400000000000004E-002     9.2010527747305364     
   3.8699999999999998E-002     10.888976237332406     
   3.9000000000000007E-002     11.775856225356529     
   3.9300000000000002E-002     11.969475092404821     
   3.9600000000000003E-002     11.595849445312250     
   3.9900000000000005E-002     10.788492725546686     
   4.0200000000000000E-002     9.6790310545090747     
   4.0500000000000001E-002     8.3880040917034790     
   4.0800000000000003E-002     7.0216792854257726     
   4.1100000000000005E-002     5.6716093672452166     
   4.1399999999999999E-002     4.4102073037246026     
   4.1700000000000008E-002     3.2913878804121901     
   4.2000000000000003E-002     2.3535631920137190     
   4.2299999999999997E-002     1.6197512420747582     
   4.2600000000000006E-002     1.0978346271090700     
   4.2900000000000001E-002    0.78188447488699753     
   4.3200000000000002E-002    0.65483979212073884     
   4.3500000000000004E-002    0.68992003485703790     
   4.3799999999999999E-002    0.85181499617962431     
   4.4100000000000000E-002     1.0997430012101228     
   4.4400000000000002E-002     1.3897454474715869     
   4.4700000000000004E-002     1.6792313606891995     
   4.4999999999999998E-002     1.9298990356072121     
   4.5300000000000000E-002     2.1087072343921740     
   4.5600000000000002E-002     2.1915884364083560     
   4.5899999999999996E-002     2.1657114302253833     
   4.6200000000000005E-002     2.0279212223657561     
   4.6500000000000000E-002     1.7845616536588438     
   4.6799999999999994E-002     1.4503390964232568     
   4.7100000000000003E-002     1.0462742006845069     
   4.7399999999999998E-002    0.59602893705598425     
   4.7700000000000006E-002    0.12537121268950638     
   4.8000000000000001E-002   -0.33992796561567212     
   4.8300000000000010E-002   -0.77748644235799624     
   4.8600000000000004E-002    -1.1678174766324945     
   4.8899999999999999E-002    -1.4939514468785797     
   4.9200000000000008E-002    -1.7428691484354328     
   4.9500000000000002E-002    -1.9059759486304748     
   4.9800000000000011E-002    -1.9774078232688468     
   5.0100000000000006E-002    -1.9542627416020812     
   5.0400000000000000E-002    -1.8380374959208938     
   5.0700000000000009E-002    -1.6345721497662578     
   5.1000000000000004E-002    -1.3536337593316230     
   5.1299999999999998E-002    -1.0101479241842819     
   5.1600000000000007E-002   -0.62301563508576441     
   5.1900000000000002E-002   -0.21434902340174206     
   5.2200000000000010E-002    0.19087932326400556     
   5.2500000000000005E-002    0.56674123580722935     
   5.2800000000000000E-002    0.88914973249968798     
   5.3099999999999994E-002     1.1373540228504755     
   5.3400000000000003E-002     1.2948826616622053     
   5.3699999999999998E-002     1.3526140521708885     
   5.4000000000000006E-002     1.3089761812508380     
   5.4300000000000001E-002     1.1687606659981322     
   5.4599999999999996E-002    0.94322008820101833     
   5.4900000000000004E-002    0.64992232019188534     
   5.5199999999999999E-002    0.30930928119471368     
   5.5499999999999994E-002    -5.7154859725655198E-002
   5.5800000000000002E-002   -0.42692518218127146     
   5.6099999999999997E-002   -0.77886003764730294     
   5.6400000000000006E-002    -1.0957713234323239     
   5.6700000000000000E-002    -1.3634895246158001     
   5.6999999999999995E-002    -1.5704429353367884     
   5.7300000000000004E-002    -1.7094929451649603     
   5.7599999999999998E-002    -1.7773243432580816     
   5.7900000000000007E-002    -1.7732430930708296     
   5.8200000000000002E-002    -1.6992383211403446     
   5.8499999999999996E-002    -1.5610640217760039     
   5.8800000000000005E-002    -1.3670710447675782     
   5.9100000000000000E-002    -1.1275303440320077     
   5.9400000000000008E-002   -0.85600525494669577     
   5.9700000000000003E-002   -0.56717574630663559     
   6.0000000000000012E-002   -0.27608752080886961     
   6.0300000000000006E-002     1.6754295645110961E-003
   6.0600000000000001E-002    0.25135410106562700     
   6.0900000000000010E-002    0.46106407297693575     
   6.1200000000000004E-002    0.62327409013853907     
   6.1500000000000013E-002    0.73426163426156499     
   6.1800000000000008E-002    0.79468047913310058     
   6.2100000000000002E-002    0.81030226166867858     
   6.2399999999999997E-002    0.78967094992770337     
   6.2700000000000006E-002    0.74386436479985707     
   6.3000000000000000E-002    0.68531728638254796     
   6.3300000000000009E-002    0.62501789022879939     
   6.3600000000000004E-002    0.57195002660387695     
   6.3899999999999998E-002    0.53218448803115570     
   6.4199999999999993E-002    0.50848740687662097     
   6.4500000000000002E-002    0.49897855510592176     
   6.4800000000000010E-002    0.49877833954895079     
   6.5100000000000005E-002    0.50306093018110121     
   6.5400000000000000E-002    0.50578480070431231     
   6.5700000000000008E-002    0.50084601880459023     
   6.5999999999999989E-002    0.48441450947560738     
   6.6299999999999998E-002    0.45573582674345869     
   6.6600000000000006E-002    0.41657960229654395     
   6.6900000000000001E-002    0.37016794351516685     
   6.7199999999999996E-002    0.32173330307461123     
   6.7500000000000004E-002    0.27698163284141475     
   6.7800000000000013E-002    0.24005874819734993     
   6.8099999999999994E-002    0.21404294549701822     
   6.8400000000000002E-002    0.19887096927985573     
   6.8700000000000011E-002    0.19177361781955030     
   6.8999999999999992E-002    0.18851283738632188     
   6.9300000000000000E-002    0.18267928169590811     
   6.9600000000000009E-002    0.16790261569282078     
   6.9900000000000004E-002    0.13825168626703635     
   7.0199999999999999E-002     9.0228528361268406E-002
   7.0500000000000007E-002     2.3872490517230678E-002
   7.0800000000000016E-002    -5.8450303618633251E-002
   7.1099999999999997E-002   -0.15068679975781810     
   7.1400000000000005E-002   -0.24427472995977156     
   7.1700000000000000E-002   -0.32961138087869546     
   7.1999999999999995E-002   -0.39681761151284911     
   7.2300000000000003E-002   -0.43862982188987298     
   7.2600000000000012E-002   -0.45074634539638131     
   7.2900000000000006E-002   -0.43309091811441464     
   7.3200000000000001E-002   -0.39046296535182745     
   7.3499999999999996E-002   -0.33125276407755039     
   7.3800000000000004E-002   -0.26836617899210807     
   7.4099999999999999E-002   -0.21604904649293274     
   7.4400000000000008E-002   -0.18775347774626880     
   7.4700000000000003E-002   -0.19494676422080934     
   7.5000000000000011E-002   -0.24453486273029654     
   7.5299999999999992E-002   -0.33772618220670619     
   7.5600000000000001E-002   -0.46803157987965838     
   7.5900000000000009E-002   -0.62187970469740839     
   7.6200000000000004E-002   -0.77997719017654454     
   7.6499999999999999E-002   -0.91850569433524831     
   7.6800000000000007E-002    -1.0121917176900777     
   7.7099999999999988E-002    -1.0367671721141112     
   7.7399999999999997E-002   -0.97273442703827062     
   7.7700000000000005E-002   -0.80883768365433562     
   7.8000000000000014E-002   -0.54334077912765288     
   7.8299999999999995E-002   -0.18600570297422686     
   7.8600000000000003E-002    0.24139736632297512     
   7.8900000000000012E-002    0.70696438873393241     
   7.9199999999999993E-002     1.1711916732207655     
   7.9500000000000001E-002     1.5911733558691890     
   7.9800000000000010E-002     1.9233837446124786     
   8.0100000000000018E-002     2.1301602175530001     
   8.0399999999999999E-002     2.1841636766894346     
   8.0700000000000008E-002     2.0696400206287540     
   8.1000000000000003E-002     1.7864912604968324     
   8.1299999999999997E-002     1.3515769273278673     
   8.1600000000000006E-002    0.79572430351351187     
   8.1900000000000014E-002    0.16087139363159672     
   8.2199999999999995E-002   -0.50315464714743718     
   8.2500000000000004E-002    -1.1426455674663085     
   8.2799999999999999E-002    -1.7070487049198158     
   8.3100000000000007E-002    -2.1543220456580094     
   8.3400000000000002E-002    -2.4517403775055531     
   8.3700000000000011E-002    -2.5806761778892531     
   8.4000000000000005E-002    -2.5379911435717215     
   8.4300000000000000E-002    -2.3343089675643665     
   8.4599999999999995E-002    -1.9922182592221322     
   8.4900000000000003E-002    -1.5434979479972932     
   8.5199999999999998E-002    -1.0255203820360685     
   8.5500000000000007E-002   -0.47730031535540990     
   8.5800000000000001E-002     6.3810221637075518E-002
   8.6100000000000010E-002    0.56484702393161790     
   8.6399999999999991E-002     1.0000261743845744     
   8.6699999999999999E-002     1.3508099813877108     
   8.7000000000000008E-002     1.6062764308263398     
   8.7300000000000003E-002     1.7633662546543343     
   8.7599999999999997E-002     1.8248662080108806     
   8.7900000000000006E-002     1.7983991283015552     
   8.8200000000000014E-002     1.6958423128734681     
   8.8499999999999995E-002     1.5311375255011064     
   8.8800000000000004E-002     1.3189935226406033     
   8.9100000000000013E-002     1.0749517375573336     
   8.9399999999999993E-002    0.81462042028703463     
   8.9700000000000002E-002    0.55198836289975772     
   9.0000000000000011E-002    0.29951931318945646     
   9.0299999999999991E-002     6.8540276346934714E-002
   9.0600000000000000E-002   -0.13265828583207251     
   9.0900000000000009E-002   -0.29820709674797069     
   9.1200000000000017E-002   -0.42434378470021700     
   9.1499999999999998E-002   -0.51084764840931529     
   9.1800000000000007E-002   -0.56020256200305418     
   9.2100000000000001E-002   -0.57636847879832409     
   9.2399999999999996E-002   -0.56489131239082424     
   9.2700000000000005E-002   -0.53237108436309066     
   9.3000000000000013E-002   -0.48534076108242880     
   9.3300000000000008E-002   -0.42857488281410155     
   9.3600000000000003E-002   -0.36625295663757879     
   9.3899999999999997E-002   -0.30140817315744495     
   9.4200000000000006E-002   -0.23407814306624838     
   9.4500000000000001E-002   -0.16380559454164373     
   9.4800000000000009E-002    -8.9632569382185542E-002
   9.5100000000000004E-002    -1.0223009267983826E-002
   9.5399999999999999E-002     7.5142034832972771E-002
   9.5699999999999993E-002    0.16586076630827917     
   9.6000000000000002E-002    0.26007350707922056     
   9.6300000000000011E-002    0.35426398542248339     
   9.6600000000000005E-002    0.44355630304886995     
   9.6900000000000000E-002    0.52209132357790733     
   9.7200000000000009E-002    0.58425545180933391     
   9.7499999999999989E-002    0.62446224251878202     
   9.7799999999999998E-002    0.63764506258344034     
   9.8100000000000007E-002    0.62086957517098951     
   9.8400000000000015E-002    0.57233488542143107     
   9.8699999999999996E-002    0.49157938499713705     
   9.9000000000000005E-002    0.38040793208667095     
   9.9300000000000013E-002    0.24193875828082057     
   9.9599999999999994E-002     7.9603735105973350E-002
   9.9900000000000003E-002   -0.10181793273659535     
  0.10020000000000001        -0.29618599838960630     
  0.10049999999999999        -0.49715229879037381     
  0.10080000000000000        -0.69850778792856860     
  0.10110000000000001        -0.89251232569269734     
  0.10140000000000000         -1.0706266227602466     
  0.10170000000000000         -1.2253259500649789     
  0.10200000000000001         -1.3488305899989355     
  0.10230000000000002         -1.4336967568660131     
  0.10260000000000000         -1.4733520850357136     
  0.10290000000000001         -1.4635900361778342     
  0.10320000000000000         -1.4021920062829234     
  0.10350000000000001         -1.2892686216533233     
  0.10380000000000000         -1.1278810576782576     
  0.10410000000000001        -0.92406619193721251     
  0.10440000000000001        -0.68592238826619900     
  0.10470000000000000        -0.42344227602611689     
  0.10500000000000000        -0.14773830689490972     
  0.10530000000000000         0.12861591936857034     
  0.10560000000000000         0.39340496711240197     
  0.10590000000000001         0.63607121429469227     
  0.10620000000000000         0.84648610309100314     
  0.10650000000000001          1.0163504017971821     
  0.10679999999999999          1.1398632669379358     
  0.10710000000000000          1.2129750395876584     
  0.10740000000000001          1.2338700431150256     
  0.10770000000000000          1.2031046274024504     
  0.10800000000000000          1.1241891484231750     
  0.10830000000000001          1.0026835276895925     
  0.10859999999999999         0.84518605938082192     
  0.10890000000000000         0.66107702467170915     
  0.10920000000000001         0.46117350439400379     
  0.10950000000000001         0.25613200454527774     
  0.10979999999999999          5.6880075716708133E-002
  0.11009999999999999        -0.12657072086749244     
  0.11040000000000001        -0.28488532203544997     
  0.11070000000000001        -0.41149035626997710     
  0.11100000000000000        -0.50274885248486489     
  0.11130000000000000        -0.55675358138765385     
  0.11160000000000002        -0.57468110897372648     
  0.11190000000000001        -0.56025922888090907     
  0.11220000000000001        -0.51865625980177232     
  0.11250000000000000        -0.45620844368402419     
  0.11280000000000000        -0.37936118834878158     
  0.11309999999999999        -0.29440934026372395     
  0.11340000000000001        -0.20642953140727663     
  0.11369999999999998        -0.11957556475249527     
  0.11400000000000000         -3.6830779406883909E-002
  0.11430000000000000          4.1056968700192063E-002
  0.11460000000000002         0.11412879549147698     
  0.11489999999999999         0.18254571925976273     
  0.11520000000000001         0.24749626037614442     
  0.11550000000000001         0.31033685661873323     
  0.11580000000000000         0.37206989427897708     
  0.11609999999999999         0.43320700494386954     
  0.11640000000000002         0.49441939648521493     
  0.11670000000000001         0.55579197576422179     
  0.11700000000000001         0.61642080865859572     
  0.11730000000000000         0.67575288318368087     
  0.11760000000000000         0.73327244015959114     
  0.11789999999999999         0.78720785071626576     
  0.11820000000000001         0.83620459911450484     
  0.11850000000000001         0.87874288590726246     
  0.11880000000000000         0.91282088894261437     
  0.11910000000000000         0.93568117819676599     
  0.11940000000000002         0.94449289063944286     
  0.11970000000000001         0.93681456037832955     
  0.12000000000000001         0.90972567913125302     
  0.12030000000000000         0.86039073486125051     
  0.12060000000000000         0.78705711261260392     
  0.12089999999999999         0.68790871861392444     
  0.12119999999999999         0.56222886662475224     
  0.12150000000000001         0.41067034662520163     
  0.12180000000000001         0.23432898997451149     
  0.12210000000000000          3.5305420822604218E-002
  0.12239999999999999        -0.18277606323660672     
  0.12270000000000002        -0.41501066313792950     
  0.12300000000000001        -0.65582389166662391     
  0.12330000000000001        -0.89915121449014090     
  0.12360000000000000         -1.1374765752197129     
  0.12390000000000000         -1.3624437005326775     
  0.12419999999999999         -1.5655799091409761     
  0.12450000000000001         -1.7377490009425693     
  0.12480000000000001         -1.8706802352629721     
  0.12509999999999999         -1.9572369093838435     
  0.12540000000000001         -1.9909577606585629     
  0.12570000000000003         -1.9677011008491425     
  0.12600000000000000         -1.8862105832752760     
  0.12630000000000002         -1.7486157626672423     
  0.12659999999999999         -1.5593151044272944     
  0.12690000000000001         -1.3254598548416112     
  0.12719999999999998         -1.0580787804787939     
  0.12750000000000000        -0.76973266605049251     
  0.12780000000000002        -0.47274071890728359     
  0.12809999999999999        -0.17978181556167386     
  0.12840000000000001          9.7223681408601215E-002
  0.12869999999999998         0.34823444582496338     
  0.12900000000000000         0.56690145038046325     
  0.12930000000000003         0.74946917023866277     
  0.12959999999999999         0.89466298980443681     
  0.12990000000000002          1.0044123112022756     
  0.13019999999999998          1.0824610211311576     
  0.13050000000000000          1.1336435328994487     
  0.13080000000000003          1.1629866636229871     
  0.13109999999999999          1.1747337870787320     
  0.13140000000000002          1.1725582181477943     
  0.13169999999999998          1.1582311684885573     
  0.13200000000000001          1.1323010008998966     
  0.13229999999999997          1.0943825502608326     
  0.13260000000000000          1.0427811374729998     
  0.13290000000000002         0.97562785902115123     
  0.13319999999999999         0.89121903552584691     
  0.13350000000000001         0.78849352561458264     
  0.13380000000000003         0.66788751604988694     
  0.13410000000000000         0.53005171094595460     
  0.13440000000000002         0.37691488688873259     
  0.13469999999999999         0.21160232401969450     
  0.13500000000000001          3.7269164543538867E-002
  0.13529999999999998        -0.14238986340207244     
  0.13560000000000000        -0.32355682883131665     
  0.13590000000000002        -0.50236811381732149     
  0.13619999999999999        -0.67483332135248719     
  0.13650000000000001        -0.83715334066711966     
  0.13680000000000003        -0.98494454828382239     
  0.13710000000000000         -1.1144179364434994     
  0.13740000000000002         -1.2217283499158396     
  0.13769999999999999         -1.3019148348201752     
  0.13800000000000001         -1.3507905226731145     
  0.13829999999999998         -1.3655064307122933     
  0.13860000000000000         -1.3433213414530361     
  0.13890000000000002         -1.2823457878173909     
  0.13919999999999999         -1.1824584147788813     
  0.13950000000000001         -1.0458089231547603     
  0.13979999999999998        -0.87541235425545683     
  0.14010000000000000        -0.67538083243501001     
  0.14040000000000002        -0.45146230168317003     
  0.14069999999999999        -0.21020468978607718     
  0.14100000000000001          4.1624082136297411E-002
  0.14130000000000004         0.29699916694049022     
  0.14160000000000000         0.54980970985918154     
  0.14189999999999997         0.79393925332433990     
  0.14219999999999999          1.0234247695288694     
  0.14250000000000002          1.2337014960162160     
  0.14279999999999998          1.4206388305281115     
  0.14310000000000000          1.5803116878415648     
  0.14339999999999997          1.7087505178870097     
  0.14369999999999999          1.8029917776609847     
  0.14400000000000002          1.8606512815683096     
  0.14429999999999998          1.8788504832257320     
  0.14460000000000001          1.8559067437913388     
  0.14490000000000003          1.7910436534811891     
  0.14520000000000000          1.6840243436792108     
  0.14550000000000002          1.5361082607691521     
  0.14579999999999999          1.3496537222244207     
  0.14610000000000001          1.1286809421004194     
  0.14640000000000003         0.87828009749929004     
  0.14670000000000000         0.60455428680060930     
  0.14699999999999996         0.31591813601434066     
  0.14729999999999999          2.1077324502149466E-002
  0.14760000000000001        -0.27025370454197556     
  0.14789999999999998        -0.54799135381422670     
  0.14820000000000000        -0.80238135657035836     