  -1.4999999999999999E-002     0.0000000000000000     
  -1.4700000000000000E-002     0.0000000000000000     
  -1.4400000000000000E-002     0.0000000000000000     
  -1.4100000000000000E-002     0.0000000000000000     
  -1.3800000000000000E-002     0.0000000000000000     
  -1.3500000000000000E-002     0.0000000000000000     
  -1.3200000000000000E-002     0.0000000000000000     
  -1.2899999999999998E-002     0.0000000000000000     
  -1.2600000000000000E-002     0.0000000000000000     
  -1.2299999999999998E-002     0.0000000000000000     
  -1.2000000000000000E-002     0.0000000000000000     
  -1.1699999999999999E-002     0.0000000000000000     
  -1.1399999999999999E-002     0.0000000000000000     
  -1.1099999999999999E-002     0.0000000000000000     
  -1.0799999999999999E-002     0.0000000000000000     
  -1.0499999999999999E-002     0.0000000000000000     
  -1.0199999999999999E-002     0.0000000000000000     
  -9.8999999999999991E-003     0.0000000000000000     
  -9.5999999999999992E-003     0.0000000000000000     
  -9.2999999999999992E-003     0.0000000000000000     
  -8.9999999999999993E-003     0.0000000000000000     
  -8.6999999999999994E-003     0.0000000000000000     
  -8.3999999999999995E-003     0.0000000000000000     
  -8.0999999999999996E-003     0.0000000000000000     
  -7.7999999999999988E-003     0.0000000000000000     
  -7.4999999999999997E-003     0.0000000000000000     
  -7.1999999999999998E-003     0.0000000000000000     
  -6.8999999999999981E-003     0.0000000000000000     
  -6.5999999999999982E-003     0.0000000000000000     
  -6.3000000000000000E-003     0.0000000000000000     
  -6.0000000000000001E-003     0.0000000000000000     
  -5.6999999999999985E-003     0.0000000000000000     
  -5.3999999999999986E-003     0.0000000000000000     
  -5.1000000000000004E-003     0.0000000000000000     
  -4.7999999999999987E-003     0.0000000000000000     
  -4.5000000000000005E-003     0.0000000000000000     
  -4.1999999999999989E-003     0.0000000000000000     
  -3.8999999999999990E-003     0.0000000000000000     
  -3.5999999999999990E-003     0.0000000000000000     
  -3.2999999999999991E-003     0.0000000000000000     
  -2.9999999999999992E-003     0.0000000000000000     
  -2.6999999999999993E-003     0.0000000000000000     
  -2.3999999999999994E-003     0.0000000000000000     
  -2.0999999999999977E-003     0.0000000000000000     
  -1.7999999999999995E-003     0.0000000000000000     
  -1.4999999999999979E-003     0.0000000000000000     
  -1.1999999999999997E-003     0.0000000000000000     
  -8.9999999999999976E-004     0.0000000000000000     
  -5.9999999999999810E-004     0.0000000000000000     
  -2.9999999999999992E-004     0.0000000000000000     
   0.0000000000000000          0.0000000000000000     
   3.0000000000000165E-004     0.0000000000000000     
   5.9999999999999984E-004     0.0000000000000000     
   9.0000000000000149E-004     0.0000000000000000     
   1.2000000000000031E-003     0.0000000000000000     
   1.5000000000000013E-003     0.0000000000000000     
   1.8000000000000030E-003     0.0000000000000000     
   2.1000000000000012E-003     0.0000000000000000     
   2.3999999999999994E-003     0.0000000000000000     
   2.7000000000000010E-003     0.0000000000000000     
   2.9999999999999992E-003     0.0000000000000000     
   3.3000000000000008E-003     0.0000000000000000     
   3.6000000000000025E-003     0.0000000000000000     
   3.9000000000000007E-003     0.0000000000000000     
   4.2000000000000023E-003     0.0000000000000000     
   4.5000000000000005E-003     0.0000000000000000     
   4.7999999999999987E-003     0.0000000000000000     
   5.1000000000000004E-003     0.0000000000000000     
   5.4000000000000020E-003     4.2518227285475161E-059
   5.7000000000000037E-003     5.1748064466585274E-058
   5.9999999999999984E-003    -2.3068191596139234E-044
   6.3000000000000000E-003    -1.5759011848752788E-043
   6.6000000000000017E-003     5.7095779206764778E-043
   6.9000000000000034E-003    -8.2757839840914827E-037
   7.2000000000000015E-003    -2.7848214882362459E-037
   7.5000000000000032E-003     1.4784009789970204E-035
   7.8000000000000014E-003     1.1454182742103513E-034
   8.0999999999999996E-003    -1.9141433255052345E-034
   8.4000000000000012E-003    -8.3960602408259781E-033
   8.7000000000000029E-003     3.1301961085334487E-032
   9.0000000000000011E-003     1.5544575971523473E-031
   9.2999999999999992E-003    -1.4747188947867364E-030
   9.6000000000000009E-003     3.1075227541261868E-030
   9.8999999999999991E-003     1.7058794365447000E-029
   1.0200000000000001E-002    -1.6126770702219637E-028
   1.0500000000000002E-002     5.6755269936615799E-028
   1.0800000000000004E-002     3.5484725674732811E-030
   1.1099999999999999E-002    -1.0933545360437514E-026
   1.1400000000000000E-002     6.0222959320005113E-026
   1.1700000000000002E-002    -1.4316896687311924E-025
   1.2000000000000004E-002    -1.6124367764539503E-025
   1.2300000000000002E-002     2.7948370649617340E-024
   1.2600000000000000E-002    -1.1550007486231080E-023
   1.2900000000000002E-002     2.0292060793993444E-023
   1.3200000000000000E-002     4.6245936283714709E-023
   1.3500000000000002E-002    -4.8342013352411148E-022
   1.3800000000000003E-002     1.9288240847621400E-021
   1.4100000000000001E-002    -4.6724416860116547E-021
   1.4400000000000000E-002     5.3941220734407651E-021
   1.4700000000000001E-002     7.8588769540227151E-021
   1.4999999999999999E-002    -3.8087841443877505E-020
   1.5300000000000001E-002    -8.9670032849952360E-020
   1.5600000000000003E-002     1.5628971576092715E-018
   1.5899999999999997E-002    -9.9866050533996459E-018
   1.6199999999999999E-002     4.8524094202419673E-017
   1.6500000000000001E-002    -2.0869387345860660E-016
   1.6800000000000002E-002     8.4812151934618793E-016
   1.7100000000000004E-002    -3.3413049374366402E-015
   1.7400000000000006E-002     1.2707815593682078E-014
   1.7700000000000000E-002    -4.5385423397586521E-014
   1.8000000000000002E-002     1.4491606613001411E-013
   1.8300000000000004E-002    -3.7860689356584146E-013
   1.8600000000000005E-002     6.2752648434100607E-013
   1.8900000000000000E-002     4.8229545049336918E-013
   1.9200000000000002E-002    -8.4640365936806111E-012
   1.9500000000000003E-002     3.4750768128097959E-011
   1.9799999999999998E-002    -7.6442346740384118E-011
   2.0100000000000000E-002     2.9481974641544475E-011
   2.0400000000000001E-002     4.0874437089376069E-010
   2.0700000000000003E-002    -1.3180101221034895E-009
   2.0999999999999998E-002     8.7891007900298345E-010
   2.1299999999999999E-002     5.0563264340958800E-009
   2.1600000000000001E-002    -1.2145265082401862E-008
   2.1900000000000003E-002    -7.3407927796779238E-009
   2.2200000000000004E-002     5.4769500638711010E-008
   2.2500000000000006E-002    -4.1951591901816970E-009
   2.2800000000000001E-002    -1.9783911028713541E-007
   2.3100000000000002E-002    -1.1225395370279131E-008
   2.3400000000000004E-002     5.6803812934217414E-007
   2.3699999999999999E-002     2.5697425402566470E-007
   2.4000000000000000E-002    -1.3418526057779582E-006
   2.4300000000000002E-002    -1.3537359728255008E-006
   2.4599999999999997E-002     3.3538397074882901E-006
   2.4900000000000005E-002     1.0730698856240743E-005
   2.5200000000000000E-002     1.5760568319368249E-005
   2.5499999999999995E-002     1.9609440231294342E-005
   2.5800000000000003E-002     3.1332714504569257E-005
   2.6099999999999998E-002     5.7492613800752207E-005
   2.6400000000000007E-002     9.5561279339103703E-005
   2.6700000000000002E-002     1.4345823009284718E-004
   2.6999999999999996E-002     2.1237819525776806E-004
   2.7300000000000005E-002     3.2318766441962837E-004
   2.7600000000000000E-002     4.9221711600218386E-004
   2.7900000000000008E-002     7.3068533718057503E-004
   2.8200000000000003E-002     1.0611607778793467E-003
   2.8499999999999998E-002     1.5262704764673991E-003
   2.8800000000000006E-002     2.1768453756747714E-003
   2.9100000000000001E-002     3.0607524302724708E-003
   2.9400000000000003E-002     4.2325070752443194E-003
   2.9700000000000004E-002     5.7677508631174953E-003
   3.0000000000000006E-002     7.7563354645512148E-003
   3.0300000000000001E-002     1.0282274092943005E-002
   3.0600000000000002E-002     1.3417938433647974E-002
   3.0900000000000004E-002     1.7232728786162332E-002
   3.1199999999999999E-002     2.1786968777767788E-002
   3.1500000000000007E-002     2.7103071621917576E-002
   3.1800000000000002E-002     3.3141370437700199E-002
   3.2099999999999997E-002     3.9795398302936782E-002
   3.2400000000000005E-002     4.6888362262307276E-002
   3.2700000000000000E-002     5.4151899861192711E-002
   3.3000000000000002E-002     6.1201441942508074E-002
   3.3300000000000003E-002     6.7537136516570700E-002
   3.3599999999999998E-002     7.2567947656893117E-002
   3.3900000000000000E-002     7.5632751817163446E-002
   3.4200000000000001E-002     7.6019340540745134E-002
   3.4500000000000003E-002     7.3011146775898247E-002
   3.4799999999999998E-002     6.5956393709531783E-002
   3.5099999999999999E-002     5.4342172164054119E-002
   3.5400000000000001E-002     3.7864572915160190E-002
   3.5699999999999996E-002     1.6496399433506150E-002
   3.6000000000000004E-002    -9.4563045559501093E-003
   3.6299999999999999E-002    -3.9300430216957373E-002
   3.6600000000000008E-002    -7.1942169034415943E-002
   3.6900000000000002E-002   -0.10591581861328490     
   3.7199999999999997E-002   -0.13944582365835026     
   3.7500000000000006E-002   -0.17054319207154825     
   3.7800000000000000E-002   -0.19713111173920964     
   3.8100000000000009E-002   -0.21720923583346055     
   3.8400000000000004E-002   -0.22902852558698369     
   3.8699999999999998E-002   -0.23126815688078886     
   3.9000000000000007E-002   -0.22318409973080541     
   3.9300000000000002E-002   -0.20472124953304180     
   3.9600000000000003E-002   -0.17657200353947311     
   3.9900000000000005E-002   -0.14019186238058487     
   4.0200000000000000E-002    -9.7739192129267558E-002
   4.0500000000000001E-002    -5.1957169855726237E-002
   4.0800000000000003E-002    -5.9674165247825938E-003
   4.1100000000000005E-002     3.6950200252233972E-002
   4.1399999999999999E-002     7.3573441213746205E-002
   4.1700000000000008E-002    0.10098943380605108     
   4.2000000000000003E-002    0.11684174554602580     
   4.2299999999999997E-002    0.11953132525020632     
   4.2600000000000006E-002    0.10832326987649110     
   4.2900000000000001E-002     8.3429004437045193E-002
   4.3200000000000002E-002     4.6030585793908035E-002
   4.3500000000000004E-002    -1.7718637403055322E-003
   4.3799999999999999E-002    -5.7095077327239514E-002
   4.4100000000000000E-002   -0.11642971627788959     
   4.4400000000000002E-002   -0.17583189141809855     
   4.4700000000000004E-002   -0.23117453613187569     
   4.4999999999999998E-002   -0.27839290416247464     
   4.5300000000000000E-002   -0.31370725629797025     
   4.5600000000000002E-002   -0.33386522031717020     
   4.5899999999999996E-002   -0.33637249076515041     
   4.6200000000000005E-002   -0.31967767786364348     
   4.6500000000000000E-002   -0.28327086380729050     
   4.6799999999999994E-002   -0.22776646812139734     
   4.7100000000000003E-002   -0.15493549377947793     
   4.7399999999999998E-002    -6.7668169985036622E-002
   4.7700000000000006E-002     3.0147961678410041E-002
   4.8000000000000001E-002    0.13382215721838414     
   4.8300000000000010E-002    0.23814095478515937     
   4.8600000000000004E-002    0.33762079407678880     
   4.8899999999999999E-002    0.42680847591433574     
   4.9200000000000008E-002    0.50068581071234042     
   4.9500000000000002E-002    0.55500602709203783     
   4.9800000000000011E-002    0.58656203750262093     
   5.0100000000000006E-002    0.59341096892403511     
   5.0400000000000000E-002    0.57507282514037794     
   5.0700000000000009E-002    0.53263878837961076     
   5.1000000000000004E-002    0.46875092392348600     
   5.1299999999999998E-002    0.38746994721593708     
   5.1600000000000007E-002    0.29404807056573440     
   5.1900000000000002E-002    0.19467827619141151     
   5.2200000000000010E-002     9.6183880318124623E-002
   5.2500000000000005E-002     5.5335581419548221E-003
   5.2800000000000000E-002    -7.0610017919484902E-002
   5.3099999999999994E-002   -0.12626449914905299     
   5.3400000000000003E-002   -0.15652342303212130     
   5.3699999999999998E-002   -0.15796177255372490     
   5.4000000000000006E-002   -0.12896280150227363     
   5.4300000000000001E-002    -6.9835589754550453E-002
   5.4599999999999996E-002     1.7064022639094716E-002
   5.4900000000000004E-002    0.12735921073805215     
   5.5199999999999999E-002    0.25485697371423061     
   5.5499999999999994E-002    0.39182040141513969     
   5.5800000000000002E-002    0.52935642121773818     
   5.6099999999999997E-002    0.65794128373797678     
   5.6400000000000006E-002    0.76800716194421248     
   5.6700000000000000E-002    0.85052991256600274     
   5.6999999999999995E-002    0.89758515763397306     
   5.7300000000000004E-002    0.90292883372200783     
   5.7599999999999998E-002    0.86246175054517304     
   5.7900000000000007E-002    0.77456784732460293     
   5.8200000000000002E-002    0.64028472168381945     
   5.8499999999999996E-002    0.46326727082827640     
   5.8800000000000005E-002    0.24965693385757701     
   5.9100000000000000E-002     7.8139327777036593E-003
   5.9400000000000008E-002   -0.25216275350484402     
   5.9700000000000003E-002   -0.51909416949322118     
   6.0000000000000012E-002   -0.78136825740939120     
   6.0300000000000006E-002    -1.0274462732068599     
   6.0600000000000001E-002    -1.2465444848838316     
   6.0900000000000010E-002    -1.4292771873711070     
   6.1200000000000004E-002    -1.5680900879096269     
   6.1500000000000013E-002    -1.6575046851293254     
   6.1800000000000008E-002    -1.6943054276305562     
   6.2100000000000002E-002    -1.6776151734510811     
   6.2399999999999997E-002    -1.6088093593793786     
   6.2700000000000006E-002    -1.4913072654840613     
   6.3000000000000000E-002    -1.3302608788801966     
   6.3300000000000009E-002    -1.1322315981335651     
   6.3600000000000004E-002   -0.90487110997803277     
   6.3899999999999998E-002   -0.65662396211890606     
   6.4199999999999993E-002   -0.39636013041437834     
   6.4500000000000002E-002   -0.13303743307841998     
   6.4800000000000010E-002    0.12450517079201183     
   6.5100000000000005E-002    0.36775082561917694     
   6.5400000000000000E-002    0.58870297969098317     
   6.5700000000000008E-002    0.78014880787479834     
   6.5999999999999989E-002    0.93597466171894372     
   6.6299999999999998E-002     1.0512285277101165     
   6.6600000000000006E-002     1.1223073050847834     
   6.6900000000000001E-002     1.1473031087807612     
   6.7199999999999996E-002     1.1262476484489616     
   6.7500000000000004E-002     1.0611189638326683     
   6.7800000000000013E-002    0.95584172280405433     
   6.8099999999999994E-002    0.81635135592536723     
   6.8400000000000002E-002    0.65045005162005154     
   6.8700000000000011E-002    0.46741777628680337     
   6.8999999999999992E-002    0.27757251123340609     
   6.9300000000000000E-002     9.1710043504514296E-002
   6.9600000000000009E-002    -7.9555909684942278E-002
   6.9900000000000004E-002   -0.22643694683641624     
   7.0199999999999999E-002   -0.34063327757958728     
   7.0500000000000007E-002   -0.41607499581834329     
   7.0800000000000016E-002   -0.44949391923249593     
   7.1099999999999997E-002   -0.44069254780795247     
   7.1400000000000005E-002   -0.39264673286982055     
   7.1700000000000000E-002   -0.31151449855273650     
   7.1999999999999995E-002   -0.20639522409816713     
   7.2300000000000003E-002    -8.8746337898285288E-002
   7.2600000000000012E-002     2.8500529941785622E-002
   7.2900000000000006E-002    0.13192905920978076     
   7.3200000000000001E-002    0.20862845160366908     
   7.3499999999999996E-002    0.24727874192379790     
   7.3800000000000004E-002    0.23929306146171092     
   7.4099999999999999E-002    0.17986377399793296     
   7.4400000000000008E-002     6.8553239832340865E-002
   7.4700000000000003E-002    -9.0413622249228442E-002
   7.5000000000000011E-002   -0.28807454607780314     
   7.5299999999999992E-002   -0.51109110736179564     
   7.5600000000000001E-002   -0.74266445216357735     
   7.5900000000000009E-002   -0.96377014868537336     
   7.6200000000000004E-002    -1.1545444721177063     
   7.6499999999999999E-002    -1.2958807958570004     
   7.6800000000000007E-002    -1.3711323769858883     
   7.7099999999999988E-002    -1.3676071215572847     
   7.7399999999999997E-002    -1.2777946058224507     
   7.7700000000000005E-002    -1.1001147105933291     
   7.8000000000000014E-002   -0.83929825648897871     
   7.8299999999999995E-002   -0.50623024371433334     
   7.8600000000000003E-002   -0.11717343451286513     
   7.8900000000000012E-002    0.30744963048006702     
   7.9199999999999993E-002    0.74454551157720805     
   7.9500000000000001E-002     1.1700676610041429     
   7.9800000000000010E-002     1.5607570350218101     
   8.0100000000000018E-002     1.8959068011670079     
   8.0399999999999999E-002     2.1587896310640264     
   8.0700000000000008E-002     2.3376076196875308     
   8.1000000000000003E-002     2.4259865270936940     
   8.1299999999999997E-002     2.4230959413588766     
   8.1600000000000006E-002     2.3333001145633068     
   8.1900000000000014E-002     2.1653728504158276     
   8.2199999999999995E-002     1.9313144712746229     
   8.2500000000000004E-002     1.6450718680109107     
   8.2799999999999999E-002     1.3213754941579259     
   8.3100000000000007E-002    0.97463948136553458     
   8.3400000000000002E-002    0.61793137313174684     
   8.3700000000000011E-002    0.26226941587007974     
   8.4000000000000005E-002    -8.3629442084262026E-002
   8.4300000000000000E-002   -0.41312258351236281     
   8.4599999999999995E-002   -0.72144179339594483     
   8.4900000000000003E-002    -1.0052875151353575     
   8.5199999999999998E-002    -1.2621565921392075     
   8.5500000000000007E-002    -1.4895462850916801     
   8.5800000000000001E-002    -1.6844127041336259     
   8.6100000000000010E-002    -1.8429938425989756     
   8.6399999999999991E-002    -1.9606703405664641     
   8.6699999999999999E-002    -2.0319595244365449     
   8.7000000000000008E-002    -2.0509390767215394     
   8.7300000000000003E-002    -2.0120294065484754     
   8.7599999999999997E-002    -1.9106013786757805     
   8.7900000000000006E-002    -1.7437286433260111     
   8.8200000000000014E-002    -1.5111774308756276     
   8.8499999999999995E-002    -1.2160695939140156     
   8.8800000000000004E-002   -0.86511727080832657     
   8.9100000000000013E-002   -0.46878983834088128     
   8.9399999999999993E-002    -4.1226758534813876E-002
   8.9700000000000002E-002    0.40014949766127805     
   9.0000000000000011E-002    0.83566883513491030     
   9.0299999999999991E-002     1.2446329338152557     
   9.0600000000000000E-002     1.6064548261834919     
   9.0900000000000009E-002     1.9019100472496933     
   9.1200000000000017E-002     2.1145989748682972     
   9.1499999999999998E-002     2.2322924045632724     
   9.1800000000000007E-002     2.2478427853782623     
   9.2100000000000001E-002     2.1596207643873764     
   9.2399999999999996E-002     1.9716974577125557     
   9.2700000000000005E-002     1.6937312016868575     
   9.3000000000000013E-002     1.3404177596183799     
   9.3300000000000008E-002    0.93025644610196023     
   9.3600000000000003E-002    0.48409902219253020     
   9.3899999999999997E-002     2.3900815997131290E-002
   9.4200000000000006E-002   -0.42855755302810827     
   9.4500000000000001E-002   -0.85324917185799176     
   9.4800000000000009E-002    -1.2333364303231129     
   9.5100000000000004E-002    -1.5557178100229008     
   9.5399999999999999E-002    -1.8112962114886608     
   9.5699999999999993E-002    -1.9952547448115472     
   9.6000000000000002E-002    -2.1069347785002637     
   9.6300000000000011E-002    -2.1491358234018390     
   9.6600000000000005E-002    -2.1271333673977177     
   9.6900000000000000E-002    -2.0478661064261652     
   9.7200000000000009E-002    -1.9193415668984066     
   9.7499999999999989E-002    -1.7497515727820452     
   9.7799999999999998E-002    -1.5466581654021865     
   9.8100000000000007E-002    -1.3166710231063843     
   9.8400000000000015E-002    -1.0655386562722451     
   9.8699999999999996E-002   -0.79820503171095103     
   9.9000000000000005E-002   -0.51891572860099611     
   9.9300000000000013E-002   -0.23152677998366811     
   9.9599999999999994E-002     5.9858038198006773E-002
   9.9900000000000003E-002    0.35052833868043914     
  0.10020000000000001         0.63497678282585768     
  0.10049999999999999         0.90679995063289875     
  0.10080000000000000          1.1584927829995915     
  0.10110000000000001          1.3815424254855528     
  0.10140000000000000          1.5669973929956331     
  0.10170000000000000          1.7060921072121700     
  0.10200000000000001          1.7905884908738137     
  0.10230000000000002          1.8133637887913212     
  0.10260000000000000          1.7693781895843503     
  0.10290000000000001          1.6563593254145730     
  0.10320000000000000          1.4751460716808245     
  0.10350000000000001          1.2301818350671239     
  0.10380000000000000         0.92983874318354265     
  0.10410000000000001         0.58635070859751037     
  0.10440000000000001         0.21519135018329480     
  0.10470000000000000        -0.16538263808510212     
  0.10500000000000000        -0.53488949100581595     
  0.10530000000000000        -0.87204841317356263     
  0.10560000000000000         -1.1563895748191324     
  0.10590000000000001         -1.3691689836696690     
  0.10620000000000000         -1.4944077665526929     
  0.10650000000000001         -1.5205682518986683     
  0.10679999999999999         -1.4416674441020016     
  0.10710000000000000         -1.2575150846368046     
  0.10740000000000001        -0.97384370948842380     
  0.10770000000000000        -0.60253079557593003     
  0.10800000000000000        -0.16119660819132611     
  0.10830000000000001         0.32788942492749001     
  0.10859999999999999         0.83910380326380085     
  0.10890000000000000          1.3445647850242208     
  0.10920000000000001          1.8154288478042193     
  0.10950000000000001          2.2233309752610970     
  0.10979999999999999          2.5420634814971912     
  0.11009999999999999          2.7489557393827777     
  0.11040000000000001          2.8257537067978942     
  0.11070000000000001          2.7595460636797968     
  0.11100000000000000          2.5439994585877890     
  0.11130000000000000          2.1800663734497592     
  0.11160000000000002          1.6761338968571675     
  0.11190000000000001          1.0482652421083760     
  0.11220000000000001         0.32020418770388226     
  0.11250000000000000        -0.47704439037076191     
  0.11280000000000000         -1.3062153997750174     
  0.11309999999999999         -2.1253445178219015     
  0.11340000000000001         -2.8895282868843735     
  0.11369999999999998         -3.5531046609851384     
  0.11400000000000000         -4.0725212408955720     
  0.11430000000000000         -4.4094157613456391     
  0.11460000000000002         -4.5335059627179159     
  0.11489999999999999         -4.4252868205044011     
  0.11520000000000001         -4.0782928992513643     
  0.11550000000000001         -3.5007362882060473     
  0.11580000000000000         -2.7160702229003171     
  0.11609999999999999         -1.7624122314124770     
  0.11640000000000002        -0.69082555363364939     
  0.11670000000000001         0.43762702689416438     
  0.11700000000000001          1.5557892243813392     
  0.11730000000000000          2.5947940400728484     
  0.11760000000000000          3.4890768705228594     
  0.11789999999999999          4.1815219216320285     
  0.11820000000000001          4.6276922610267635     
  0.11850000000000001          4.7990994905980768     
  0.11880000000000000          4.6858749881845387     
  0.11910000000000000          4.2977819944265621     
  0.11940000000000002          3.6631770615504222     
  0.11970000000000001          2.8268773991797564     
  0.12000000000000001          1.8472327363951973     
  0.12030000000000000         0.79169115330680950     
  0.12060000000000000        -0.26867110530334587     
  0.12089999999999999         -1.2641487014460349     
  0.12119999999999999         -2.1310355643651251     
  0.12150000000000001         -2.8161008417382991     
  0.12180000000000001         -3.2803249485337096     
  0.12210000000000000         -3.5010614573347580     
  0.12239999999999999         -3.4730668281966390     
  0.12270000000000002         -3.2082486386378770     
  0.12300000000000001         -2.7344215154451308     
  0.12330000000000001         -2.0929537048630511     
  0.12360000000000000         -1.3354101389700295     
  0.12390000000000000        -0.51965941792912895     
  0.12419999999999999         0.29425855020651442     
  0.12450000000000001          1.0481921325335246     
  0.12480000000000001          1.6897528096901711     
  0.12509999999999999          2.1759226276783985     
  0.12540000000000001          2.4756259893205788     
  0.12570000000000003          2.5713484271329734     
  0.12600000000000000          2.4600491504207960     
  0.12630000000000002          2.1527950727626153     
  0.12659999999999999          1.6735280687898173     
  0.12690000000000001          1.0570528405711577     
  0.12719999999999998         0.34596411941168398     
  0.12750000000000000        -0.41246901798330066     
  0.12780000000000002         -1.1693780638478655     
  0.12809999999999999         -1.8775941368870761     
  0.12840000000000001         -2.4947383638813272     
  0.12869999999999998         -2.9853997441119704     
  0.12900000000000000         -3.3225255172473172     
  0.12930000000000003         -3.4883592212797376     
  0.12959999999999999         -3.4749417290902076     
  0.12990000000000002         -3.2838585247570369     
  0.13019999999999998         -2.9253878340039949     
  0.13050000000000000         -2.4174913982734627     
  0.13080000000000003         -1.7847938046674487     
  0.13109999999999999         -1.0575210463235694     
  0.13140000000000002        -0.27022483390414381     
  0.13169999999999998         0.53968066866040554     
  0.13200000000000001          1.3333290305013703     
  0.13229999999999997          2.0715773747846811     
  0.13260000000000000          2.7167943093955924     
  0.13290000000000002          3.2351179593551920     
  0.13319999999999999          3.5983100289181329     
  0.13350000000000001          3.7857072575947162     
  0.13380000000000003          3.7862429711784400     
  0.13410000000000000          3.6001236410370434     
  0.13440000000000002          3.2396454677202629     
  0.13469999999999999          2.7292849799598913     
  0.13500000000000001          2.1049079617518163     
  0.13529999999999998          1.4117792532689812     
  0.13560000000000000         0.70131578788295035     
  0.13590000000000002          2.7330385688677305E-002
  0.13619999999999999        -0.55831494872856458     
  0.13650000000000001         -1.0106665158652468     
  0.13680000000000003         -1.2959615224133474     
  0.13710000000000000         -1.3952591625876332     
  0.13740000000000002         -1.3068969441482028     
  0.13769999999999999         -1.0474846554147814     
  0.13800000000000001        -0.65125449574860383     
  0.13829999999999998        -0.16752011463441210     
  0.13860000000000000         0.34343436533991600     
  0.13890000000000002         0.81565609220391988     
  0.13919999999999999          1.1835302916960215     
  0.13950000000000001          1.3879895959659885     
  0.13979999999999998          1.3825350513643706     
  0.14010000000000000          1.1381386004343568     
  0.14040000000000002         0.64658928662072235     
  0.14069999999999999         -7.7726444477548395E-002
  0.14100000000000001        -0.99796103117857582     
  0.14130000000000004         -2.0571635170005664     
  0.14160000000000000         -3.1821484882134565     
  0.14189999999999997         -4.2889709690203137     
  0.14219999999999999         -5.2896247020039899     
  0.14250000000000002         -6.0985903740387712     
  0.14279999999999998         -6.6394081012931725     
  0.14310000000000000         -6.8516187474505541     
  0.14339999999999997         -6.6959404677820533     
  0.14369999999999999         -6.1570329343690666     
  0.14400000000000002         -5.2451161983005310     
  0.14429999999999998         -3.9967269530921388     
  0.14460000000000001         -2.4725453493310434     
  0.14490000000000003        -0.75235440905567930     
  0.14520000000000000          1.0701968979347454     
  0.14550000000000002          2.8932609831826421     
  0.14579999999999999          4.6145391702559486     
  0.14610000000000001          6.1387090889799918     
  0.14640000000000003          7.3836231413878002     
  0.14670000000000000          8.2857542204758268     
  0.14699999999999996          8.8044271630216144     
  0.14729999999999999          8.9238176510446312     
  0.14760000000000001          8.6532077965572931     
  0.14789999999999998          8.0258445933119429     
  0.14820000000000000          7.0955076430134660     