  -1.4999999999999999E-002     0.0000000000000000     
  -1.4700000000000000E-002     0.0000000000000000     
  -1.4400000000000000E-002     0.0000000000000000     
  -1.4100000000000000E-002     0.0000000000000000     
  -1.3800000000000000E-002     2.3842281796194663E-036
  -1.3500000000000000E-002    -8.4300903477615458E-034
  -1.3200000000000000E-002    -3.2746591698235670E-031
  -1.2899999999999998E-002     2.1474489567568537E-031
  -1.2600000000000000E-002     1.1291055061816056E-028
  -1.2299999999999998E-002     3.3195373362105214E-028
  -1.2000000000000000E-002    -8.4551583363755133E-027
  -1.1699999999999999E-002    -5.7169570650557803E-026
  -1.1399999999999999E-002     8.0526823941835118E-025
  -1.1099999999999999E-002    -4.0083100495503581E-024
  -1.0799999999999999E-002     6.4531739316846290E-024
  -1.0499999999999999E-002     2.4543988390241554E-022
  -1.0199999999999999E-002    -2.7580392400507177E-021
  -9.8999999999999991E-003     1.1617070702205240E-020
  -9.5999999999999992E-003    -1.0063395950705447E-020
  -9.2999999999999992E-003    -1.1903042496038874E-019
  -8.9999999999999993E-003     7.2186680982080892E-019
  -8.6999999999999994E-003    -2.5030536468299844E-018
  -8.3999999999999995E-003     6.0683382628469316E-018
  -8.0999999999999996E-003    -9.1722263872056924E-018
  -7.7999999999999988E-003     3.6901151962634122E-018
  -7.4999999999999997E-003     1.9997209943356571E-017
  -7.1999999999999998E-003    -6.9204506504441955E-017
  -6.8999999999999981E-003     1.4221073168967529E-016
  -6.5999999999999982E-003    -1.4769035801208726E-016
  -6.3000000000000000E-003    -5.7954636926437812E-017
  -6.0000000000000001E-003    -1.0257323964333214E-016
  -5.6999999999999985E-003     2.7835424924898089E-015
  -5.3999999999999986E-003    -9.3958426070868995E-015
  -5.1000000000000004E-003     1.2260433614197237E-014
  -4.7999999999999987E-003     1.5816353696746434E-014
  -4.5000000000000005E-003    -1.1076982941841578E-013
  -4.1999999999999989E-003     2.4626988161138185E-013
  -3.8999999999999990E-003    -2.2942606319114809E-013
  -3.5999999999999990E-003    -2.5970301965480081E-013
  -3.2999999999999991E-003     1.2969209114457024E-012
  -2.9999999999999992E-003    -2.1583661738971453E-012
  -2.6999999999999993E-003     1.2928006111308435E-012
  -2.3999999999999994E-003     2.3415002557518006E-012
  -2.0999999999999977E-003    -7.0485136731991502E-012
  -1.7999999999999995E-003     7.8017287241003411E-012
  -1.4999999999999979E-003     2.4068814777604939E-013
  -1.1999999999999997E-003    -1.5152797450862056E-011
  -8.9999999999999976E-004     2.4841625701741978E-011
  -5.9999999999999810E-004    -1.4462645677624047E-011
  -2.9999999999999992E-004    -1.7126622814721823E-011
   0.0000000000000000          4.7706853286197249E-011
   3.0000000000000165E-004    -4.4320248432052043E-011
   5.9999999999999984E-004    -1.4395695210110312E-011
   9.0000000000000149E-004     1.5160661574420403E-010
   1.2000000000000031E-003    -4.1087590035428938E-010
   1.5000000000000013E-003     6.6103401774656920E-010
   1.8000000000000030E-003    -1.4728084043612017E-010
   2.1000000000000012E-003    -2.5076735340290773E-009
   2.3999999999999994E-003     7.9914568823664188E-009
   2.7000000000000010E-003    -1.2519547787956641E-008
   2.9999999999999992E-003    -2.1040289808796105E-009
   3.3000000000000008E-003     7.0455716286136499E-008
   3.6000000000000025E-003    -1.5194207308369175E-007
   3.9000000000000007E-003    -5.8716862935140823E-008
   4.2000000000000023E-003     7.6561914582533812E-007
   4.5000000000000005E-003    -5.7354650071446319E-007
   4.7999999999999987E-003    -2.6416781589441658E-006
   5.1000000000000004E-003     2.7519896211461941E-006
   5.4000000000000020E-003     8.0820293285014007E-006
   5.7000000000000037E-003    -6.8154575982857287E-006
   5.9999999999999984E-003    -2.3446288268311340E-005
   6.3000000000000000E-003     1.2097795903732748E-005
   6.6000000000000017E-003     9.9395985584244378E-005
   6.9000000000000034E-003     1.6782227164138276E-004
   7.2000000000000015E-003     1.9504649599602023E-004
   7.5000000000000032E-003     2.6583899698771722E-004
   7.8000000000000014E-003     4.6461261879353344E-004
   8.0999999999999996E-003     7.8047963509201776E-004
   8.4000000000000012E-003     1.1829474847307106E-003
   8.7000000000000029E-003     1.7481081052695413E-003
   9.0000000000000011E-003     2.6367293844499345E-003
   9.2999999999999992E-003     3.9729959996817332E-003
   9.6000000000000009E-003     5.8478766916316427E-003
   9.8999999999999991E-003     8.4591980255903643E-003
   1.0200000000000001E-002     1.2129522245308444E-002
   1.0500000000000002E-002     1.7159600674182873E-002
   1.0800000000000004E-002     2.3832027801184985E-002
   1.1099999999999999E-002     3.2578326597561769E-002
   1.1400000000000000E-002     4.3942523598171634E-002
   1.1700000000000002E-002     5.8367530903407738E-002
   1.2000000000000004E-002     7.6173424864089956E-002
   1.2300000000000002E-002     9.7692932450956782E-002
   1.2600000000000000E-002    0.12318355945155401     
   1.2900000000000002E-002    0.15252403388969693     
   1.3200000000000000E-002    0.18509722634541781     
   1.3500000000000002E-002    0.21987793291352453     
   1.3800000000000003E-002    0.25534975468640919     
   1.4100000000000001E-002    0.28922038094811597     
   1.4400000000000000E-002    0.31833648492575151     
   1.4700000000000001E-002    0.33886028646593580     
   1.4999999999999999E-002    0.34639695647734214     
   1.5300000000000001E-002    0.33600710102863651     
   1.5600000000000003E-002    0.30249289366289212     
   1.5899999999999997E-002    0.24101838456004776     
   1.6199999999999999E-002    0.14765454517900611     
   1.6500000000000001E-002     1.9727990587222077E-002
   1.6800000000000002E-002   -0.14370712655693563     
   1.7100000000000004E-002   -0.34106831804456661     
   1.7400000000000006E-002   -0.56760332890323539     
   1.7700000000000000E-002   -0.81539239385110562     
   1.8000000000000002E-002    -1.0735537185012873     
   1.8300000000000004E-002    -1.3282534360737586     
   1.8600000000000005E-002    -1.5632043109765803     
   1.8900000000000000E-002    -1.7608929934480528     
   1.9200000000000002E-002    -1.9038694450415150     
   1.9500000000000003E-002    -1.9758816153401071     
   1.9799999999999998E-002    -1.9633850459490674     
   2.0100000000000000E-002    -1.8571202242266338     
   2.0400000000000001E-002    -1.6533873699469410     
   2.0700000000000003E-002    -1.3545801241418367     
   2.0999999999999998E-002   -0.96950004307401549     
   2.1299999999999999E-002   -0.51354027804266966     
   2.1600000000000001E-002    -7.7982484622882708E-003
   2.1900000000000003E-002    0.52225365907483834     
   2.2200000000000004E-002     1.0482394520516038     
   2.2500000000000006E-002     1.5406893188702639     
   2.2800000000000001E-002     1.9709192008340040     
   2.3100000000000002E-002     2.3131730168776414     
   2.3400000000000004E-002     2.5462597434687382     
   2.3699999999999999E-002     2.6545530430585558     
   2.4000000000000000E-002     2.6290369007214593     
   2.4300000000000002E-002     2.4682227014352023     
   2.4599999999999997E-002     2.1780781565241512     
   2.4900000000000005E-002     1.7714547847515334     
   2.5200000000000000E-002     1.2677954592811025     
   2.5499999999999995E-002    0.69265261002630218     
   2.5800000000000003E-002     7.6531048357770359E-002
   2.6099999999999998E-002   -0.54661730041847889     
   2.6400000000000007E-002    -1.1407727856268295     
   2.6700000000000002E-002    -1.6687736579015819     
   2.6999999999999996E-002    -2.0944881222485847     
   2.7300000000000005E-002    -2.3849752518662797     
   2.7600000000000000E-002    -2.5118759734278910     
   2.7900000000000008E-002    -2.4534650825726771     
   2.8200000000000003E-002    -2.1968412608486609     
   2.8499999999999998E-002    -1.7392843368407700     
   2.8800000000000006E-002    -1.0888305308573507     
   2.9100000000000001E-002   -0.26494056165810775     
   2.9400000000000003E-002    0.70161651015374815     
   2.9700000000000004E-002     1.7701024536004084     
   3.0000000000000006E-002     2.8917524402939421     
   3.0300000000000001E-002     4.0120130803152563     
   3.0600000000000002E-002     5.0735477341361843     
   3.0900000000000004E-002     6.0196222072839305     
   3.1199999999999999E-002     6.7971896986570357     
   3.1500000000000007E-002     7.3596983628839610     
   3.1800000000000002E-002     7.6698553656950992     
   3.2099999999999997E-002     7.7011798868640824     
   3.2400000000000005E-002     7.4395045746976507     
   3.2700000000000000E-002     6.8840465155711286     
   3.3000000000000002E-002     6.0468309458129710     
   3.3300000000000003E-002     4.9519323585022477     
   3.3599999999999998E-002     3.6344932737937601     
   3.3900000000000000E-002     2.1391398013884100     
   3.4200000000000001E-002    0.51747509157922167     
   3.4500000000000003E-002    -1.1748477382728595     
   3.4799999999999998E-002    -2.8800055165741014     
   3.5099999999999999E-002    -4.5413478421823044     
   3.5400000000000001E-002    -6.1068590461919428     
   3.5699999999999996E-002    -7.5318284858225297     
   3.6000000000000004E-002    -8.7806639267018340     
   3.6299999999999999E-002    -9.8285777308982460     
   3.6600000000000008E-002    -10.662985689318646     
   3.6900000000000002E-002    -11.282536605456357     
   3.7199999999999997E-002    -11.695362651895380     
   3.7500000000000006E-002    -11.916509852239813     
   3.7800000000000000E-002    -11.964256714605938     
   3.8100000000000009E-002    -11.856522407075545     
   3.8400000000000004E-002    -11.606762367397948     
   3.8699999999999998E-002    -11.220470829988471     
   3.9000000000000007E-002    -10.693506863829981     
   3.9300000000000002E-002    -10.011876734773438     
   3.9600000000000003E-002    -9.1532922565789221     
   3.9900000000000005E-002    -8.0903310135888589     
   4.0200000000000000E-002    -6.7955948750462412     
   4.0500000000000001E-002    -5.2482781648412526     
   4.0800000000000003E-002    -3.4395418576280861     
   4.1100000000000005E-002    -1.3783887402818635     
   4.1399999999999999E-002    0.90378442729252484     
   4.1700000000000008E-002     3.3517972701098415     
   4.2000000000000003E-002     5.8871619871105736     
   4.2299999999999997E-002     8.4112056266141906     
   4.2600000000000006E-002     10.811326399504480     
   4.2900000000000001E-002     12.968727308498671     
   4.3200000000000002E-002     14.767565693182291     
   4.3500000000000004E-002     16.105056239813905     
   4.3799999999999999E-002     16.899368190339089     
   4.4100000000000000E-002     17.097326521601076     
   4.4400000000000002E-002     16.679783892173930     
   4.4700000000000004E-002     15.663237722304160     
   4.4999999999999998E-002     14.099628607661927     
   4.5300000000000000E-002     12.073167193766707     
   4.5600000000000002E-002     9.6942324041581109     
   4.5899999999999996E-002     7.0921568360408997     
   4.6200000000000005E-002     4.4058744503892342     
   4.6500000000000000E-002     1.7748334755792001     
   4.6799999999999994E-002   -0.66977191653107226     
   4.7100000000000003E-002    -2.8137336677133931     
   4.7399999999999998E-002    -4.5649734861701461     
   4.7700000000000006E-002    -5.8596864734359997     
   4.8000000000000001E-002    -6.6661823380902945     
   4.8300000000000010E-002    -6.9821888433627350     
   4.8600000000000004E-002    -6.8354768327975748     
   4.8899999999999999E-002    -6.2814112268392375     
   4.9200000000000008E-002    -5.3952648199103130     
   4.9500000000000002E-002    -4.2671944813650384     
   4.9800000000000011E-002    -2.9954387876830282     
   5.0100000000000006E-002    -1.6794803670741203     
   5.0400000000000000E-002   -0.41264433571175374     
   5.0700000000000009E-002    0.72465040624497234     
   5.1000000000000004E-002     1.6676239105245756     
   5.1299999999999998E-002     2.3716391449793406     
   5.1600000000000007E-002     2.8143788337381750     
   5.1900000000000002E-002     2.9931476351918391     
   5.2200000000000010E-002     2.9244042713544260     
   5.2500000000000005E-002     2.6419179415163185     
   5.2800000000000000E-002     2.1901928238820503     
   5.3099999999999994E-002     1.6203285093067201     
   5.3400000000000003E-002    0.98622055905127226     
   5.3699999999999998E-002    0.33899679805672278     
   5.4000000000000006E-002   -0.27639524135162929     
   5.4300000000000001E-002   -0.82468618128515914     
   5.4599999999999996E-002    -1.2814005634746266     
   5.4900000000000004E-002    -1.6332427403831886     
   5.5199999999999999E-002    -1.8800005022919777     
   5.5499999999999994E-002    -2.0310758547320802     
   5.5800000000000002E-002    -2.1043287478678678     
   5.6099999999999997E-002    -2.1258602228990213     
   5.6400000000000006E-002    -2.1243654191574706     
   5.6700000000000000E-002    -2.1304873694821822     
   5.6999999999999995E-002    -2.1745646092209512     
   5.7300000000000004E-002    -2.2825449297024107     
   5.7599999999999998E-002    -2.4752682529103680     
   5.7900000000000007E-002    -2.7652821855713654     
   5.8200000000000002E-002    -3.1559575669036946     
   5.8499999999999996E-002    -3.6418447589338570     
   5.8800000000000005E-002    -4.2067235043767397     
   5.9100000000000000E-002    -4.8257493919527121     
   5.9400000000000008E-002    -5.4685214221700278     
   5.9700000000000003E-002    -6.1012390994086729     
   6.0000000000000012E-002    -6.6909487300841590     
   6.0300000000000006E-002    -7.2094150067405565     
   6.0600000000000001E-002    -7.6369974156083344     
   6.0900000000000010E-002    -7.9664040366063489     
   6.1200000000000004E-002    -8.2019805303844180     
   6.1500000000000013E-002    -8.3584851424583917     
   6.1800000000000008E-002    -8.4597209377752165     
   6.2100000000000002E-002    -8.5297987900730163     
   6.2399999999999997E-002    -8.5857705715947645     
   6.2700000000000006E-002    -8.6316097608229256     
   6.3000000000000000E-002    -8.6473463129155164     
   6.3300000000000009E-002    -8.5847708445675082     
   6.3600000000000004E-002    -8.3656960596909613     
   6.3899999999999998E-002    -7.8831754985255031     
   6.4199999999999993E-002    -7.0106288609176204     
   6.4500000000000002E-002    -5.6127308475037978     
   6.4800000000000010E-002    -3.5635218188808153     
   6.5100000000000005E-002   -0.76631045694118427     
   6.5400000000000000E-002     2.8294814315783681     
   6.5700000000000008E-002     7.2075544267903666     
   6.5999999999999989E-002     12.271637492249425     
   6.6299999999999998E-002     17.843127845032711     
   6.6600000000000006E-002     23.659577061325649     
   6.6900000000000001E-002     29.387676417396619     
   6.7199999999999996E-002     34.645269879223406     
   6.7500000000000004E-002     39.027617003850764     
   6.7800000000000013E-002     42.141603305803187     
   6.8099999999999994E-002     43.641007642220131     
   6.8400000000000002E-002     43.259860403950171     
   6.8700000000000011E-002     40.842472485848873     
   6.8999999999999992E-002     36.362363810012084     
   6.9300000000000000E-002     29.934411041493831     
   6.9600000000000009E-002     21.813893460783902     
   6.9900000000000004E-002     12.379451779764281     
   7.0199999999999999E-002     2.1106456242264926     
   7.0500000000000007E-002    -8.4441710779478925     
   7.0800000000000016E-002    -18.711168183651409     
   7.1099999999999997E-002    -28.131296355457039     
   7.1400000000000005E-002    -36.199760437050713     
   7.1700000000000000E-002    -42.504256776595412     
   7.1999999999999995E-002    -46.750056844698292     
   7.2300000000000003E-002    -48.778173581524243     
   7.2600000000000012E-002    -48.572564190248045     
   7.2900000000000006E-002    -46.251900222738499     
   7.3200000000000001E-002    -42.056444806380398     
   7.3499999999999996E-002    -36.323074395647382     
   7.3800000000000004E-002    -29.455583450170650     
   7.4099999999999999E-002    -21.893900112530503     
   7.4400000000000008E-002    -14.079087087123412     
   7.4700000000000003E-002    -6.4255925749594098     
   7.5000000000000011E-002    0.70029411577800715     
   7.5299999999999992E-002     7.0030122701023032     
   7.5600000000000001E-002     12.266621982125116     
   7.5900000000000009E-002     16.357234401595292     
   7.6200000000000004E-002     19.222627705604793     
   7.6499999999999999E-002     20.884478280215035     
   7.6800000000000007E-002     21.426991681350273     
   7.7099999999999988E-002     20.982449469254846     
   7.7399999999999997E-002     19.716180208310178     
   7.7700000000000005E-002     17.815380720619430     
   7.8000000000000014E-002     15.472583539043775     
   7.8299999999999995E-002     12.872579950366713     
   7.8600000000000003E-002     10.188638111807201     
   7.8900000000000012E-002     7.5713444060663946     
   7.9199999999999993E-002     5.1406230456746229     
   7.9500000000000001E-002     2.9893022338877984     
   7.9800000000000010E-002     1.1794200192207285     
   8.0100000000000018E-002   -0.25895331054493198     
   8.0399999999999999E-002    -1.3225711985054005     
   8.0700000000000008E-002    -2.0321683077827100     
   8.1000000000000003E-002    -2.4258636369468665     
   8.1299999999999997E-002    -2.5564102918933465     
   8.1600000000000006E-002    -2.4846780690497194     
   8.1900000000000014E-002    -2.2697449510107770     
   8.2199999999999995E-002    -1.9704684774096641     
   8.2500000000000004E-002    -1.6384872399142063     
   8.2799999999999999E-002    -1.3119841301216080     
   8.3100000000000007E-002    -1.0207500133440142     
   8.3400000000000002E-002   -0.78278237567118558     
   8.3700000000000011E-002   -0.60364736475728442     
   8.4000000000000005E-002   -0.48195563065042801     
   8.4300000000000000E-002   -0.41032691010613398     
   8.4599999999999995E-002   -0.37877296816073880     
   8.4900000000000003E-002   -0.37483709285121414     
   8.5199999999999998E-002   -0.38680013271094538     
   8.5500000000000007E-002   -0.40721732428916724     
   8.5800000000000001E-002   -0.42977857703269251     
   8.6100000000000010E-002   -0.44906476997061340     
   8.6399999999999991E-002   -0.46305446371005132     
   8.6699999999999999E-002   -0.47159081000464553     
   8.7000000000000008E-002   -0.47354355172633689     
   8.7300000000000003E-002   -0.46874695307548109     
   8.7599999999999997E-002   -0.45716768278061171     
   8.7900000000000006E-002   -0.43801924000532999     
   8.8200000000000014E-002   -0.41252765464608698     
   8.8499999999999995E-002   -0.38108252429089262     
   8.8800000000000004E-002   -0.34529674474048910     
   8.9100000000000013E-002   -0.30838221894930484     
   8.9399999999999993E-002   -0.27290309474695551     
   8.9700000000000002E-002   -0.24335313018654858     
   9.0000000000000011E-002   -0.22291765417582088     
   9.0299999999999991E-002   -0.21312751630226767     
   9.0600000000000000E-002   -0.21550640937703047     
   9.0900000000000009E-002   -0.22810883866567089     
   9.1200000000000017E-002   -0.24786924662952625     
   9.1499999999999998E-002   -0.27097513460260370     
   9.1800000000000007E-002   -0.29171956313266012     
   9.2100000000000001E-002   -0.30453793546220087     
   9.2399999999999996E-002   -0.30495581185804177     
   9.2700000000000005E-002   -0.29046378581511512     
   9.3000000000000013E-002   -0.26047606187026551     
   9.3300000000000008E-002   -0.21642939031989883     
   9.3600000000000003E-002   -0.16189523977119835     
   9.3899999999999997E-002   -0.10228566570825737     
   9.4200000000000006E-002    -4.3237888263801816E-002
   9.4500000000000001E-002     1.0007741449206464E-002
   9.4800000000000009E-002     5.2427264040878663E-002
   9.5100000000000004E-002     8.1510443799747090E-002
   9.5399999999999999E-002     9.6683588837954026E-002
   9.5699999999999993E-002     9.8486652344481174E-002
   9.6000000000000002E-002     9.0322934800564081E-002
   9.6300000000000011E-002     7.6027209743597002E-002
   9.6600000000000005E-002     5.8871315695113502E-002
   9.6900000000000000E-002     4.3112145985361838E-002
   9.7200000000000009E-002     3.1373248088928052E-002
   9.7499999999999989E-002     2.5012296060328398E-002
   9.7799999999999998E-002     2.4056690468642450E-002
   9.8100000000000007E-002     2.7102153360029746E-002
   9.8400000000000015E-002     3.2985202251929913E-002
   9.8699999999999996E-002     3.9259001742942556E-002
   9.9000000000000005E-002     4.3598986633705317E-002
   9.9300000000000013E-002     4.5838578837145039E-002
   9.9599999999999994E-002     4.5719025302888738E-002
   9.9900000000000003E-002     4.3710359382706176E-002
  0.10020000000000001          4.2220097642968746E-002
  0.10049999999999999          4.3539246590196035E-002
  0.10080000000000000          4.9285749456521755E-002
  0.10110000000000001          6.0965076773340288E-002
  0.10140000000000000          7.9266824703141836E-002
  0.10170000000000000         0.10309957300884376     
  0.10200000000000001         0.12974204118705313     
  0.10230000000000002         0.15519116187125515     
  0.10260000000000000         0.17530159165681325     
  0.10290000000000001         0.18552576973954693     
  0.10320000000000000         0.18161890774388079     
  0.10350000000000001         0.16221742195973121     
  0.10380000000000000         0.12678727252425448     
  0.10410000000000001          7.7463744220037212E-002
  0.10440000000000001          1.9707986614485251E-002
  0.10470000000000000         -4.0278977481619557E-002
  0.10500000000000000         -9.4937052142508360E-002
  0.10530000000000000        -0.13628776431448753     
  0.10560000000000000        -0.15773457351090503     
  0.10590000000000001        -0.15524638412413161     
  0.10620000000000000        -0.12773316243801247     
  0.10650000000000001         -7.7554231228599502E-002
  0.10679999999999999         -1.0713897331608102E-002
  0.10710000000000000          6.4243515571447474E-002
  0.10740000000000001         0.13651800063417729     
  0.10770000000000000         0.19541998917683934     
  0.10800000000000000         0.23165079904925800     
  0.10830000000000001         0.23822664436321794     
  0.10859999999999999         0.21345552149542080     
  0.10890000000000000         0.15857414922293778     
  0.10920000000000001          8.0480229107933177E-002
  0.10950000000000001         -9.2984522227699262E-003
  0.10979999999999999         -9.8994912650429256E-002
  0.11009999999999999        -0.17446930339222044     
  0.11040000000000001        -0.22287777633485728     
  0.11070000000000001        -0.23624869631119516     
  0.11100000000000000        -0.21091410625664331     
  0.11130000000000000        -0.14964695772332970     
  0.11160000000000002         -6.0816853919657743E-002
  0.11190000000000001          4.1542058352741051E-002
  0.11220000000000001         0.13888854673883888     
  0.11250000000000000         0.21325070294862236     
  0.11280000000000000         0.24796319441271564     
  0.11309999999999999         0.22936924767434697     
  0.11340000000000001         0.15205571296353071     
  0.11369999999999998          1.9492525916949610E-002
  0.11400000000000000        -0.15678066399884782     
  0.11430000000000000        -0.35644195693541558     
  0.11460000000000002        -0.55334843083774388     
  0.11489999999999999        -0.71785889573819617     
  0.11520000000000001        -0.82028926082969633     
  0.11550000000000001        -0.83712438912346698     
  0.11580000000000000        -0.75209002690839100     
  0.11609999999999999        -0.55949302081634400     
  0.11640000000000002        -0.26843470540439185     
  0.11670000000000001         0.10092428378581353     
  0.11700000000000001         0.51724301415897145     
  0.11730000000000000         0.93914666879788911     
  0.11760000000000000          1.3229067088611828     
  0.11789999999999999          1.6256088769713619     
  0.11820000000000001          1.8099015174757405     
  0.11850000000000001          1.8487619582396988     
  0.11880000000000000          1.7280927836857884     
  0.11910000000000000          1.4508259144436053     
  0.11940000000000002          1.0343105806183246     
  0.11970000000000001         0.50856115665491330     
  0.12000000000000001         -8.3015534660820123E-002
  0.12030000000000000        -0.69196390773872452     
  0.12060000000000000         -1.2692576705675691     
  0.12089999999999999         -1.7668424871492476     
  0.12119999999999999         -2.1450289890200587     
  0.12150000000000001         -2.3763566556840239     
  0.12180000000000001         -2.4449007658947099     
  0.12210000000000000         -2.3484655927243594     
  0.12239999999999999         -2.0988984375920836     
  0.12270000000000002         -1.7196098587468995     
  0.12300000000000001         -1.2427771614089878     
  0.12330000000000001        -0.70457376204776523     
  0.12360000000000000        -0.14433134095692779     
  0.12390000000000000         0.39868674360991241     
  0.12419999999999999         0.89198963871860926     
  0.12450000000000001          1.3074800408711980     
  0.12480000000000001          1.6243493951741677     
  0.12509999999999999          1.8317065341611531     
  0.12540000000000001          1.9247262464380039     
  0.12570000000000003          1.9073191943253911     
  0.12600000000000000          1.7900120952802112     
  0.12630000000000002          1.5870766287153497     
  0.12659999999999999          1.3180290899387188     
  0.12690000000000001          1.0034639708486353     
  0.12719999999999998         0.66449520937458217     
  0.12750000000000000         0.32276834064269266     
  0.12780000000000002         -2.4216071379541404E-003
  0.12809999999999999        -0.29484276757477779     
  0.12840000000000001        -0.54100647815362457     
  0.12869999999999998        -0.73176344063309884     
  0.12900000000000000        -0.86171830719927378     
  0.12930000000000003        -0.92976542323308387     
  0.12959999999999999        -0.94042819621745188     
  0.12990000000000002        -0.89896459260528028     
  0.13019999999999998        -0.81388975257671614     
  0.13050000000000000        -0.69817555328976622     
  0.13080000000000003        -0.56288929288839595     
  0.13109999999999999        -0.41951804920520575     
  0.13140000000000002        -0.27920334311727490     
  0.13169999999999998        -0.15015500308326457     
  0.13200000000000001         -4.0003304649266269E-002
  0.13229999999999997          4.8412323503235433E-002
  0.13260000000000000         0.11369449668119747     
  0.13290000000000002         0.15539494418730770     
  0.13319999999999999         0.17777057432458587     
  0.13350000000000001         0.18393642882379480     
  0.13380000000000003         0.17729622189909389     
  0.13410000000000000         0.16325228494213606     
  0.13440000000000002         0.14502466372431178     
  0.13469999999999999         0.12503399100456303     
  0.13500000000000001         0.10512609532658623     
  0.13529999999999998          8.6281905604868259E-002
  0.13560000000000000          6.9535791636597510E-002
  0.13590000000000002          5.4191825921623527E-002
  0.13619999999999999          3.9937303549382186E-002
  0.13650000000000001          2.7558793993151753E-002
  0.13680000000000003          1.7009632102643724E-002
  0.13710000000000000          8.3520330959377387E-003
  0.13740000000000002          3.0941422239101068E-003
  0.13769999999999999          1.8466945606994689E-003
  0.13800000000000001          4.0444029159544814E-003
  0.13829999999999998          1.0580726159587162E-002
  0.13860000000000000          2.0716772052505106E-002
  0.13890000000000002          3.2806381101063042E-002
  0.13919999999999999          4.5163143860342259E-002
  0.13950000000000001          5.5408997237372359E-002
  0.13979999999999998          6.2636861868798299E-002
  0.14010000000000000          6.4747925298039022E-002
  0.14040000000000002          5.9905018418032752E-002
  0.14069999999999999          4.9698530679810227E-002
  0.14100000000000001          3.4219132335672420E-002
  0.14130000000000004          1.4810773238904285E-002
  0.14160000000000000         -5.3435837835653088E-003
  0.14189999999999997         -2.4407626094519852E-002
  0.14219999999999999         -3.9574285820970001E-002
  0.14250000000000002         -4.9515813934758901E-002
  0.14279999999999998         -5.3396460635261045E-002
  0.14310000000000000         -5.0621752824751065E-002
  0.14339999999999997         -4.2709986312388648E-002
  0.14369999999999999         -3.1455683265159129E-002
  0.14400000000000002         -1.8346631491365062E-002
  0.14429999999999998         -5.8219568392991194E-003
  0.14460000000000001          3.7398768412839206E-003
  0.14490000000000003          9.9075648084270829E-003
  0.14520000000000000          1.2494384148644233E-002
  0.14550000000000002          1.1770235307799637E-002
  0.14579999999999999          8.5838060765812685E-003
  0.14610000000000001          4.2337778518324320E-003
  0.14640000000000003          1.1732171336646391E-003
  0.14670000000000000         -1.3023279997997905E-005
  0.14699999999999996          5.8847104093789904E-005
  0.14729999999999999          2.8445405361948151E-003
  0.14760000000000001          6.7657018914429670E-003
  0.14789999999999998          9.8102204069173693E-003
  0.14820000000000000          1.1187253797207308E-002