  -1.4999999999999999E-002     0.0000000000000000     
  -1.4700000000000000E-002     0.0000000000000000     
  -1.4400000000000000E-002     0.0000000000000000     
  -1.4100000000000000E-002     0.0000000000000000     
  -1.3800000000000000E-002     0.0000000000000000     
  -1.3500000000000000E-002     0.0000000000000000     
  -1.3200000000000000E-002     0.0000000000000000     
  -1.2899999999999998E-002     0.0000000000000000     
  -1.2600000000000000E-002     0.0000000000000000     
  -1.2299999999999998E-002     0.0000000000000000     
  -1.2000000000000000E-002     0.0000000000000000     
  -1.1699999999999999E-002     0.0000000000000000     
  -1.1399999999999999E-002     0.0000000000000000     
  -1.1099999999999999E-002     0.0000000000000000     
  -1.0799999999999999E-002     0.0000000000000000     
  -1.0499999999999999E-002     0.0000000000000000     
  -1.0199999999999999E-002     0.0000000000000000     
  -9.8999999999999991E-003     0.0000000000000000     
  -9.5999999999999992E-003     0.0000000000000000     
  -9.2999999999999992E-003     0.0000000000000000     
  -8.9999999999999993E-003     0.0000000000000000     
  -8.6999999999999994E-003     0.0000000000000000     
  -8.3999999999999995E-003     0.0000000000000000     
  -8.0999999999999996E-003     0.0000000000000000     
  -7.7999999999999988E-003     0.0000000000000000     
  -7.4999999999999997E-003     0.0000000000000000     
  -7.1999999999999998E-003     0.0000000000000000     
  -6.8999999999999981E-003     0.0000000000000000     
  -6.5999999999999982E-003     0.0000000000000000     
  -6.3000000000000000E-003     0.0000000000000000     
  -6.0000000000000001E-003     0.0000000000000000     
  -5.6999999999999985E-003     0.0000000000000000     
  -5.3999999999999986E-003     0.0000000000000000     
  -5.1000000000000004E-003     0.0000000000000000     
  -4.7999999999999987E-003     0.0000000000000000     
  -4.5000000000000005E-003     0.0000000000000000     
  -4.1999999999999989E-003     0.0000000000000000     
  -3.8999999999999990E-003     0.0000000000000000     
  -3.5999999999999990E-003     0.0000000000000000     
  -3.2999999999999991E-003     0.0000000000000000     
  -2.9999999999999992E-003     0.0000000000000000     
  -2.6999999999999993E-003     0.0000000000000000     
  -2.3999999999999994E-003     0.0000000000000000     
  -2.0999999999999977E-003     0.0000000000000000     
  -1.7999999999999995E-003     0.0000000000000000     
  -1.4999999999999979E-003     0.0000000000000000     
  -1.1999999999999997E-003     0.0000000000000000     
  -8.9999999999999976E-004    -4.7030266955792365E-038
  -5.9999999999999810E-004     1.1313506117989461E-036
  -2.9999999999999992E-004     2.5264914961484715E-036
   0.0000000000000000         -9.4591056790368339E-036
   3.0000000000000165E-004     1.5335064206987325E-035
   5.9999999999999984E-004     1.7416924833672553E-034
   9.0000000000000149E-004    -3.1435571207471646E-034
   1.2000000000000031E-003    -3.3089782009825894E-034
   1.5000000000000013E-003     5.1901018715409158E-033
   1.8000000000000030E-003    -9.1490861584680967E-033
   2.1000000000000012E-003    -1.6635843991393725E-032
   2.3999999999999994E-003     7.1064547629010130E-032
   2.7000000000000010E-003    -3.1979110608160669E-032
   2.9999999999999992E-003    -8.2495517344929765E-032
   3.3000000000000008E-003    -1.8965146881341860E-031
   3.6000000000000025E-003    -1.0039409806572817E-030
   3.9000000000000007E-003     2.2198122325755886E-029
   4.2000000000000023E-003    -1.2226216429575175E-028
   4.5000000000000005E-003     1.9418184723879157E-028
   4.7999999999999987E-003     1.9465620454226734E-027
   5.1000000000000004E-003    -1.7905000985931845E-026
   5.4000000000000020E-003     7.7301016585961644E-026
   5.7000000000000037E-003    -1.6997237003188084E-025
   5.9999999999999984E-003    -1.4317343184752065E-025
   6.3000000000000000E-003     3.0855125585822241E-024
   6.6000000000000017E-003    -1.6119883149213520E-023
   6.9000000000000034E-003     5.8549925448290934E-023
   7.2000000000000015E-003    -1.6414132515824335E-022
   7.5000000000000032E-003     3.2231897687286877E-022
   7.8000000000000014E-003    -1.4005248164031227E-022
   8.0999999999999996E-003    -2.2264023760545710E-021
   8.4000000000000012E-003     1.2080297561945778E-020
   8.7000000000000029E-003    -3.9880818813241790E-020
   9.0000000000000011E-003     1.0432838233035294E-019
   9.2999999999999992E-003    -2.9127075518717277E-019
   9.6000000000000009E-003     1.2416195091211982E-018
   9.8999999999999991E-003    -6.9082316526281246E-018
   1.0200000000000001E-002     3.7484262343049804E-017
   1.0500000000000002E-002    -1.8437285099492612E-016
   1.0800000000000004E-002     8.3059280942750179E-016
   1.1099999999999999E-002    -3.4873466263587435E-015
   1.1400000000000000E-002     1.3711724897473008E-014
   1.1700000000000002E-002    -4.9769884092489985E-014
   1.2000000000000004E-002     1.6012452821438036E-013
   1.2300000000000002E-002    -4.1484837326035341E-013
   1.2600000000000000E-002     6.0495273123520680E-013
   1.2900000000000002E-002     1.4437925172858506E-012
   1.3200000000000000E-002    -1.5481538837232179E-011
   1.3500000000000002E-002     6.7856819899206503E-011
   1.3800000000000003E-002    -1.8336960112703507E-010
   1.4100000000000001E-002     2.2324812460137406E-010
   1.4400000000000000E-002     5.3245360098680338E-010
   1.4700000000000001E-002    -3.3245987319877041E-009
   1.4999999999999999E-002     6.4543499042895768E-009
   1.5300000000000001E-002     2.4585538189040175E-009
   1.5600000000000003E-002    -3.7907212567319902E-008
   1.5899999999999997E-002     5.3214123123126892E-008
   1.6199999999999999E-002     8.7912543984336046E-008
   1.6500000000000001E-002    -2.8955428279851799E-007
   1.6800000000000002E-002    -1.5861640902786418E-007
   1.7100000000000004E-002     9.5705576607698213E-007
   1.7400000000000006E-002     6.1182886102839783E-007
   1.7700000000000000E-002    -2.6403295116817361E-006
   1.8000000000000002E-002    -3.6045578935691119E-006
   1.8300000000000004E-002     7.3023639903154196E-006
   1.8600000000000005E-002     3.5015591410072827E-005
   1.8900000000000000E-002     7.6324780504858237E-005
   1.9200000000000002E-002     1.2795687892067000E-004
   1.9500000000000003E-002     1.9537218558294493E-004
   1.9799999999999998E-002     2.9523925315088836E-004
   2.0100000000000000E-002     4.5434711274857861E-004
   2.0400000000000001E-002     7.0589493983870544E-004
   2.0700000000000003E-002     1.0895062925177709E-003
   2.0999999999999998E-002     1.6581636897778015E-003
   2.1299999999999999E-002     2.4857828862906994E-003
   2.1600000000000001E-002     3.6742785092554325E-003
   2.1900000000000003E-002     5.3597976852244600E-003
   2.2200000000000004E-002     7.7163838966514964E-003
   2.2500000000000006E-002     1.0957768269986012E-002
   2.2800000000000001E-002     1.5337511496059053E-002
   2.3100000000000002E-002     2.1150490470934979E-002
   2.3400000000000004E-002     2.8729160156428346E-002
   2.3699999999999999E-002     3.8422782697465685E-002
   2.4000000000000000E-002     5.0568845450572608E-002
   2.4300000000000002E-002     6.5458956559337977E-002
   2.4599999999999997E-002     8.3290797428708263E-002
   2.4900000000000005E-002    0.10409930537210288     
   2.5200000000000000E-002    0.12766810276629315     
   2.5499999999999995E-002    0.15344589146989485     
   2.5800000000000003E-002    0.18046274989670152     
   2.6099999999999998E-002    0.20723888268416957     
   2.6400000000000007E-002    0.23173421202244082     
   2.6700000000000002E-002    0.25132001756779143     
   2.6999999999999996E-002    0.26279740925097705     
   2.7300000000000005E-002    0.26251447521844895     
   2.7600000000000000E-002    0.24651127486930680     
   2.7900000000000008E-002    0.21080997892452125     
   2.8200000000000003E-002    0.15174207264319151     
   2.8499999999999998E-002     6.6373317843246182E-002
   2.8800000000000006E-002    -4.7024737532272765E-002
   2.9100000000000001E-002   -0.18853786500944114     
   2.9400000000000003E-002   -0.35615361199159601     
   2.9700000000000004E-002   -0.54546151075906479     
   3.0000000000000006E-002   -0.74946668049949849     
   3.0300000000000001E-002   -0.95865007579803319     
   3.0600000000000002E-002    -1.1612668028159518     
   3.0900000000000004E-002    -1.3438549287833510     
   3.1199999999999999E-002    -1.4920653999925548     
   3.1500000000000007E-002    -1.5916405182464217     
   3.1800000000000002E-002    -1.6295884679005397     
   3.2099999999999997E-002    -1.5953495996227787     
   3.2400000000000005E-002    -1.4819408229025086     
   3.2700000000000000E-002    -1.2868195720987003     
   3.3000000000000002E-002    -1.0125800142307746     
   3.3300000000000003E-002   -0.66717121072324481     
   3.3599999999999998E-002   -0.26358405112234529     
   3.3900000000000000E-002    0.18054703485233414     
   3.4200000000000001E-002    0.64435109056143602     
   3.4500000000000003E-002     1.1047465439464901     
   3.4799999999999998E-002     1.5382977649725049     
   3.5099999999999999E-002     1.9227820266987763     
   3.5400000000000001E-002     2.2387439555247397     
   3.5699999999999996E-002     2.4708901373173120     
   3.6000000000000004E-002     2.6090173727013592     
   3.6299999999999999E-002     2.6485448737546591     
   3.6600000000000008E-002     2.5906843892425115     
   3.6900000000000002E-002     2.4420583398674296     
   3.7199999999999997E-002     2.2138867840813958     
   3.7500000000000006E-002     1.9210907918062361     
   3.7800000000000000E-002     1.5807601998507010     
   3.8100000000000009E-002     1.2110220875635633     
   3.8400000000000004E-002    0.82981136230340624     
   3.8699999999999998E-002    0.45353468214681314     
   3.9000000000000007E-002     9.6656624499631860E-002
   3.9300000000000002E-002   -0.22941793676093347     
   3.9600000000000003E-002   -0.51619967998328598     
   3.9900000000000005E-002   -0.75824134185830872     
   4.0200000000000000E-002   -0.95325180893869188     
   4.0500000000000001E-002    -1.1009718742045180     
   4.0800000000000003E-002    -1.2035628323402534     
   4.1100000000000005E-002    -1.2642708193362679     
   4.1399999999999999E-002    -1.2873725624214458     
   4.1700000000000008E-002    -1.2777926812084033     
   4.2000000000000003E-002    -1.2402456565761426     
   4.2299999999999997E-002    -1.1796961140630557     
   4.2600000000000006E-002    -1.1007722488805385     
   4.2900000000000001E-002    -1.0079737840319680     
   4.3200000000000002E-002   -0.90583042832500382     
   4.3500000000000004E-002   -0.79878563504438205     
   4.3799999999999999E-002   -0.69161402541233485     
   4.4100000000000000E-002   -0.58934818295811908     
   4.4400000000000002E-002   -0.49725767375362295     
   4.4700000000000004E-002   -0.42096324854239064     
   4.4999999999999998E-002   -0.36604183845233074     
   4.5300000000000000E-002   -0.33766854105253330     
   4.5600000000000002E-002   -0.34030966688591313     
   4.5899999999999996E-002   -0.37682535432375808     
   4.6200000000000005E-002   -0.44813227159428415     
   4.6500000000000000E-002   -0.55247510766470853     
   4.6799999999999994E-002   -0.68476435504600985     
   4.7100000000000003E-002   -0.83667416451763543     
   4.7399999999999998E-002   -0.99601745918816675     
   4.7700000000000006E-002    -1.1476174953029386     
   4.8000000000000001E-002    -1.2736845476027696     
   4.8300000000000010E-002    -1.3549520595269016     
   4.8600000000000004E-002    -1.3725109315710569     
   4.8899999999999999E-002    -1.3088210767535742     
   4.9200000000000008E-002    -1.1504727632030551     
   4.9500000000000002E-002   -0.88922915528476310     
   4.9800000000000011E-002   -0.52390051244481395     
   5.0100000000000006E-002    -6.1426369945381865E-002
   5.0400000000000000E-002    0.48309153752346745     
   5.0700000000000009E-002     1.0860169826504027     
   5.1000000000000004E-002     1.7170389320910857     
   5.1299999999999998E-002     2.3404045033585419     
   5.1600000000000007E-002     2.9176796078356801     
   5.1900000000000002E-002     3.4109269745647737     
   5.2200000000000010E-002     3.7849154910549174     
   5.2500000000000005E-002     4.0110385435392573     
   5.2800000000000000E-002     4.0688949874634801     
   5.3099999999999994E-002     3.9484935248620445     
   5.3400000000000003E-002     3.6513363122138429     
   5.3699999999999998E-002     3.1897819227270219     
   5.4000000000000006E-002     2.5869186869556557     
   5.4300000000000001E-002     1.8741676791139597     
   5.4599999999999996E-002     1.0889584831997947     
   5.4900000000000004E-002    0.27216356319658530     
   5.5199999999999999E-002   -0.53540497384452124     
   5.5499999999999994E-002    -1.2954681163081929     
   5.5800000000000002E-002    -1.9747563223906539     
   5.6099999999999997E-002    -2.5474674821387566     
   5.6400000000000006E-002    -2.9958107146892132     
   5.6700000000000000E-002    -3.3108455432331709     
   5.6999999999999995E-002    -3.4926533437100176     
   5.7300000000000004E-002    -3.5485627535526589     
   5.7599999999999998E-002    -3.4928145367671419     
   5.7900000000000007E-002    -3.3441882143388568     
   5.8200000000000002E-002    -3.1240434227286187     
   5.8499999999999996E-002    -2.8551485578687874     
   5.8800000000000005E-002    -2.5586277443948262     
   5.9100000000000000E-002    -2.2535757683247368     
   5.9400000000000008E-002    -1.9549611846462298     
   5.9700000000000003E-002    -1.6727749345798344     
   6.0000000000000012E-002    -1.4122658605141254     
   6.0300000000000006E-002    -1.1727041615263722     
   6.0600000000000001E-002   -0.94892301685361602     
   6.0900000000000010E-002   -0.73160386261693233     
   6.1200000000000004E-002   -0.50831688045389534     
   6.1500000000000013E-002   -0.26576996624160820     
   6.1800000000000008E-002     9.6468584633542243E-003
   6.2100000000000002E-002    0.32872126307808180     
   6.2399999999999997E-002    0.69829647989542565     
   6.2700000000000006E-002     1.1200613531876797     
   6.3000000000000000E-002     1.5883742939196779     
   6.3300000000000009E-002     2.0909616817498105     
   6.3600000000000004E-002     2.6079402793601361     
   6.3899999999999998E-002     3.1130635171762293     
   6.4199999999999993E-002     3.5756894792793190     
   6.4500000000000002E-002     3.9621377962871378     
   6.4800000000000010E-002     4.2394306368787511     
   6.5100000000000005E-002     4.3774518670566067     
   6.5400000000000000E-002     4.3522522598495925     
   6.5700000000000008E-002     4.1489537792234614     
   6.5999999999999989E-002     3.7628820009321089     
   6.6299999999999998E-002     3.2015473204425859     
   6.6600000000000006E-002     2.4843632976825845     
   6.6900000000000001E-002     1.6414167955608434     
   6.7199999999999996E-002    0.71219583042708479     
   6.7500000000000004E-002   -0.25791597980593650     
   6.7800000000000013E-002    -1.2203436030082813     
   6.8099999999999994E-002    -2.1270206424683877     
   6.8400000000000002E-002    -2.9342048324856620     
   6.8700000000000011E-002    -3.6044456137440903     
   6.8999999999999992E-002    -4.1098522220871985     
   6.9300000000000000E-002    -4.4326965165615775     
   6.9600000000000009E-002    -4.5657170000233123     
   6.9900000000000004E-002    -4.5123580456891261     
   7.0199999999999999E-002    -4.2842213878517299     
   7.0500000000000007E-002    -3.9003262226924562     
   7.0800000000000016E-002    -3.3844151980211450     
   7.1099999999999997E-002    -2.7626435113820591     
   7.1400000000000005E-002    -2.0626670423686591     
   7.1700000000000000E-002    -1.3111511308034216     
   7.1999999999999995E-002   -0.53366092457902781     
   7.2300000000000003E-002    0.24563183916232356     
   7.2600000000000012E-002     1.0045323600014449     
   7.2900000000000006E-002     1.7214179862626722     
   7.3200000000000001E-002     2.3757158422196341     
   7.3499999999999996E-002     2.9472585918233420     
   7.3800000000000004E-002     3.4158786959959713     
   7.4099999999999999E-002     3.7629077246692333     
   7.4400000000000008E-002     3.9708678374319106     
   7.4700000000000003E-002     4.0259578831104932     
   7.5000000000000011E-002     3.9192651671619387     
   7.5299999999999992E-002     3.6479151841680562     
   7.5600000000000001E-002     3.2178190212230646     
   7.5900000000000009E-002     2.6432831907467076     
   7.6200000000000004E-002     1.9482490804907524     
   7.6499999999999999E-002     1.1655385478545988     
   7.6800000000000007E-002    0.33520885009143342     
   7.7099999999999988E-002   -0.49722034379067637     
   7.7399999999999997E-002    -1.2844726331665584     
   7.7700000000000005E-002    -1.9803784034364327     
   7.8000000000000014E-002    -2.5437648143746543     
   7.8299999999999995E-002    -2.9420046695308315     
   7.8600000000000003E-002    -3.1533815242499230     
   7.8900000000000012E-002    -3.1692141488337313     
   7.9199999999999993E-002    -2.9950190966187336     
   7.9500000000000001E-002    -2.6499779274855939     
   7.9800000000000010E-002    -2.1655667639759670     
   8.0100000000000018E-002    -1.5832066881525364     
   8.0399999999999999E-002   -0.95092123684343299     
   8.0700000000000008E-002   -0.31968308481985730     
   8.1000000000000003E-002    0.26067998884453125     
   8.1299999999999997E-002    0.74528366223799836     
   8.1600000000000006E-002     1.0973604462852506     
   8.1900000000000014E-002     1.2910107217192106     
   8.2199999999999995E-002     1.3128726067112417     
   8.2500000000000004E-002     1.1630988192128946     
   8.2799999999999999E-002    0.85531500010801942     
   8.3100000000000007E-002    0.41540008722351729     
   8.3400000000000002E-002   -0.12013053802267093     
   8.3700000000000011E-002   -0.70671303146364295     
   8.4000000000000005E-002    -1.2950108120551320     
   8.4300000000000000E-002    -1.8341951577490079     
   8.4599999999999995E-002    -2.2753768440962432     
   8.4900000000000003E-002    -2.5756340431835980     
   8.5199999999999998E-002    -2.7009994989588932     
   8.5500000000000007E-002    -2.6297302550336639     
   8.5800000000000001E-002    -2.3545910702888548     
   8.6100000000000010E-002    -1.8835735581443060     
   8.6399999999999991E-002    -1.2411045045990434     
   8.6699999999999999E-002   -0.46590373402465701     
   8.7000000000000008E-002    0.39058026540869140     
   8.7300000000000003E-002     1.2674117341940629     
   8.7599999999999997E-002     2.0997894122392893     
   8.7900000000000006E-002     2.8224615449853587     
   8.8200000000000014E-002     3.3766592310734609     
   8.8499999999999995E-002     3.7142888802127629     
   8.8800000000000004E-002     3.8022730731554901     
   8.9100000000000013E-002     3.6268737217146167     
   8.9399999999999993E-002     3.1939830012704320     
   8.9700000000000002E-002     2.5304643853672530     
   9.0000000000000011E-002     1.6818915958515284     
   9.0299999999999991E-002    0.70880356884853768     
   9.0600000000000000E-002   -0.31711302850756362     
   9.0900000000000009E-002    -1.3201219897149699     
   9.1200000000000017E-002    -2.2257084283874136     
   9.1499999999999998E-002    -2.9668762108734086     
   9.1800000000000007E-002    -3.4904376782633051     
   9.2100000000000001E-002    -3.7599544335993329     
   9.2399999999999996E-002    -3.7596268026705246     
   9.2700000000000005E-002    -3.4948585461167312     
   9.3000000000000013E-002    -2.9909249226032131     
   9.3300000000000008E-002    -2.2914318214980689     
   9.3600000000000003E-002    -1.4529344777007225     
   9.3899999999999997E-002   -0.54037729301722237     
   9.4200000000000006E-002    0.37814038490612223     
   9.4500000000000001E-002     1.2381411006782344     
   9.4800000000000009E-002     1.9826657896965898     
   9.5100000000000004E-002     2.5673791744555956     
   9.5399999999999999E-002     2.9635186448112592     
   9.5699999999999993E-002     3.1579309133963136     
   9.6000000000000002E-002     3.1546403725945140     
   9.6300000000000011E-002     2.9718704898824697     
   9.6600000000000005E-002     2.6394654256055574     
   9.6900000000000000E-002     2.1961990528009281     
   9.7200000000000009E-002     1.6840157943954637     
   9.7499999999999989E-002     1.1455151577391778     
   9.7799999999999998E-002    0.61969449329857973     
   9.8100000000000007E-002    0.13884393913651039     
   9.8400000000000015E-002   -0.27227998359170424     
   9.8699999999999996E-002   -0.59829397570846510     
   9.9000000000000005E-002   -0.83218897665268443     
   9.9300000000000013E-002   -0.97419520581683017     
   9.9599999999999994E-002    -1.0305880853012468     
   9.9900000000000003E-002    -1.0105070065241541     
  0.10020000000000001        -0.92465638411648499     
  0.10049999999999999        -0.78328021521026114     
  0.10080000000000000        -0.59432194326380916     
  0.10110000000000001        -0.36384244260025156     
  0.10140000000000000         -9.5137488266139769E-002
  0.10170000000000000         0.20998286596298676     
  0.10200000000000001         0.54942335163168288     
  0.10230000000000002         0.92022851837396047     
  0.10260000000000000          1.3161112360876857     
  0.10290000000000001          1.7267088260423691     
  0.10320000000000000          2.1373971286097557     
  0.10350000000000001          2.5286228407501312     
  0.10380000000000000          2.8779751662304704     
  0.10410000000000001          3.1609606986653205     
  0.10440000000000001          3.3536022661255771     
  0.10470000000000000          3.4355309696447733     
  0.10500000000000000          3.3909846998586062     
  0.10530000000000000          3.2119502031932967     
  0.10560000000000000          2.8989928731845396     
  0.10590000000000001          2.4609282678273061     
  0.10620000000000000          1.9143872055683904     
  0.10650000000000001          1.2820024696714185     
  0.10679999999999999         0.58981702817719039     
  0.10710000000000000        -0.13539928661962986     
  0.10740000000000001        -0.86916296750913347     
  0.10770000000000000         -1.5915025015905471     
  0.10800000000000000         -2.2883813251036571     
  0.10830000000000001         -2.9526160758094022     
  0.10859999999999999         -3.5836486104330589     
  0.10890000000000000         -4.1852620805114782     
  0.10920000000000001         -4.7645934655308224     
  0.10950000000000001         -5.3291063611223990     
  0.10979999999999999         -5.8831582401491289     
  0.11009999999999999         -6.4276724033733217     
  0.11040000000000001         -6.9561681666856430     
  0.11070000000000001         -7.4557983209599854     
  0.11100000000000000         -7.9066396223896049     
  0.11130000000000000         -8.2818036729543110     
  0.11160000000000002         -8.5514462109165379     
  0.11190000000000001         -8.6819596921398841     
  0.11220000000000001         -8.6409851491750658     
  0.11250000000000000         -8.3991122414656729     
  0.11280000000000000         -7.9312191896229081     
  0.11309999999999999         -7.2213147879805746     
  0.11340000000000001         -6.2605020509598859     
  0.11369999999999998         -5.0509239333815543     
  0.11400000000000000         -3.6056203757390222     
  0.11430000000000000         -1.9472647428387972     
  0.11460000000000002        -0.11046880325728381     
  0.11489999999999999          1.8611773471640625     
  0.11520000000000001          3.9153739987448688     
  0.11550000000000001          5.9916406060537781     
  0.11580000000000000          8.0250546728592269     
  0.11609999999999999          9.9464264789134518     
  0.11640000000000002          11.685620369084859     
  0.11670000000000001          13.175570841053911     
  0.11700000000000001          14.352479217609698     
  0.11730000000000000          15.162199314543273     
  0.11760000000000000          15.561046924501397     
  0.11789999999999999          15.518767526533452     
  0.11820000000000001          15.023423427666387     
  0.11850000000000001          14.078685229371530     
  0.11880000000000000          12.708541759359207     
  0.11910000000000000          10.955437834718381     
  0.11940000000000002          8.8776453144951120     
  0.11970000000000001          6.5499642149801502     
  0.12000000000000001          4.0573905484631325     
  0.12030000000000000          1.4934888541824449     
  0.12060000000000000         -1.0449382337317807     
  0.12089999999999999         -3.4635154589156514     
  0.12119999999999999         -5.6716862194236910     
  0.12150000000000001         -7.5903918273424438     
  0.12180000000000001         -9.1534656770000993     
  0.12210000000000000         -10.309198412811782     
  0.12239999999999999         -11.026269466451424     
  0.12270000000000002         -11.289325354839377     
  0.12300000000000001         -11.103094908449265     
  0.12330000000000001         -10.491401587647601     
  0.12360000000000000         -9.4933128481410733     
  0.12390000000000000         -8.1654599785607314     
  0.12419999999999999         -6.5763065881523062     
  0.12450000000000001         -4.8049866073125997     
  0.12480000000000001         -2.9390093767127610     
  0.12509999999999999         -1.0686413516643114     
  0.12540000000000001         0.71478200930307523     
  0.12570000000000003          2.3235206024588919     
  0.12600000000000000          3.6789703374586225     
  0.12630000000000002          4.7135332868298008     
  0.12659999999999999          5.3760949269181140     
  0.12690000000000001          5.6357014437924846     
  0.12719999999999998          5.4813866938077673     
  0.12750000000000000          4.9273816698017754     
  0.12780000000000002          4.0099853775680998     
  0.12809999999999999          2.7867728608392639     
  0.12840000000000001          1.3359923855800275     
  0.12869999999999998        -0.25205310038937156     
  0.12900000000000000         -1.8756123492721635     
  0.12930000000000003         -3.4309780505172114     
  0.12959999999999999         -4.8191501330669269     
  0.12990000000000002         -5.9482204964749030     
  0.13019999999999998         -6.7459546516935802     
  0.13050000000000000         -7.1589714144637924     
  0.13080000000000003         -7.1589136194599519     
  0.13109999999999999         -6.7462329765190319     
  0.13140000000000002         -5.9449569412225109     
  0.13169999999999998         -4.8082036947895261     
  0.13200000000000001         -3.4091136293018849     
  0.13229999999999997         -1.8382053452842797     
  0.13260000000000000        -0.19846176841637941     
  0.13290000000000002          1.4057603873564446     
  0.13319999999999999          2.8703207768848102     
  0.13350000000000001          4.1035278993901301     
  0.13380000000000003          5.0304110205104280     
  0.13410000000000000          5.5968076601025558     
  0.13440000000000002          5.7765791300720792     
  0.13469999999999999          5.5698110199215378     
  0.13500000000000001          5.0050856239958144     
  0.13529999999999998          4.1364009567079734     
  0.13560000000000000          3.0384027454340554     
  0.13590000000000002          1.8024914482250978     
  0.13619999999999999         0.52788738888570208     
  0.13650000000000001        -0.68521637182750683     
  0.13680000000000003         -1.7425989563529072     
  0.13710000000000000         -2.5650943796431562     
  0.13740000000000002         -3.0931735145065886     
  0.13769999999999999         -3.2919108548258755     
  0.13800000000000001         -3.1547950132214417     
  0.13829999999999998         -2.7016668056852353     
  0.13860000000000000         -1.9791828526146986     
  0.13890000000000002         -1.0557294943957345     
  0.13919999999999999         -1.4536372177499146E-002
  0.13950000000000001          1.0510301390252117     
  0.13979999999999998          2.0485601395501973     
  0.14010000000000000          2.8921289461429751     
  0.14040000000000002          3.5109539999984065     
  0.14069999999999999          3.8560402043397275     
  0.14100000000000001          3.9021288527498612     
  0.14130000000000004          3.6526690241231723     
  0.14160000000000000          3.1367355417897080     
  0.14189999999999997          2.4070780842561703     
  0.14219999999999999          1.5352127797614159     
  0.14250000000000002         0.60345834714998858     
  0.14279999999999998        -0.30133374881073571     
  0.14310000000000000         -1.0977881149494095     
  0.14339999999999997         -1.7161594497968906     
  0.14369999999999999         -2.1063566624115460     
  0.14400000000000002         -2.2410551554004750     
  0.14429999999999998         -2.1188107592783147     
  0.14460000000000001         -1.7641255827589148     
  0.14490000000000003         -1.2221747551246622     
  0.14520000000000000        -0.55718228783258894     
  0.14550000000000002         0.15761171080826308     
  0.14579999999999999         0.84571527092981036     
  0.14610000000000001          1.4359570707092857     
  0.14640000000000003          1.8714510318827706     
  0.14670000000000000          2.1115755082142975     
  0.14699999999999996          2.1401437672851191     
  0.14729999999999999          1.9629732274287868     
  0.14760000000000001          1.6077768462245956     
  0.14789999999999998          1.1218032378445066     
  0.14820000000000000         0.56209153904423559     