  -1.4999999999999999E-002     0.0000000000000000     
  -1.4700000000000000E-002     0.0000000000000000     
  -1.4400000000000000E-002     0.0000000000000000     
  -1.4100000000000000E-002     0.0000000000000000     
  -1.3800000000000000E-002     1.2659414779493622E-033
  -1.3500000000000000E-002     1.0205573775166752E-031
  -1.3200000000000000E-002    -1.2422856577173657E-030
  -1.2899999999999998E-002    -2.4719777874221686E-028
  -1.2600000000000000E-002    -1.7295433494405555E-028
  -1.2299999999999998E-002     3.9237580891607538E-026
  -1.2000000000000000E-002     1.4723552617053668E-026
  -1.1699999999999999E-002    -1.6677186123837101E-024
  -1.1399999999999999E-002    -1.0987353295531405E-023
  -1.1099999999999999E-002     1.9656360195399143E-022
  -1.0799999999999999E-002    -6.9855584483655750E-022
  -1.0499999999999999E-002    -5.3118097737560246E-021
  -1.0199999999999999E-002     7.5102312753103611E-020
  -9.8999999999999991E-003    -3.6099599158128439E-019
  -9.5999999999999992E-003     5.0905139506092570E-019
  -9.2999999999999992E-003     2.7491089164258452E-018
  -8.9999999999999993E-003    -1.7420982874460849E-017
  -8.6999999999999994E-003     5.1573943569072826E-017
  -8.3999999999999995E-003    -1.0853682324514082E-016
  -8.0999999999999996E-003     1.8177324401099325E-016
  -7.7999999999999988E-003    -2.0608004557253748E-016
  -7.4999999999999997E-003     1.6781707918577817E-018
  -7.1999999999999998E-003     7.4040611051332406E-016
  -6.8999999999999981E-003    -2.2164480537392728E-015
  -6.5999999999999982E-003     1.9661347829908133E-015
  -6.3000000000000000E-003     7.3965551226711466E-015
  -6.0000000000000001E-003    -1.8952423181187172E-014
  -5.6999999999999985E-003    -2.8310217871688713E-014
  -5.3999999999999986E-003     2.1268285797879788E-013
  -5.1000000000000004E-003    -4.4016914137016971E-013
  -4.7999999999999987E-003     2.6574440347912343E-013
  -4.5000000000000005E-003     9.4740242127105967E-013
  -4.1999999999999989E-003    -3.2108914051892645E-012
  -3.8999999999999990E-003     4.6623091672082229E-012
  -3.5999999999999990E-003    -1.8250967143834673E-012
  -3.2999999999999991E-003    -6.6628378161959212E-012
  -2.9999999999999992E-003     1.5736446867808951E-011
  -2.6999999999999993E-003    -1.5647386164552302E-011
  -2.3999999999999994E-003     1.1195491148724424E-012
  -2.0999999999999977E-003     2.1371683936455277E-011
  -1.7999999999999995E-003    -3.6257913338388903E-011
  -1.4999999999999979E-003     2.2148099326768644E-011
  -1.1999999999999997E-003     3.8878233965533582E-011
  -8.9999999999999976E-004    -1.1351214412869126E-010
  -5.9999999999999810E-004     9.8818793425881069E-011
  -2.9999999999999992E-004     4.7914054668307671E-011
   0.0000000000000000         -2.2469803795388543E-010
   3.0000000000000165E-004     4.5370812662426374E-010
   5.9999999999999984E-004    -1.0891109125665821E-009
   9.0000000000000149E-004     1.9023804753715012E-009
   1.2000000000000031E-003    -8.5037421548861403E-011
   1.5000000000000013E-003    -9.2067997670142177E-009
   1.8000000000000030E-003     2.3899859868947715E-008
   2.1000000000000012E-003    -2.1156647989073463E-008
   2.3999999999999994E-003    -3.7492426940843870E-008
   2.7000000000000010E-003     1.5458169855264714E-007
   2.9999999999999992E-003    -1.9627195513294282E-007
   3.3000000000000008E-003    -1.6886174591945746E-007
   3.6000000000000025E-003     1.0329167707823217E-006
   3.9000000000000007E-003    -9.0311027634015772E-007
   4.2000000000000023E-003    -2.7019102617487079E-006
   4.5000000000000005E-003     4.8248634811898228E-006
   4.7999999999999987E-003     6.6381899159750901E-006
   5.1000000000000004E-003    -1.3837845472153276E-005
   5.4000000000000020E-003    -2.3251603124663234E-005
   5.7000000000000037E-003     3.1274474167730659E-005
   5.9999999999999984E-003     1.5918027202133089E-004
   6.3000000000000000E-003     3.3151084790006280E-004
   6.6000000000000017E-003     5.2717223297804594E-004
   6.9000000000000034E-003     7.5421627843752503E-004
   7.2000000000000015E-003     1.0704535525292158E-003
   7.5000000000000032E-003     1.6012536361813545E-003
   7.8000000000000014E-003     2.4842969141900539E-003
   8.0999999999999996E-003     3.8373696152120829E-003
   8.4000000000000012E-003     5.8112801052629948E-003
   8.7000000000000029E-003     8.6234118789434433E-003
   9.0000000000000011E-003     1.2590209953486919E-002
   9.2999999999999992E-003     1.8156668171286583E-002
   9.6000000000000009E-003     2.5849271565675735E-002
   9.8999999999999991E-003     3.6234848201274872E-002
   1.0200000000000001E-002     4.9965720623731613E-002
   1.0500000000000002E-002     6.7798532545566559E-002
   1.0800000000000004E-002     9.0477712452411652E-002
   1.1099999999999999E-002    0.11861905455589294     
   1.1400000000000000E-002    0.15266111493110657     
   1.1700000000000002E-002    0.19271309673786163     
   1.2000000000000004E-002    0.23830862343311310     
   1.2300000000000002E-002    0.28816717863082886     
   1.2600000000000000E-002    0.33996966481208801     
   1.2900000000000002E-002    0.39014771580696106     
   1.3200000000000000E-002    0.43366068601608276     
   1.3500000000000002E-002    0.46382042765617371     
   1.3800000000000003E-002    0.47240173816680908     
   1.4100000000000001E-002    0.44979310035705566     
   1.4400000000000000E-002    0.38538038730621338     
   1.4700000000000001E-002    0.26827722787857056     
   1.4999999999999999E-002     8.8332623243331909E-002
   1.5300000000000001E-002   -0.16254320740699768     
   1.5600000000000003E-002   -0.48909601569175720     
   1.5899999999999997E-002   -0.89125865697860718     
   1.6199999999999999E-002    -1.3626328706741333     
   1.6500000000000001E-002    -1.8892446756362915     
   1.6800000000000002E-002    -2.4488134384155273     
   1.7100000000000004E-002    -3.0106859207153320     
   1.7400000000000006E-002    -3.5364570617675781     
   1.7700000000000000E-002    -3.9818377494812012     
   1.8000000000000002E-002    -4.2991528511047363     
   1.8300000000000004E-002    -4.4407811164855957     
   1.8600000000000005E-002    -4.3632616996765137     
   1.8900000000000000E-002    -4.0317111015319824     
   1.9200000000000002E-002    -3.4243204593658447     
   1.9500000000000003E-002    -2.5359871387481689     
   1.9799999999999998E-002    -1.3810535669326782     
   2.0100000000000000E-002     5.1318481564521790E-003
   2.0400000000000001E-002     1.5667966604232788     
   2.0700000000000003E-002     3.2299737930297852     
   2.0999999999999998E-002     4.9063291549682617     
   2.1299999999999999E-002     6.4993047714233398     
   2.1600000000000001E-002     7.9103240966796875     
   2.1900000000000003E-002     9.0462493896484375     
   2.2200000000000004E-002     9.8265590667724609     
   2.2500000000000006E-002     10.189591407775879     
   2.2800000000000001E-002     10.098243713378906     
   2.3100000000000002E-002     9.5423803329467773     
   2.3400000000000004E-002     8.5408964157104492     
   2.3699999999999999E-002     7.1402697563171387     
   2.4000000000000000E-002     5.4112200736999512     
   2.4300000000000002E-002     3.4450347423553467     
   2.4599999999999997E-002     1.3465090990066528     
   2.4900000000000005E-002   -0.77243524789810181     
   2.5200000000000000E-002    -2.7998034954071045     
   2.5499999999999995E-002    -4.6305518150329590     
   2.5800000000000003E-002    -6.1728973388671875     
   2.6099999999999998E-002    -7.3530187606811523     
   2.6400000000000007E-002    -8.1201896667480469     
   2.6700000000000002E-002    -8.4471673965454102     
   2.6999999999999996E-002    -8.3329086303710938     
   2.7300000000000005E-002    -7.8016653060913086     
   2.7600000000000000E-002    -6.9000782966613770     
   2.7900000000000008E-002    -5.6959705352783203     
   2.8200000000000003E-002    -4.2717213630676270     
   2.8499999999999998E-002    -2.7208132743835449     
   2.8800000000000006E-002    -1.1417087316513062     
   2.9100000000000001E-002    0.36852672696113586     
   2.9400000000000003E-002     1.7185484170913696     
   2.9700000000000004E-002     2.8301846981048584     
   3.0000000000000006E-002     3.6409037113189697     
   3.0300000000000001E-002     4.1081361770629883     
   3.0600000000000002E-002     4.2117595672607422     
   3.0900000000000004E-002     3.9530127048492432     
   3.1199999999999999E-002     3.3547327518463135     
   3.1500000000000007E-002     2.4579658508300781     
   3.1800000000000002E-002     1.3187128305435181     
   3.2099999999999997E-002     3.6315768957138062E-003
   3.2400000000000005E-002    -1.4155511856079102     
   3.2700000000000000E-002    -2.8660886287689209     
   3.3000000000000002E-002    -4.2787380218505859     
   3.3300000000000003E-002    -5.5913538932800293     
   3.3599999999999998E-002    -6.7503643035888672     
   3.3900000000000000E-002    -7.7121973037719727     
   3.4200000000000001E-002    -8.4436416625976562     
   3.4500000000000003E-002    -8.9192075729370117     
   3.4799999999999998E-002    -9.1212196350097656     
   3.5099999999999999E-002    -9.0366020202636719     
   3.5400000000000001E-002    -8.6556549072265625     
   3.5699999999999996E-002    -7.9720373153686523     
   3.6000000000000004E-002    -6.9809131622314453     
   3.6299999999999999E-002    -5.6829786300659180     
   3.6600000000000008E-002    -4.0837283134460449     
   3.6900000000000002E-002    -2.1992039680480957     
   3.7199999999999997E-002    -5.7583108544349670E-002
   3.7500000000000006E-002     2.2981986999511719     
   3.7800000000000000E-002     4.8065338134765625     
   3.8100000000000009E-002     7.3888897895812988     
   3.8400000000000004E-002     9.9482650756835938     
   3.8699999999999998E-002     12.374402046203613     
   3.9000000000000007E-002     14.549347877502441     
   3.9300000000000002E-002     16.351730346679688     
   3.9600000000000003E-002     17.669912338256836     
   3.9900000000000005E-002     18.404779434204102     
   4.0200000000000000E-002     18.483203887939453     
   4.0500000000000001E-002     17.862382888793945     
   4.0800000000000003E-002     16.535467147827148     
   4.1100000000000005E-002     14.535805702209473     
   4.1399999999999999E-002     11.934355735778809     
   4.1700000000000008E-002     8.8390264511108398     
   4.2000000000000003E-002     5.3871870040893555     
   4.2299999999999997E-002     1.7393741607666016     
   4.2600000000000006E-002    -1.9315149784088135     
   4.2900000000000001E-002    -5.4500012397766113     
   4.3200000000000002E-002    -8.6489267349243164     
   4.3500000000000004E-002    -11.379886627197266     
   4.3799999999999999E-002    -13.521562576293945     
   4.4100000000000000E-002    -14.988188743591309     
   4.4400000000000002E-002    -15.732954025268555     
   4.4700000000000004E-002    -15.752165794372559     
   4.4999999999999998E-002    -15.084034919738770     
   4.5300000000000000E-002    -13.806245803833008     
   4.5600000000000002E-002    -12.031530380249023     
   4.5899999999999996E-002    -9.8975229263305664     
   4.6200000000000005E-002    -7.5601825714111328     
   4.6500000000000000E-002    -5.1803932189941406     
   4.6799999999999994E-002    -2.9141378402709961     
   4.7100000000000003E-002   -0.90151262283325195     
   4.7399999999999998E-002    0.74553090333938599     
   4.7700000000000006E-002     1.9476460218429565     
   4.8000000000000001E-002     2.6662535667419434     
   4.8300000000000010E-002     2.9032251834869385     
   4.8600000000000004E-002     2.7004451751708984     
   4.8899999999999999E-002     2.1344411373138428     
   4.9200000000000008E-002     1.3078508377075195     
   4.9500000000000002E-002    0.33993065357208252     
   4.9800000000000011E-002   -0.64668744802474976     
   5.0100000000000006E-002    -1.5347949266433716     
   5.0400000000000000E-002    -2.2264285087585449     
   5.0700000000000009E-002    -2.6477656364440918     
   5.1000000000000004E-002    -2.7567636966705322     
   5.1299999999999998E-002    -2.5441997051239014     
   5.1600000000000007E-002    -2.0291705131530762     
   5.1900000000000002E-002    -1.2587848901748657     
   5.2200000000000010E-002   -0.29551926255226135     
   5.2500000000000005E-002    0.78783774375915527     
   5.2800000000000000E-002     1.9179183244705200     
   5.3099999999999994E-002     3.0305171012878418     
   5.3400000000000003E-002     4.0728797912597656     
   5.3699999999999998E-002     5.0107874870300293     
   5.4000000000000006E-002     5.8255896568298340     
   5.4300000000000001E-002     6.5141358375549316     
   5.4599999999999996E-002     7.0848784446716309     
   5.4900000000000004E-002     7.5519156455993652     
   5.5199999999999999E-002     7.9324536323547363     
   5.5499999999999994E-002     8.2400321960449219     
   5.5800000000000002E-002     8.4849014282226562     
   5.6099999999999997E-002     8.6718969345092773     
   5.6400000000000006E-002     8.8018198013305664     
   5.6700000000000000E-002     8.8739795684814453     
   5.6999999999999995E-002     8.8868913650512695     
   5.7300000000000004E-002     8.8401203155517578     
   5.7599999999999998E-002     8.7322387695312500     
   5.7900000000000007E-002     8.5605173110961914     
   5.8200000000000002E-002     8.3136959075927734     
   5.8499999999999996E-002     7.9674243927001953     
   5.8800000000000005E-002     7.4788227081298828     
   5.9100000000000000E-002     6.7807440757751465     
   5.9400000000000008E-002     5.7837300300598145     
   5.9700000000000003E-002     4.3755931854248047     
   6.0000000000000012E-002     2.4356753826141357     
   6.0300000000000006E-002   -0.15312027931213379     
   6.0600000000000001E-002    -3.4859848022460938     
   6.0900000000000010E-002    -7.6090559959411621     
   6.1200000000000004E-002    -12.506219863891602     
   6.1500000000000013E-002    -18.070550918579102     
   6.1800000000000008E-002    -24.103078842163086     
   6.2100000000000002E-002    -30.302862167358398     
   6.2399999999999997E-002    -36.279418945312500     
   6.2700000000000006E-002    -41.578624725341797     
   6.3000000000000000E-002    -45.704879760742188     
   6.3300000000000009E-002    -48.176792144775391     
   6.3600000000000004E-002    -48.559883117675781     
   6.3899999999999998E-002    -46.523303985595703     
   6.4199999999999993E-002    -41.876564025878906     
   6.4500000000000002E-002    -34.601985931396484     
   6.4800000000000010E-002    -24.880168914794922     
   6.5100000000000005E-002    -13.079030990600586     
   6.5400000000000000E-002    0.24780213832855225     
   6.5700000000000008E-002     14.405819892883301     
   6.5999999999999989E-002     28.601442337036133     
   6.6299999999999998E-002     41.998088836669922     
   6.6600000000000006E-002     53.788482666015625     
   6.6900000000000001E-002     63.242366790771484     
   6.7199999999999996E-002     69.780555725097656     
   6.7500000000000004E-002     73.007041931152344     
   6.7800000000000013E-002     72.738929748535156     
   6.8099999999999994E-002     69.028839111328125     
   6.8400000000000002E-002     62.138587951660156     
   6.8700000000000011E-002     52.534263610839844     
   6.8999999999999992E-002     40.831455230712891     
   6.9300000000000000E-002     27.751377105712891     
   6.9600000000000009E-002     14.067657470703125     
   6.9900000000000004E-002    0.53974694013595581     
   7.0199999999999999E-002    -12.123401641845703     
   7.0500000000000007E-002    -23.325931549072266     
   7.0800000000000016E-002    -32.598476409912109     
   7.1099999999999997E-002    -39.634323120117188     
   7.1400000000000005E-002    -44.284214019775391     
   7.1700000000000000E-002    -46.546661376953125     
   7.1999999999999995E-002    -46.568931579589844     
   7.2300000000000003E-002    -44.595924377441406     
   7.2600000000000012E-002    -40.966957092285156     
   7.2900000000000006E-002    -36.063735961914062     
   7.3200000000000001E-002    -30.287693023681641     
   7.3499999999999996E-002    -24.039152145385742     
   7.3800000000000004E-002    -17.678890228271484     
   7.4099999999999999E-002    -11.532388687133789     
   7.4400000000000008E-002    -5.8577828407287598     
   7.4700000000000003E-002   -0.85097795724868774     
   7.5000000000000011E-002     3.3538696765899658     
   7.5299999999999992E-002     6.6917166709899902     
   7.5600000000000001E-002     9.1465282440185547     
   7.5900000000000009E-002     10.756880760192871     
   7.6200000000000004E-002     11.596723556518555     
   7.6499999999999999E-002     11.771387100219727     
   7.6800000000000007E-002     11.404041290283203     
   7.7099999999999988E-002     10.623913764953613     
   7.7399999999999997E-002     9.5621910095214844     
   7.7700000000000005E-002     8.3385610580444336     
   7.8000000000000014E-002     7.0609145164489746     
   7.8299999999999995E-002     5.8133397102355957     
   7.8600000000000003E-002     4.6616168022155762     
   7.8900000000000012E-002     3.6469569206237793     
   7.9199999999999993E-002     2.7893471717834473     
   7.9500000000000001E-002     2.0951006412506104     
   7.9800000000000010E-002     1.5502208471298218     
   8.0100000000000018E-002     1.1398364305496216     
   8.0399999999999999E-002    0.83799779415130615     
   8.0700000000000008E-002    0.62280887365341187     
   8.1000000000000003E-002    0.47471731901168823     
   8.1299999999999997E-002    0.37342929840087891     
   8.1600000000000006E-002    0.31085455417633057     
   8.1900000000000014E-002    0.27510526776313782     
   8.2199999999999995E-002    0.26361766457557678     
   8.2500000000000004E-002    0.27151948213577271     
   8.2799999999999999E-002    0.29288500547409058     
   8.3100000000000007E-002    0.32653614878654480     
   8.3400000000000002E-002    0.36154612898826599     
   8.3700000000000011E-002    0.39416909217834473     
   8.4000000000000005E-002    0.41504037380218506     
   8.4300000000000000E-002    0.41905838251113892     
   8.4599999999999995E-002    0.40326377749443054     
   8.4900000000000003E-002    0.36373171210289001     
   8.5199999999999998E-002    0.30621790885925293     
   8.5500000000000007E-002    0.23187525570392609     
   8.5800000000000001E-002    0.14913821220397949     
   8.6100000000000010E-002     6.5185979008674622E-002
   8.6399999999999991E-002    -1.4573162421584129E-002
   8.6699999999999999E-002    -8.2843504846096039E-002
   8.7000000000000008E-002   -0.14162655174732208     
   8.7300000000000003E-002   -0.18750810623168945     
   8.7599999999999997E-002   -0.22493670880794525     
   8.7900000000000006E-002   -0.25781828165054321     
   8.8200000000000014E-002   -0.28839588165283203     
   8.8499999999999995E-002   -0.32274147868156433     
   8.8800000000000004E-002   -0.35947972536087036     
   8.9100000000000013E-002   -0.39951980113983154     
   8.9399999999999993E-002   -0.43822175264358521     
   8.9700000000000002E-002   -0.46996587514877319     
   9.0000000000000011E-002   -0.49105316400527954     
   9.0299999999999991E-002   -0.49483877420425415     
   9.0600000000000000E-002   -0.47931399941444397     
   9.0900000000000009E-002   -0.44289639592170715     
   9.1200000000000017E-002   -0.38861382007598877     
   9.1499999999999998E-002   -0.32181042432785034     
   9.1800000000000007E-002   -0.25049582123756409     
   9.2100000000000001E-002   -0.18242207169532776     
   9.2399999999999996E-002   -0.12559604644775391     
   9.2700000000000005E-002    -8.6521163582801819E-002
   9.3000000000000013E-002    -6.6891573369503021E-002
   9.3300000000000008E-002    -6.9997414946556091E-002
   9.3600000000000003E-002    -9.0090893208980560E-002
   9.3899999999999997E-002   -0.12248632311820984     
   9.4200000000000006E-002   -0.16009292006492615     
   9.4500000000000001E-002   -0.19272646307945251     
   9.4800000000000009E-002   -0.21793285012245178     
   9.5100000000000004E-002   -0.22761233150959015     
   9.5399999999999999E-002   -0.22233182191848755     
   9.5699999999999993E-002   -0.20297063887119293     
   9.6000000000000002E-002   -0.17180885374546051     
   9.6300000000000011E-002   -0.13859404623508453     
   9.6600000000000005E-002   -0.10581566393375397     
   9.6900000000000000E-002    -8.1974044442176819E-002
   9.7200000000000009E-002    -7.0348262786865234E-002
   9.7499999999999989E-002    -7.1883343160152435E-002
   9.7799999999999998E-002    -8.7424740195274353E-002
   9.8100000000000007E-002   -0.11015778034925461     
   9.8400000000000015E-002   -0.13561367988586426     
   9.8699999999999996E-002   -0.15558631718158722     
   9.9000000000000005E-002   -0.16275262832641602     
   9.9300000000000013E-002   -0.15311366319656372     
   9.9599999999999994E-002   -0.12279212474822998     
   9.9900000000000003E-002    -7.2821445763111115E-002
  0.10020000000000001         -7.6303663663566113E-003
  0.10049999999999999          6.5271638333797455E-002
  0.10080000000000000         0.13666743040084839     
  0.10110000000000001         0.19483567774295807     
  0.10140000000000000         0.23193913698196411     
  0.10170000000000000         0.24048325419425964     
  0.10200000000000001         0.21753774583339691     
  0.10230000000000002         0.16619464755058289     
  0.10260000000000000          9.0882293879985809E-002
  0.10290000000000001          4.6172100119292736E-003
  0.10320000000000000         -8.0732055008411407E-002
  0.10350000000000001        -0.15164415538311005     
  0.10380000000000000        -0.19382253289222717     
  0.10410000000000001        -0.20162458717823029     
  0.10440000000000001        -0.16832844913005829     
  0.10470000000000000         -9.8532065749168396E-002
  0.10500000000000000         -3.8080383092164993E-004
  0.10530000000000000         0.11363404989242554     
  0.10560000000000000         0.22301480174064636     
  0.10590000000000001         0.31343910098075867     
  0.10620000000000000         0.36760479211807251     
  0.10650000000000001         0.37456879019737244     
  0.10679999999999999         0.33191165328025818     
  0.10710000000000000         0.24160641431808472     
  0.10740000000000001         0.11778227239847183     
  0.10770000000000000         -2.1640432998538017E-002
  0.10800000000000000        -0.15209482610225677     
  0.10830000000000001        -0.24855665862560272     
  0.10859999999999999        -0.29009962081909180     
  0.10890000000000000        -0.26113083958625793     
  0.10920000000000001        -0.15579769015312195     
  0.10950000000000001          1.9445195794105530E-002
  0.10979999999999999         0.24650093913078308     
  0.11009999999999999         0.49704995751380920     
  0.11040000000000001         0.73346227407455444     
  0.11070000000000001         0.91628289222717285     
  0.11100000000000000          1.0070234537124634     
  0.11130000000000000         0.97560691833496094     
  0.11160000000000002         0.80523616075515747     
  0.11190000000000001         0.49324867129325867     
  0.11220000000000001          5.8894507586956024E-002
  0.11250000000000000        -0.46503585577011108     
  0.11280000000000000         -1.0275768041610718     
  0.11309999999999999         -1.5683445930480957     
  0.11340000000000001         -2.0254340171813965     
  0.11369999999999998         -2.3373897075653076     
  0.11400000000000000         -2.4580686092376709     
  0.11430000000000000         -2.3555545806884766     
  0.11460000000000002         -2.0219726562500000     
  0.11489999999999999         -1.4731211662292480     
  0.11520000000000001        -0.74622642993927002     
  0.11550000000000001          9.8840206861495972E-002
  0.11580000000000000         0.99235856533050537     
  0.11609999999999999          1.8541105985641479     
  0.11640000000000002          2.6079347133636475     
  0.11670000000000001          3.1869759559631348     
  0.11700000000000001          3.5385057926177979     
  0.11730000000000000          3.6331770420074463     
  0.11760000000000000          3.4618780612945557     
  0.11789999999999999          3.0411856174468994     
  0.11820000000000001          2.4075191020965576     
  0.11850000000000001          1.6124656200408936     
  0.11880000000000000         0.72074675559997559     
  0.11910000000000000        -0.20071099698543549     
  0.11940000000000002         -1.0843971967697144     
  0.11970000000000001         -1.8701103925704956     
  0.12000000000000001         -2.5107645988464355     
  0.12030000000000000         -2.9712510108947754     
  0.12060000000000000         -3.2331342697143555     
  0.12089999999999999         -3.2927923202514648     
  0.12119999999999999         -3.1601018905639648     
  0.12150000000000001         -2.8582890033721924     
  0.12180000000000001         -2.4175431728363037     
  0.12210000000000000         -1.8747001886367798     
  0.12239999999999999         -1.2708064317703247     
  0.12270000000000002        -0.64348542690277100     
  0.12300000000000001         -3.1577751040458679E-002
  0.12330000000000001         0.53148102760314941     
  0.12360000000000000          1.0202987194061279     
  0.12390000000000000          1.4111979007720947     
  0.12419999999999999          1.6932448148727417     
  0.12450000000000001          1.8595603704452515     
  0.12480000000000001          1.9101188182830811     
  0.12509999999999999          1.8556432723999023     
  0.12540000000000001          1.7060872316360474     
  0.12570000000000003          1.4834113121032715     
  0.12600000000000000          1.2073686122894287     
  0.12630000000000002         0.89862161874771118     
  0.12659999999999999         0.58384597301483154     
  0.12690000000000001         0.27938205003738403     
  0.12719999999999998          4.9993880093097687E-003
  0.12750000000000000        -0.22625473141670227     
  0.12780000000000002        -0.40852010250091553     
  0.12809999999999999        -0.53480142354965210     
  0.12840000000000001        -0.61000841856002808     
  0.12869999999999998        -0.63732105493545532     
  0.12900000000000000        -0.62357747554779053     
  0.12930000000000003        -0.58119016885757446     
  0.12959999999999999        -0.51644879579544067     
  0.12990000000000002        -0.43968456983566284     
  0.13019999999999998        -0.35967355966567993     
  0.13050000000000000        -0.27894112467765808     
  0.13080000000000003        -0.20458675920963287     
  0.13109999999999999        -0.13709163665771484     
  0.13140000000000002         -7.6732762157917023E-002
  0.13169999999999998         -2.6639206334948540E-002
  0.13200000000000001          1.7844930291175842E-002
  0.13229999999999997          5.3435195237398148E-002
  0.13260000000000000          8.0771490931510925E-002
  0.13290000000000002         0.10131288319826126     
  0.13319999999999999         0.10971897840499878     
  0.13350000000000001         0.11137726902961731     
  0.13380000000000003         0.10221577435731888     
  0.13410000000000000          8.3219513297080994E-002
  0.13440000000000002          5.9526432305574417E-002
  0.13469999999999999          2.8442643582820892E-002
  0.13500000000000001         -2.2081392817199230E-003
  0.13529999999999998         -3.1200088560581207E-002
  0.13560000000000000         -5.5814076215028763E-002
  0.13590000000000002         -6.9738686084747314E-002
  0.13619999999999999         -7.5728327035903931E-002
  0.13650000000000001         -6.9600008428096771E-002
  0.13680000000000003         -5.3835872560739517E-002
  0.13710000000000000         -3.1836118549108505E-002
  0.13740000000000002         -3.4776008687913418E-003
  0.13769999999999999          2.4479016661643982E-002
  0.13800000000000001          4.9982309341430664E-002
  0.13829999999999998          7.1010313928127289E-002
  0.13860000000000000          8.3675839006900787E-002
  0.13890000000000002          8.9436277747154236E-002
  0.13919999999999999          8.7328046560287476E-002
  0.13950000000000001          7.8987263143062592E-002
  0.13979999999999998          6.8815514445304871E-002
  0.14010000000000000          5.6434318423271179E-002
  0.14040000000000002          4.5288573950529099E-002
  0.14069999999999999          3.7482447922229767E-002
  0.14100000000000001          3.0826793983578682E-002
  0.14130000000000004          2.8316147625446320E-002
  0.14160000000000000          2.5982221588492393E-002
  0.14189999999999997          2.2890226915478706E-002
  0.14219999999999999          1.9063031300902367E-002
  0.14250000000000002          9.5137786120176315E-003
  0.14279999999999998         -2.2041902411729097E-003
  0.14310000000000000         -1.7768479883670807E-002
  0.14339999999999997         -3.5350736230611801E-002
  0.14369999999999999         -5.0310142338275909E-002
  0.14400000000000002         -6.3626758754253387E-002
  0.14429999999999998         -6.9545075297355652E-002
  0.14460000000000001         -6.8092212080955505E-002
  0.14490000000000003         -5.8634467422962189E-002
  0.14520000000000000         -4.0373422205448151E-002
  0.14550000000000002         -1.7904201522469521E-002
  0.14579999999999999          7.7982777729630470E-003
  0.14610000000000001          3.2691467553377151E-002
  0.14640000000000003          5.2996411919593811E-002
  0.14670000000000000          6.5810896456241608E-002
  0.14699999999999996          6.9226741790771484E-002
  0.14729999999999999          6.3651189208030701E-002
  0.14760000000000001          5.0489053130149841E-002
  0.14789999999999998          3.1783491373062134E-002
  0.14820000000000000          1.0286635719239712E-002