  -1.4999999999999999E-002     0.0000000000000000     
  -1.4700000000000000E-002     0.0000000000000000     
  -1.4400000000000000E-002     0.0000000000000000     
  -1.4100000000000000E-002     0.0000000000000000     
  -1.3800000000000000E-002     0.0000000000000000     
  -1.3500000000000000E-002     0.0000000000000000     
  -1.3200000000000000E-002     0.0000000000000000     
  -1.2899999999999998E-002     0.0000000000000000     
  -1.2600000000000000E-002     0.0000000000000000     
  -1.2299999999999998E-002     0.0000000000000000     
  -1.2000000000000000E-002     0.0000000000000000     
  -1.1699999999999999E-002     0.0000000000000000     
  -1.1399999999999999E-002     0.0000000000000000     
  -1.1099999999999999E-002     0.0000000000000000     
  -1.0799999999999999E-002     0.0000000000000000     
  -1.0499999999999999E-002     0.0000000000000000     
  -1.0199999999999999E-002     0.0000000000000000     
  -9.8999999999999991E-003     0.0000000000000000     
  -9.5999999999999992E-003     0.0000000000000000     
  -9.2999999999999992E-003     0.0000000000000000     
  -8.9999999999999993E-003     0.0000000000000000     
  -8.6999999999999994E-003     0.0000000000000000     
  -8.3999999999999995E-003     0.0000000000000000     
  -8.0999999999999996E-003     0.0000000000000000     
  -7.7999999999999988E-003     0.0000000000000000     
  -7.4999999999999997E-003     0.0000000000000000     
  -7.1999999999999998E-003     0.0000000000000000     
  -6.8999999999999981E-003     0.0000000000000000     
  -6.5999999999999982E-003     0.0000000000000000     
  -6.3000000000000000E-003     0.0000000000000000     
  -6.0000000000000001E-003     0.0000000000000000     
  -5.6999999999999985E-003     0.0000000000000000     
  -5.3999999999999986E-003     0.0000000000000000     
  -5.1000000000000004E-003     0.0000000000000000     
  -4.7999999999999987E-003     0.0000000000000000     
  -4.5000000000000005E-003     0.0000000000000000     
  -4.1999999999999989E-003     0.0000000000000000     
  -3.8999999999999990E-003     0.0000000000000000     
  -3.5999999999999990E-003     0.0000000000000000     
  -3.2999999999999991E-003     0.0000000000000000     
  -2.9999999999999992E-003     0.0000000000000000     
  -2.6999999999999993E-003     0.0000000000000000     
  -2.3999999999999994E-003     0.0000000000000000     
  -2.0999999999999977E-003     0.0000000000000000     
  -1.7999999999999995E-003     0.0000000000000000     
  -1.4999999999999979E-003     0.0000000000000000     
  -1.1999999999999997E-003     0.0000000000000000     
  -8.9999999999999976E-004     0.0000000000000000     
  -5.9999999999999810E-004     0.0000000000000000     
  -2.9999999999999992E-004     0.0000000000000000     
   0.0000000000000000          0.0000000000000000     
   3.0000000000000165E-004     0.0000000000000000     
   5.9999999999999984E-004     0.0000000000000000     
   9.0000000000000149E-004     0.0000000000000000     
   1.2000000000000031E-003     0.0000000000000000     
   1.5000000000000013E-003     0.0000000000000000     
   1.8000000000000030E-003     0.0000000000000000     
   2.1000000000000012E-003     0.0000000000000000     
   2.3999999999999994E-003     0.0000000000000000     
   2.7000000000000010E-003     0.0000000000000000     
   2.9999999999999992E-003     0.0000000000000000     
   3.3000000000000008E-003     0.0000000000000000     
   3.6000000000000025E-003     0.0000000000000000     
   3.9000000000000007E-003     0.0000000000000000     
   4.2000000000000023E-003     0.0000000000000000     
   4.5000000000000005E-003     0.0000000000000000     
   4.7999999999999987E-003     0.0000000000000000     
   5.1000000000000004E-003     0.0000000000000000     
   5.4000000000000020E-003     0.0000000000000000     
   5.7000000000000037E-003     0.0000000000000000     
   5.9999999999999984E-003     0.0000000000000000     
   6.3000000000000000E-003     0.0000000000000000     
   6.6000000000000017E-003     0.0000000000000000     
   6.9000000000000034E-003     0.0000000000000000     
   7.2000000000000015E-003     0.0000000000000000     
   7.5000000000000032E-003     0.0000000000000000     
   7.8000000000000014E-003     0.0000000000000000     
   8.0999999999999996E-003     0.0000000000000000     
   8.4000000000000012E-003     0.0000000000000000     
   8.7000000000000029E-003     0.0000000000000000     
   9.0000000000000011E-003     0.0000000000000000     
   9.2999999999999992E-003    -3.1732543854481915E-038
   9.6000000000000009E-003     6.4182952957747302E-036
   9.8999999999999991E-003    -3.3946692689438938E-035
   1.0200000000000001E-002    -3.8621652089758407E-034
   1.0500000000000002E-002     6.1421122666799977E-033
   1.0800000000000004E-002    -1.5882887347071162E-032
   1.1099999999999999E-002    -2.1577990262733740E-031
   1.1400000000000000E-002     2.0682471394808383E-030
   1.1700000000000002E-002    -3.4869029351605512E-030
   1.2000000000000004E-002    -5.1400464191739326E-029
   1.2300000000000002E-002     3.6987019951357781E-028
   1.2600000000000000E-002    -5.0584155173692150E-028
   1.2900000000000002E-002    -5.9927359409069672E-027
   1.3200000000000000E-002     3.7567121702483380E-026
   1.3500000000000002E-002    -5.9104084446858393E-026
   1.3800000000000003E-002    -3.4133747593547998E-025
   1.4100000000000001E-002     2.2046745368927593E-024
   1.4400000000000000E-002    -4.1363511357593039E-024
   1.4700000000000001E-002    -1.0695825014841549E-023
   1.4999999999999999E-002     8.5557543995540453E-023
   1.5300000000000001E-002    -1.9811549961384014E-022
   1.5600000000000003E-002    -1.6995621976687503E-022
   1.5899999999999997E-002     2.8611484705225571E-021
   1.6199999999999999E-002    -1.1228619770650760E-020
   1.6500000000000001E-002     2.7583332727255186E-020
   1.6800000000000002E-002    -5.1546709836476648E-020
   1.7100000000000004E-002     1.0710029548485723E-019
   1.7400000000000006E-002    -3.4557170979537293E-019
   1.7700000000000000E-002     1.0497478252259863E-018
   1.8000000000000002E-002    -8.6329076860372382E-019
   1.8300000000000004E-002    -1.4562061389020373E-017
   1.8600000000000005E-002     1.1952308541649041E-016
   1.8900000000000000E-002    -5.8551194830600874E-016
   1.9200000000000002E-002     2.0564486122006190E-015
   1.9500000000000003E-002    -4.3961607120726002E-015
   1.9799999999999998E-002    -4.9091522405335375E-015
   2.0100000000000000E-002     1.1440474219012731E-013
   2.0400000000000001E-002    -7.4011359107312158E-013
   2.0700000000000003E-002     3.3158376218367369E-012
   2.0999999999999998E-002    -1.1124494554703990E-011
   2.1299999999999999E-002     2.6042544856719196E-011
   2.1600000000000001E-002    -2.6180568130085291E-011
   2.1900000000000003E-002    -9.1723920125907910E-011
   2.2200000000000004E-002     5.1916576593313835E-010
   2.2500000000000006E-002    -1.0879283030007514E-009
   2.2800000000000001E-002     2.9381969079977921E-011
   2.3100000000000002E-002     5.6878395326975806E-009
   2.3400000000000004E-002    -1.1198167726433894E-008
   2.3699999999999999E-002    -8.1588158451495474E-009
   2.4000000000000000E-002     5.5953027100485997E-008
   2.4300000000000002E-002    -1.4403467751833432E-008
   2.4599999999999997E-002    -2.0294979208301811E-007
   2.4900000000000005E-002     5.9090382364956895E-008
   2.5200000000000000E-002     6.2165668168745469E-007
   2.5499999999999995E-002     2.6622736015724513E-008
   2.5800000000000003E-002    -1.6562815972065437E-006
   2.6099999999999998E-002    -8.5952865447325166E-007
   2.6400000000000007E-002     4.9102445700555108E-006
   2.6700000000000002E-002     1.1892406291735824E-005
   2.6999999999999996E-002     1.5160951988946181E-005
   2.7300000000000005E-002     1.8447950424160808E-005
   2.7600000000000000E-002     3.1783703889232129E-005
   2.7900000000000008E-002     5.8694160543382168E-005
   2.8200000000000003E-002     9.4115166575647891E-005
   2.8499999999999998E-002     1.3862013292964548E-004
   2.8800000000000006E-002     2.0722876070067286E-004
   2.9100000000000001E-002     3.1847605714574456E-004
   2.9400000000000003E-002     4.8234351561404765E-004
   2.9700000000000004E-002     7.0900353603065014E-004
   3.0000000000000006E-002     1.0257352842018008E-003
   3.0300000000000001E-002     1.4747849199920893E-003
   3.0600000000000002E-002     2.0972841884940863E-003
   3.0900000000000004E-002     2.9327597003430128E-003
   3.1199999999999999E-002     4.0363706648349762E-003
   3.1500000000000007E-002     5.4836301133036613E-003
   3.1800000000000002E-002     7.3522906750440598E-003
   3.2099999999999997E-002     9.7099263221025467E-003
   3.2400000000000005E-002     1.2623165734112263E-002
   3.2700000000000000E-002     1.6163488849997520E-002
   3.3000000000000002E-002     2.0385751500725746E-002
   3.3300000000000003E-002     2.5301458314061165E-002
   3.3599999999999998E-002     3.0873680487275124E-002
   3.3900000000000000E-002     3.7021059542894363E-002
   3.4200000000000001E-002     4.3602231889963150E-002
   3.4500000000000003E-002     5.0386518239974976E-002
   3.4799999999999998E-002     5.7046063244342804E-002
   3.5099999999999999E-002     6.3173897564411163E-002
   3.5400000000000001E-002     6.8299993872642517E-002
   3.5699999999999996E-002     7.1887403726577759E-002
   3.6000000000000004E-002     7.3354177176952362E-002
   3.6299999999999999E-002     7.2130940854549408E-002
   3.6600000000000008E-002     6.7716218531131744E-002
   3.6900000000000002E-002     5.9714965522289276E-002
   3.7199999999999997E-002     4.7881815582513809E-002
   3.7500000000000006E-002     3.2186172902584076E-002
   3.7800000000000000E-002     1.2863731943070889E-002
   3.8100000000000009E-002    -9.5672821626067162E-003
   3.8400000000000004E-002    -3.4310616552829742E-002
   3.8699999999999998E-002    -6.0320179909467697E-002
   3.9000000000000007E-002    -8.6336702108383179E-002
   3.9300000000000002E-002   -0.11095023155212402     
   3.9600000000000003E-002   -0.13272300362586975     
   3.9900000000000005E-002   -0.15031148493289948     
   4.0200000000000000E-002   -0.16256444156169891     
   4.0500000000000001E-002   -0.16862097382545471     
   4.0800000000000003E-002   -0.16802188754081726     
   4.1100000000000005E-002   -0.16078422963619232     
   4.1399999999999999E-002   -0.14742133021354675     
   4.1700000000000008E-002   -0.12892416119575500     
   4.2000000000000003E-002   -0.10669793933629990     
   4.2299999999999997E-002    -8.2483656704425812E-002
   4.2600000000000006E-002    -5.8244109153747559E-002
   4.2900000000000001E-002    -3.6000479012727737E-002
   4.3200000000000002E-002    -1.7665682360529900E-002
   4.3500000000000004E-002    -4.9137300811707973E-003
   4.3799999999999999E-002     9.4307516701519489E-004
   4.4100000000000000E-002    -9.2798552941530943E-004
   4.4400000000000002E-002    -1.0797943919897079E-002
   4.4700000000000004E-002    -2.8344724327325821E-002
   4.4999999999999998E-002    -5.2655484527349472E-002
   4.5300000000000000E-002    -8.2321062684059143E-002
   4.5600000000000002E-002   -0.11549833416938782     
   4.5899999999999996E-002   -0.14997309446334839     
   4.6200000000000005E-002   -0.18330930173397064     
   4.6500000000000000E-002   -0.21304169297218323     
   4.6799999999999994E-002   -0.23683989048004150     
   4.7100000000000003E-002   -0.25258833169937134     
   4.7399999999999998E-002   -0.25852566957473755     
   4.7700000000000006E-002   -0.25341087579727173     
   4.8000000000000001E-002   -0.23660872876644135     
   4.8300000000000010E-002   -0.20810434222221375     
   4.8600000000000004E-002   -0.16850286722183228     
   4.8899999999999999E-002   -0.11901793628931046     
   4.9200000000000008E-002    -6.1423297971487045E-002
   4.9500000000000002E-002     2.0777748432010412E-003
   4.9800000000000011E-002     6.9021224975585938E-002
   5.0100000000000006E-002    0.13682112097740173     
   5.0400000000000000E-002    0.20290113985538483     
   5.0700000000000009E-002    0.26485243439674377     
   5.1000000000000004E-002    0.32058963179588318     
   5.1299999999999998E-002    0.36847671866416931     
   5.1600000000000007E-002    0.40734407305717468     
   5.1900000000000002E-002    0.43649867177009583     
   5.2200000000000010E-002    0.45575088262557983     
   5.2500000000000005E-002    0.46537360548973083     
   5.2800000000000000E-002    0.46600744128227234     
   5.3099999999999994E-002    0.45851895213127136     
   5.3400000000000003E-002    0.44393265247344971     
   5.3699999999999998E-002    0.42335909605026245     
   5.4000000000000006E-002    0.39788106083869934     
   5.4300000000000001E-002    0.36846393346786499     
   5.4599999999999996E-002    0.33589205145835876     
   5.4900000000000004E-002    0.30078780651092529     
   5.5199999999999999E-002    0.26364153623580933     
   5.5499999999999994E-002    0.22481231391429901     
   5.5800000000000002E-002    0.18455217778682709     
   5.6099999999999997E-002    0.14307877421379089     
   5.6400000000000006E-002    0.10072453320026398     
   5.6700000000000000E-002     5.7986062020063400E-002
   5.6999999999999995E-002     1.5510651282966137E-002
   5.7300000000000004E-002    -2.5863977149128914E-002
   5.7599999999999998E-002    -6.5026558935642242E-002
   5.7900000000000007E-002   -0.10062975436449051     
   5.8200000000000002E-002   -0.13124005496501923     
   5.8499999999999996E-002   -0.15545760095119476     
   5.8800000000000005E-002   -0.17199137806892395     
   5.9100000000000000E-002   -0.17979604005813599     
   5.9400000000000008E-002   -0.17826744914054871     
   5.9700000000000003E-002   -0.16739721596240997     
   6.0000000000000012E-002   -0.14781388640403748     
   6.0300000000000006E-002   -0.12082606554031372     
   6.0600000000000001E-002    -8.8405586779117584E-002
   6.0900000000000010E-002    -5.3085144609212875E-002
   6.1200000000000004E-002    -1.7791431397199631E-002
   6.1500000000000013E-002     1.4368596486747265E-002
   6.1800000000000008E-002     4.0330938994884491E-002
   6.2100000000000002E-002     5.7373631745576859E-002
   6.2399999999999997E-002     6.3325889408588409E-002
   6.2700000000000006E-002     5.6759737432003021E-002
   6.3000000000000000E-002     3.7192404270172119E-002
   6.3300000000000009E-002     5.1562986336648464E-003
   6.3600000000000004E-002    -3.7827819585800171E-002
   6.3899999999999998E-002    -8.9356780052185059E-002
   6.4199999999999993E-002   -0.14621317386627197     
   6.4500000000000002E-002   -0.20457711815834045     
   6.4800000000000010E-002   -0.26033407449722290     
   6.5100000000000005E-002   -0.30930554866790771     
   6.5400000000000000E-002   -0.34752240777015686     
   6.5700000000000008E-002   -0.37154951691627502     
   6.5999999999999989E-002   -0.37866657972335815     
   6.6299999999999998E-002   -0.36709052324295044     
   6.6600000000000006E-002   -0.33619537949562073     
   6.6900000000000001E-002   -0.28655457496643066     
   6.7199999999999996E-002   -0.21992197632789612     
   6.7500000000000004E-002   -0.13916972279548645     
   6.7800000000000013E-002    -4.8210885375738144E-002
   6.8099999999999994E-002     4.8259764909744263E-002
   6.8400000000000002E-002    0.14513002336025238     
   6.8700000000000011E-002    0.23714245855808258     
   6.8999999999999992E-002    0.31922328472137451     
   6.9300000000000000E-002    0.38682374358177185     
   6.9600000000000009E-002    0.43623644113540649     
   6.9900000000000004E-002    0.46485045552253723     
   7.0199999999999999E-002    0.47120457887649536     
   7.0500000000000007E-002    0.45499828457832336     
   7.0800000000000016E-002    0.41702291369438171     
   7.1099999999999997E-002    0.35904768109321594     
   7.1400000000000005E-002    0.28360179066658020     
   7.1700000000000000E-002    0.19356456398963928     
   7.1999999999999995E-002     9.1957956552505493E-002
   7.2300000000000003E-002    -1.8194299191236496E-002
   7.2600000000000012E-002   -0.13399456441402435     
   7.2900000000000006E-002   -0.25283685326576233     
   7.3200000000000001E-002   -0.37243762612342834     
   7.3499999999999996E-002   -0.49059122800827026     
   7.3800000000000004E-002   -0.60503125190734863     
   7.4099999999999999E-002   -0.71339595317840576     
   7.4400000000000008E-002   -0.81310856342315674     
   7.4700000000000003E-002   -0.90121722221374512     
   7.5000000000000011E-002   -0.97441244125366211     
   7.5299999999999992E-002    -1.0292277336120605     
   7.5600000000000001E-002    -1.0622314214706421     
   7.5900000000000009E-002    -1.0702161788940430     
   7.6200000000000004E-002    -1.0505667924880981     
   7.6499999999999999E-002    -1.0015382766723633     
   7.6800000000000007E-002   -0.92246049642562866     
   7.7099999999999988E-002   -0.81397348642349243     
   7.7399999999999997E-002   -0.67812949419021606     
   7.7700000000000005E-002   -0.51827740669250488     
   7.8000000000000014E-002   -0.33888381719589233     
   7.8299999999999995E-002   -0.14541737735271454     
   7.8600000000000003E-002     5.6003659963607788E-002
   7.8900000000000012E-002    0.25893193483352661     
   7.9199999999999993E-002    0.45690721273422241     
   7.9500000000000001E-002    0.64360547065734863     
   7.9800000000000010E-002    0.81308680772781372     
   8.0100000000000018E-002    0.96008080244064331     
   8.0399999999999999E-002     1.0800735950469971     
   8.0700000000000008E-002     1.1692814826965332     
   8.1000000000000003E-002     1.2247815132141113     
   8.1299999999999997E-002     1.2447506189346313     
   8.1600000000000006E-002     1.2285901308059692     
   8.1900000000000014E-002     1.1768896579742432     
   8.2199999999999995E-002     1.0915570259094238     
   8.2500000000000004E-002    0.97612601518630981     
   8.2799999999999999E-002    0.83564209938049316     
   8.3100000000000007E-002    0.67642277479171753     
   8.3400000000000002E-002    0.50587809085845947     
   8.3700000000000011E-002    0.33229717612266541     
   8.4000000000000005E-002    0.16429024934768677     
   8.4300000000000000E-002     1.0046653449535370E-002
   8.4599999999999995E-002   -0.12325188517570496     
   8.4900000000000003E-002   -0.22985605895519257     
   8.5199999999999998E-002   -0.30598717927932739     
   8.5500000000000007E-002   -0.35025453567504883     
   8.5800000000000001E-002   -0.36385101079940796     
   8.6100000000000010E-002   -0.35030639171600342     
   8.6399999999999991E-002   -0.31507760286331177     
   8.6699999999999999E-002   -0.26507264375686646     
   8.7000000000000008E-002   -0.20796328783035278     
   8.7300000000000003E-002   -0.15140731632709503     
   8.7599999999999997E-002   -0.10218182206153870     
   8.7900000000000006E-002    -6.5488561987876892E-002
   8.8200000000000014E-002    -4.4456325471401215E-002
   8.8499999999999995E-002    -3.9815634489059448E-002
   8.8800000000000004E-002    -4.9963135272264481E-002
   8.9100000000000013E-002    -7.1109302341938019E-002
   8.9399999999999993E-002    -9.7667068243026733E-002
   8.9700000000000002E-002   -0.12288648635149002     
   9.0000000000000011E-002   -0.13970053195953369     
   9.0299999999999991E-002   -0.14156317710876465     
   9.0600000000000000E-002   -0.12309861928224564     
   9.0900000000000009E-002    -8.0745920538902283E-002
   9.1200000000000017E-002    -1.3330489397048950E-002
   9.1499999999999998E-002     7.7724307775497437E-002
   9.1800000000000007E-002    0.18838566541671753     
   9.2100000000000001E-002    0.31220188736915588     
   9.2399999999999996E-002    0.44066235423088074     
   9.2700000000000005E-002    0.56385624408721924     
   9.3000000000000013E-002    0.67113769054412842     
   9.3300000000000008E-002    0.75191801786422729     
   9.3600000000000003E-002    0.79649114608764648     
   9.3899999999999997E-002    0.79677486419677734     
   9.4200000000000006E-002    0.74701362848281860     
   9.4500000000000001E-002    0.64429265260696411     
   9.4800000000000009E-002    0.48890903592109680     
   9.5100000000000004E-002    0.28455400466918945     
   9.5399999999999999E-002     3.8256071507930756E-002
   9.5699999999999993E-002   -0.23984277248382568     
   9.6000000000000002E-002   -0.53706282377243042     
   9.6300000000000011E-002   -0.83879297971725464     
   9.6600000000000005E-002    -1.1292796134948730     
   9.6900000000000000E-002    -1.3925967216491699     
   9.7200000000000009E-002    -1.6136186122894287     
   9.7499999999999989E-002    -1.7788931131362915     
   9.7799999999999998E-002    -1.8774597644805908     
   9.8100000000000007E-002    -1.9015516042709351     
   9.8400000000000015E-002    -1.8470404148101807     
   9.8699999999999996E-002    -1.7136853933334351     
   9.9000000000000005E-002    -1.5052053928375244     
   9.9300000000000013E-002    -1.2288532257080078     
   9.9599999999999994E-002   -0.89494532346725464     
   9.9900000000000003E-002   -0.51638263463973999     
  0.10020000000000001        -0.10802768170833588     
  0.10049999999999999         0.31428825855255127     
  0.10080000000000000         0.73461586236953735     
  0.10110000000000001          1.1373926401138306     
  0.10140000000000000          1.5079967975616455     
  0.10170000000000000          1.8334456682205200     
  0.10200000000000001          2.1028079986572266     
  0.10230000000000002          2.3073627948760986     
  0.10260000000000000          2.4407355785369873     
  0.10290000000000001          2.4990363121032715     
  0.10320000000000000          2.4807507991790771     
  0.10350000000000001          2.3865602016448975     
  0.10380000000000000          2.2193279266357422     
  0.10410000000000001          1.9838540554046631     
  0.10440000000000001          1.6866010427474976     
  0.10470000000000000          1.3355244398117065     
  0.10500000000000000         0.93977075815200806     
  0.10530000000000000         0.50956434011459351     
  0.10560000000000000          5.6048505008220673E-002
  0.10590000000000001        -0.40906342864036560     
  0.10620000000000000        -0.87367779016494751     
  0.10650000000000001         -1.3254265785217285     
  0.10679999999999999         -1.7518163919448853     
  0.10710000000000000         -2.1405277252197266     
  0.10740000000000001         -2.4797351360321045     
  0.10770000000000000         -2.7582616806030273     
  0.10800000000000000         -2.9658520221710205     
  0.10830000000000001         -3.0934784412384033     
  0.10859999999999999         -3.1337847709655762     
  0.10890000000000000         -3.0815465450286865     
  0.10920000000000001         -2.9337382316589355     
  0.10950000000000001         -2.6899261474609375     
  0.10979999999999999         -2.3529059886932373     
  0.11009999999999999         -1.9289339780807495     
  0.11040000000000001         -1.4275981187820435     
  0.11070000000000001        -0.86203300952911377     
  0.11100000000000000        -0.24921801686286926     
  0.11130000000000000         0.39062628149986267     
  0.11160000000000002          1.0347976684570312     
  0.11190000000000001          1.6584908962249756     
  0.11220000000000001          2.2357170581817627     
  0.11250000000000000          2.7406804561614990     
  0.11280000000000000          3.1493902206420898     
  0.11309999999999999          3.4407699108123779     
  0.11340000000000001          3.5979599952697754     
  0.11369999999999998          3.6099059581756592     
  0.11400000000000000          3.4721901416778564     
  0.11430000000000000          3.1875724792480469     
  0.11460000000000002          2.7662363052368164     
  0.11489999999999999          2.2256057262420654     
  0.11520000000000001          1.5895559787750244     
  0.11550000000000001         0.88699716329574585     
  0.11580000000000000         0.15049505233764648     
  0.11609999999999999        -0.58537614345550537     
  0.11640000000000002         -1.2859930992126465     
  0.11670000000000001         -1.9187564849853516     
  0.11700000000000001         -2.4547400474548340     
  0.11730000000000000         -2.8699536323547363     
  0.11760000000000000         -3.1464629173278809     
  0.11789999999999999         -3.2734839916229248     
  0.11820000000000001         -3.2476756572723389     
  0.11850000000000001         -3.0729064941406250     
  0.11880000000000000         -2.7599029541015625     
  0.11910000000000000         -2.3258152008056641     
  0.11940000000000002         -1.7932276725769043     
  0.11970000000000001         -1.1887230873107910     
  0.12000000000000001        -0.54174453020095825     
  0.12030000000000000         0.11673899739980698     
  0.12060000000000000         0.75588834285736084     
  0.12089999999999999          1.3464415073394775     
  0.12119999999999999          1.8621625900268555     
  0.12150000000000001          2.2810964584350586     
  0.12180000000000001          2.5866842269897461     
  0.12210000000000000          2.7685379981994629     
  0.12239999999999999          2.8227469921112061     
  0.12270000000000002          2.7520718574523926     
  0.12300000000000001          2.5656316280364990     
  0.12330000000000001          2.2780380249023438     
  0.12360000000000000          1.9081981182098389     
  0.12390000000000000          1.4779411554336548     
  0.12419999999999999          1.0108560323715210     
  0.12450000000000001         0.53052854537963867     
  0.12480000000000001          5.8997869491577148E-002
  0.12509999999999999        -0.38418954610824585     
  0.12540000000000001        -0.78283095359802246     
  0.12570000000000003         -1.1248326301574707     
  0.12600000000000000         -1.4023201465606689     
  0.12630000000000002         -1.6112356185913086     
  0.12659999999999999         -1.7510360479354858     
  0.12690000000000001         -1.8245210647583008     
  0.12719999999999998         -1.8368847370147705     
  0.12750000000000000         -1.7948409318923950     
  0.12780000000000002         -1.7063088417053223     
  0.12809999999999999         -1.5800489187240601     
  0.12840000000000001         -1.4248808622360229     
  0.12869999999999998         -1.2492178678512573     
  0.12900000000000000         -1.0610297918319702     
  0.12930000000000003        -0.86741387844085693     
  0.12959999999999999        -0.67409497499465942     
  0.12990000000000002        -0.48526903986930847     
  0.13019999999999998        -0.30349946022033691     
  0.13050000000000000        -0.12960804998874664     
  0.13080000000000003          3.7360690534114838E-002
  0.13109999999999999         0.19975864887237549     
  0.13140000000000002         0.36089333891868591     
  0.13169999999999998         0.52419340610504150     
  0.13200000000000001         0.69240212440490723     
  0.13229999999999997         0.86683100461959839     
  0.13260000000000000          1.0465186834335327     
  0.13290000000000002          1.2274973392486572     
  0.13319999999999999          1.4025818109512329     
  0.13350000000000001          1.5616121292114258     
  0.13380000000000003          1.6918883323669434     
  0.13410000000000000          1.7790442705154419     
  0.13440000000000002          1.8085123300552368     
  0.13469999999999999          1.7670754194259644     
  0.13500000000000001          1.6444271802902222     
  0.13529999999999998          1.4346578121185303     
  0.13560000000000000          1.1374444961547852     
  0.13590000000000002         0.75884872674942017     
  0.13619999999999999         0.31162741780281067     
  0.13650000000000001        -0.18518279492855072     
  0.13680000000000003        -0.70728927850723267     
  0.13710000000000000         -1.2265607118606567     
  0.13740000000000002         -1.7129975557327271     
  0.13769999999999999         -2.1369032859802246     
  0.13800000000000001         -2.4709603786468506     
  0.13829999999999998         -2.6923954486846924     
  0.13860000000000000         -2.7850069999694824     
  0.13890000000000002         -2.7405500411987305     
  0.13919999999999999         -2.5589866638183594     
  0.13950000000000001         -2.2487592697143555     
  0.13979999999999998         -1.8265703916549683     
  0.14010000000000000         -1.3161193132400513     
  0.14040000000000002        -0.74600672721862793     
  0.14069999999999999        -0.14770451188087463     
  0.14100000000000001         0.44624817371368408     
  0.14130000000000004          1.0046578645706177     
  0.14160000000000000          1.5000144243240356     
  0.14189999999999997          1.9099197387695312     
  0.14219999999999999          2.2180094718933105     
  0.14250000000000002          2.4146068096160889     
  0.14279999999999998          2.4969329833984375     
  0.14310000000000000          2.4685113430023193     
  0.14339999999999997          2.3380296230316162     
  0.14369999999999999          2.1183516979217529     
  0.14400000000000002          1.8253018856048584     
  0.14429999999999998          1.4765055179595947     
  0.14460000000000001          1.0902737379074097     
  0.14490000000000003         0.68477547168731689     
  0.14520000000000000         0.27774098515510559     
  0.14550000000000002        -0.11380699276924133     
  0.14579999999999999        -0.47395369410514832     
  0.14610000000000001        -0.78800725936889648     
  0.14640000000000003         -1.0425269603729248     
  0.14670000000000000         -1.2257543802261353     
  0.14699999999999996         -1.3282866477966309     
  0.14729999999999999         -1.3438334465026855     
  0.14760000000000001         -1.2698525190353394     
  0.14789999999999998         -1.1085159778594971     
  0.14820000000000000        -0.86747074127197266     