  -1.4999999999999999E-002     0.0000000000000000     
  -1.4700000000000000E-002     0.0000000000000000     
  -1.4400000000000000E-002     0.0000000000000000     
  -1.4100000000000000E-002     0.0000000000000000     
  -1.3800000000000000E-002     0.0000000000000000     
  -1.3500000000000000E-002     0.0000000000000000     
  -1.3200000000000000E-002     0.0000000000000000     
  -1.2899999999999998E-002     0.0000000000000000     
  -1.2600000000000000E-002     0.0000000000000000     
  -1.2299999999999998E-002     0.0000000000000000     
  -1.2000000000000000E-002     5.7395836264894687E-036
  -1.1699999999999999E-002    -5.2459890715987524E-035
  -1.1399999999999999E-002    -7.4049274806691495E-034
  -1.1099999999999999E-002     9.0501121990711784E-032
  -1.0799999999999999E-002    -1.9761961516984543E-030
  -1.0499999999999999E-002     2.0277379114396371E-029
  -1.0199999999999999E-002    -7.8867788169098426E-029
  -9.8999999999999991E-003    -7.1086825360011186E-028
  -9.5999999999999992E-003     1.4045596002494206E-026
  -9.2999999999999992E-003    -1.2339757942514842E-025
  -8.9999999999999993E-003     7.4753805372662612E-025
  -8.6999999999999994E-003    -3.4899186725454932E-024
  -8.3999999999999995E-003     1.3093375254199940E-023
  -8.0999999999999996E-003    -4.0163559257443254E-023
  -7.7999999999999988E-003     1.0294429709298847E-022
  -7.4999999999999997E-003    -2.3195782177443880E-022
  -7.1999999999999998E-003     4.9911757063506829E-022
  -6.8999999999999981E-003    -1.0604273699377252E-021
  -6.5999999999999982E-003     1.6858712326687138E-021
  -6.3000000000000000E-003     2.2278199367329972E-021
  -6.0000000000000001E-003    -3.5167984408301177E-020
  -5.6999999999999985E-003     1.7243248075506440E-019
  -5.3999999999999986E-003    -5.4420698468473566E-019
  -5.1000000000000004E-003     1.1573262828036875E-018
  -4.7999999999999987E-003    -1.2457725698009200E-018
  -4.5000000000000005E-003    -2.0652286596011978E-018
  -4.1999999999999989E-003     1.5146189867825720E-017
  -3.8999999999999990E-003    -4.6635642224906749E-017
  -3.5999999999999990E-003     9.9140633821689662E-017
  -3.2999999999999991E-003    -1.5127280519022757E-016
  -2.9999999999999992E-003     1.3649849918219344E-016
  -2.6999999999999993E-003     5.6634872784688665E-017
  -2.3999999999999994E-003    -5.2766769776109814E-016
  -2.0999999999999977E-003     1.2626124045283225E-015
  -1.7999999999999995E-003    -2.1023175638768075E-015
  -1.4999999999999979E-003     2.8676183962264091E-015
  -1.1999999999999997E-003    -3.3612391282165878E-015
  -8.9999999999999976E-004     2.5508238387885645E-015
  -5.9999999999999810E-004     3.1070055772299985E-015
  -2.9999999999999992E-004    -1.9535591812844602E-014
   0.0000000000000000          4.8071877695957804E-014
   3.0000000000000165E-004    -7.1793624918745774E-014
   5.9999999999999984E-004     5.0662646549747697E-014
   9.0000000000000149E-004     5.0139298772957155E-014
   1.2000000000000031E-003    -2.0247258730732298E-013
   1.5000000000000013E-003     2.9826241845255785E-013
   1.8000000000000030E-003    -2.7643967843993256E-013
   2.1000000000000012E-003     3.7662619334008496E-013
   2.3999999999999994E-003    -1.1449508875716052E-012
   2.7000000000000010E-003     2.4291198393033842E-012
   2.9999999999999992E-003    -1.7848980756948740E-012
   3.3000000000000008E-003    -4.8849682979246190E-013
   3.6000000000000025E-003    -2.7717866196708130E-011
   3.9000000000000007E-003     1.9208018509075941E-010
   4.2000000000000023E-003    -5.4422893969174879E-010
   4.5000000000000005E-003     3.3910407815085364E-010
   4.7999999999999987E-003     3.1371281128400597E-009
   5.1000000000000004E-003    -1.2173881458465985E-008
   5.4000000000000020E-003     1.4315870267012087E-008
   5.7000000000000037E-003     3.3374114138950972E-008
   5.9999999999999984E-003    -1.3871142812149628E-007
   6.3000000000000000E-003     6.8941929498578247E-008
   6.6000000000000017E-003     5.0680080221354729E-007
   6.9000000000000034E-003    -7.3525035304555786E-007
   7.2000000000000015E-003    -1.5679452189942822E-006
   7.5000000000000032E-003     2.6276261451130267E-006
   7.8000000000000014E-003     4.9866589506564196E-006
   8.0999999999999996E-003    -6.0763009059883188E-006
   8.4000000000000012E-003    -1.5616771634086035E-005
   8.7000000000000029E-003     1.1545127563294955E-005
   9.0000000000000011E-003     7.2959468525368720E-005
   9.2999999999999992E-003     1.1838159844046459E-004
   9.6000000000000009E-003     1.3210081669967622E-004
   9.8999999999999991E-003     1.7849955474957824E-004
   1.0200000000000001E-002     3.2187995384447277E-004
   1.0500000000000002E-002     5.4862594697624445E-004
   1.0800000000000004E-002     8.2567951176315546E-004
   1.1099999999999999E-002     1.2064261827617884E-003
   1.1400000000000000E-002     1.8161771586164832E-003
   1.1700000000000002E-002     2.7475794777274132E-003
   1.2000000000000004E-002     4.0489388629794121E-003
   1.2300000000000002E-002     5.8356821537017822E-003
   1.2600000000000000E-002     8.3359749987721443E-003
   1.2900000000000002E-002     1.1785535141825676E-002
   1.3200000000000000E-002     1.6370821744203568E-002
   1.3500000000000002E-002     2.2340027615427971E-002
   1.3800000000000003E-002     3.0060565099120140E-002
   1.4100000000000001E-002     3.9875756949186325E-002
   1.4400000000000000E-002     5.1991865038871765E-002
   1.4700000000000001E-002     6.6565684974193573E-002
   1.4999999999999999E-002     8.3753168582916260E-002
   1.5300000000000001E-002    0.10352279990911484     
   1.5600000000000003E-002    0.12545493245124817     
   1.5899999999999997E-002    0.14877012372016907     
   1.6199999999999999E-002    0.17239944636821747     
   1.6500000000000001E-002    0.19484086334705353     
   1.6800000000000002E-002    0.21397069096565247     
   1.7100000000000004E-002    0.22712773084640503     
   1.7400000000000006E-002    0.23133257031440735     
   1.7700000000000000E-002    0.22336772084236145     
   1.8000000000000002E-002    0.19982330501079559     
   1.8300000000000004E-002    0.15741083025932312     
   1.8600000000000005E-002     9.3481071293354034E-002
   1.8900000000000000E-002     6.3840355724096298E-003
   1.9200000000000002E-002   -0.10433524847030640     
   1.9500000000000003E-002   -0.23761978745460510     
   1.9799999999999998E-002   -0.39042505621910095     
   2.0100000000000000E-002   -0.55741852521896362     
   2.0400000000000001E-002   -0.73117268085479736     
   2.0700000000000003E-002   -0.90262246131896973     
   2.0999999999999998E-002    -1.0613470077514648     
   2.1299999999999999E-002    -1.1959109306335449     
   2.1600000000000001E-002    -1.2948242425918579     
   2.1900000000000003E-002    -1.3477721214294434     
   2.2200000000000004E-002    -1.3463798761367798     
   2.2500000000000006E-002    -1.2848343849182129     
   2.2800000000000001E-002    -1.1607648134231567     
   2.3100000000000002E-002   -0.97591984272003174     
   2.3400000000000004E-002   -0.73616629838943481     
   2.3699999999999999E-002   -0.45103189349174500     
   2.4000000000000000E-002   -0.13318404555320740     
   2.4300000000000002E-002    0.20210805535316467     
   2.4599999999999997E-002    0.53813004493713379     
   2.4900000000000005E-002    0.85826349258422852     
   2.5200000000000000E-002     1.1472460031509399     
   2.5499999999999995E-002     1.3917775154113770     
   2.5800000000000003E-002     1.5813399553298950     
   2.6099999999999998E-002     1.7091948986053467     
   2.6400000000000007E-002     1.7725620269775391     
   2.6700000000000002E-002     1.7719074487686157     
   2.6999999999999996E-002     1.7105151414871216     
   2.7300000000000005E-002     1.5942721366882324     
   2.7600000000000000E-002     1.4309222698211670     
   2.7900000000000008E-002     1.2288906574249268     
   2.8200000000000003E-002    0.99653470516204834     
   2.8499999999999998E-002    0.74205529689788818     
   2.8800000000000006E-002    0.47320932149887085     
   2.9100000000000001E-002    0.19707843661308289     
   2.9400000000000003E-002    -7.9806074500083923E-002
   2.9700000000000004E-002   -0.35084196925163269     
   3.0000000000000006E-002   -0.60891515016555786     
   3.0300000000000001E-002   -0.84614622592926025     
   3.0600000000000002E-002    -1.0538679361343384     
   3.0900000000000004E-002    -1.2223956584930420     
   3.1199999999999999E-002    -1.3408763408660889     
   3.1500000000000007E-002    -1.3979554176330566     
   3.1800000000000002E-002    -1.3830538988113403     
   3.2099999999999997E-002    -1.2871903181076050     
   3.2400000000000005E-002    -1.1037843227386475     
   3.2700000000000000E-002   -0.82999867200851440     
   3.3000000000000002E-002   -0.46816214919090271     
   3.3300000000000003E-002    -2.6336662471294403E-002
   3.3599999999999998E-002    0.48160037398338318     
   3.3900000000000000E-002     1.0356386899948120     
   3.4200000000000001E-002     1.6100596189498901     
   3.4500000000000003E-002     2.1748769283294678     
   3.4799999999999998E-002     2.6976275444030762     
   3.5099999999999999E-002     3.1450734138488770     
   3.5400000000000001E-002     3.4852874279022217     
   3.5699999999999996E-002     3.6902978420257568     
   3.6000000000000004E-002     3.7384903430938721     
   3.6299999999999999E-002     3.6159124374389648     
   3.6600000000000008E-002     3.3175096511840820     
   3.6900000000000002E-002     2.8486368656158447     
   3.7199999999999997E-002     2.2252018451690674     
   3.7500000000000006E-002     1.4725971221923828     
   3.7800000000000000E-002    0.62446635961532593     
   3.8100000000000009E-002   -0.27838227152824402     
   3.8400000000000004E-002    -1.1900662183761597     
   3.8699999999999998E-002    -2.0629289150238037     
   3.9000000000000007E-002    -2.8503644466400146     
   3.9300000000000002E-002    -3.5086698532104492     
   3.9600000000000003E-002    -4.0001125335693359     
   3.9900000000000005E-002    -4.2962894439697266     
   4.0200000000000000E-002    -4.3798494338989258     
   4.0500000000000001E-002    -4.2452640533447266     
   4.0800000000000003E-002    -3.9003398418426514     
   4.1100000000000005E-002    -3.3673758506774902     
   4.1399999999999999E-002    -2.6822719573974609     
   4.1700000000000008E-002    -1.8923069238662720     
   4.2000000000000003E-002    -1.0545678138732910     
   4.2299999999999997E-002   -0.23386383056640625     
   4.2600000000000006E-002    0.50177031755447388     
   4.2900000000000001E-002     1.0855841636657715     
   4.3200000000000002E-002     1.4559243917465210     
   4.3500000000000004E-002     1.5608623027801514     
   4.3799999999999999E-002     1.3630999326705933     
   4.4100000000000000E-002    0.84387642145156860     
   4.4400000000000002E-002     5.7074762880802155E-003
   4.4700000000000004E-002    -1.1256309747695923     
   4.4999999999999998E-002    -2.5001194477081299     
   4.5300000000000000E-002    -4.0451602935791016     
   4.5600000000000002E-002    -5.6686329841613770     
   4.5899999999999996E-002    -7.2629966735839844     
   4.6200000000000005E-002    -8.7115335464477539     
   4.6500000000000000E-002    -9.8960266113281250     
   4.6799999999999994E-002    -10.704964637756348     
   4.7100000000000003E-002    -11.041841506958008     
   4.7399999999999998E-002    -10.832927703857422     
   4.7700000000000006E-002    -10.033824920654297     
   4.8000000000000001E-002    -8.6350259780883789     
   4.8300000000000010E-002    -6.6644577980041504     
   4.8600000000000004E-002    -4.1869235038757324     
   4.8899999999999999E-002    -1.3014105558395386     
   4.9200000000000008E-002     1.8637721538543701     
   4.9500000000000002E-002     5.1589202880859375     
   4.9800000000000011E-002     8.4236984252929688     
   5.0100000000000006E-002     11.497447967529297     
   5.0400000000000000E-002     14.228531837463379     
   5.0700000000000009E-002     16.484483718872070     
   5.1000000000000004E-002     18.160978317260742     
   5.1299999999999998E-002     19.187324523925781     
   5.1600000000000007E-002     19.528699874877930     
   5.1900000000000002E-002     19.186594009399414     
   5.2200000000000010E-002     18.196683883666992     
   5.2500000000000005E-002     16.624263763427734     
   5.2800000000000000E-002     14.557160377502441     
   5.3099999999999994E-002     12.098374366760254     
   5.3400000000000003E-002     9.3596134185791016     
   5.3699999999999998E-002     6.4545288085937500     
   5.4000000000000006E-002     3.4925982952117920     
   5.4300000000000001E-002    0.57495576143264771     
   5.4599999999999996E-002    -2.2076568603515625     
   5.4900000000000004E-002    -4.7761311531066895     
   5.5199999999999999E-002    -7.0636367797851562     
   5.5499999999999994E-002    -9.0149965286254883     
   5.5800000000000002E-002    -10.585490226745605     
   5.6099999999999997E-002    -11.741419792175293     
   5.6400000000000006E-002    -12.460174560546875     
   5.6700000000000000E-002    -12.730306625366211     
   5.6999999999999995E-002    -12.553035736083984     
   5.7300000000000004E-002    -11.944644927978516     
   5.7599999999999998E-002    -10.937392234802246     
   5.7900000000000007E-002    -9.5797662734985352     
   5.8200000000000002E-002    -7.9366145133972168     
   5.8499999999999996E-002    -6.0881628990173340     
   5.8800000000000005E-002    -4.1265110969543457     
   5.9100000000000000E-002    -2.1505465507507324     
   5.9400000000000008E-002   -0.26077494025230408     
   5.9700000000000003E-002     1.4465802907943726     
   6.0000000000000012E-002     2.8864336013793945     
   6.0300000000000006E-002     3.9915924072265625     
   6.0600000000000001E-002     4.7175483703613281     
   6.0900000000000010E-002     5.0450835227966309     
   6.1200000000000004E-002     4.9817929267883301     
   6.1500000000000013E-002     4.5614399909973145     
   6.1800000000000008E-002     3.8403806686401367     
   6.2100000000000002E-002     2.8925893306732178     
   6.2399999999999997E-002     1.8035016059875488     
   6.2700000000000006E-002    0.66227519512176514     
   6.3000000000000000E-002   -0.44542238116264343     
   6.3300000000000009E-002    -1.4434366226196289     
   6.3600000000000004E-002    -2.2709436416625977     
   6.3899999999999998E-002    -2.8871037960052490     
   6.4199999999999993E-002    -3.2725574970245361     
   6.4500000000000002E-002    -3.4286420345306396     
   6.4800000000000010E-002    -3.3758623600006104     
   6.5100000000000005E-002    -3.1509323120117188     
   6.5400000000000000E-002    -2.8010830879211426     
   6.5700000000000008E-002    -2.3788821697235107     
   6.5999999999999989E-002    -1.9369777441024780     
   6.6299999999999998E-002    -1.5231692790985107     
   6.6600000000000006E-002    -1.1763072013854980     
   6.6900000000000001E-002   -0.92336112260818481     
   6.7199999999999996E-002   -0.77826124429702759     
   6.7500000000000004E-002   -0.74188888072967529     
   6.7800000000000013E-002   -0.80348795652389526     
   6.8099999999999994E-002   -0.94294655323028564     
   6.8400000000000002E-002    -1.1336404085159302     
   6.8700000000000011E-002    -1.3463547229766846     
   6.8999999999999992E-002    -1.5520834922790527     
   6.9300000000000000E-002    -1.7242871522903442     
   6.9600000000000009E-002    -1.8418009281158447     
   6.9900000000000004E-002    -1.8901261091232300     
   7.0199999999999999E-002    -1.8612741231918335     
   7.0500000000000007E-002    -1.7534469366073608     
   7.0800000000000016E-002    -1.5713920593261719     
   7.1099999999999997E-002    -1.3248307704925537     
   7.1400000000000005E-002    -1.0260163545608521     
   7.1700000000000000E-002   -0.68927228450775146     
   7.1999999999999995E-002   -0.33011665940284729     
   7.2300000000000003E-002     3.6789696663618088E-002
   7.2600000000000012E-002    0.39942482113838196     
   7.2900000000000006E-002    0.74859666824340820     
   7.3200000000000001E-002     1.0785834789276123     
   7.3499999999999996E-002     1.3885992765426636     
   7.3800000000000004E-002     1.6831275224685669     
   7.4099999999999999E-002     1.9713697433471680     
   7.4400000000000008E-002     2.2665207386016846     
   7.4700000000000003E-002     2.5842425823211670     
   7.5000000000000011E-002     2.9409754276275635     
   7.5299999999999992E-002     3.3514025211334229     
   7.5600000000000001E-002     3.8252480030059814     
   7.5900000000000009E-002     4.3648686408996582     
   7.6200000000000004E-002     4.9636425971984863     
   7.6499999999999999E-002     5.6049327850341797     
   7.6800000000000007E-002     6.2631096839904785     
   7.7099999999999988E-002     6.9057216644287109     
   7.7399999999999997E-002     7.4969849586486816     
   7.7700000000000005E-002     8.0024633407592773     
   7.8000000000000014E-002     8.3947210311889648     
   7.8299999999999995E-002     8.6578664779663086     
   7.8600000000000003E-002     8.7891445159912109     
   7.8900000000000012E-002     8.8001155853271484     
   7.9199999999999993E-002     8.7156305313110352     
   7.9500000000000001E-002     8.5680131912231445     
   7.9800000000000010E-002     8.3891344070434570     
   8.0100000000000018E-002     8.2018480300903320     
   8.0399999999999999E-002     8.0116567611694336     
   8.0700000000000008E-002     7.7986240386962891     
   8.1000000000000003E-002     7.5117111206054688     
   8.1299999999999997E-002     7.0686902999877930     
   8.1600000000000006E-002     6.3610935211181641     
   8.1900000000000014E-002     5.2633886337280273     
   8.2199999999999995E-002     3.6462571620941162     
   8.2500000000000004E-002     1.3955619335174561     
   8.2799999999999999E-002    -1.5683867931365967     
   8.3100000000000007E-002    -5.2731161117553711     
   8.3400000000000002E-002    -9.6790933609008789     
   8.3700000000000011E-002    -14.668380737304688     
   8.4000000000000005E-002    -20.042337417602539     
   8.4300000000000000E-002    -25.528245925903320     
   8.4599999999999995E-002    -30.792648315429688     
   8.4900000000000003E-002    -35.462295532226562     
   8.5199999999999998E-002    -39.153575897216797     
   8.5500000000000007E-002    -41.505218505859375     
   8.5800000000000001E-002    -42.209682464599609     
   8.6100000000000010E-002    -41.043674468994141     
   8.6399999999999991E-002    -37.895095825195312     
   8.6699999999999999E-002    -32.779678344726562     
   8.7000000000000008E-002    -25.846834182739258     
   8.7300000000000003E-002    -17.377155303955078     
   8.7599999999999997E-002    -7.7679562568664551     
   8.7900000000000006E-002     2.4938931465148926     
   8.8200000000000014E-002     12.865213394165039     
   8.8499999999999995E-002     22.783687591552734     
   8.8800000000000004E-002     31.708911895751953     
   8.9100000000000013E-002     39.162189483642578     
   8.9399999999999993E-002     44.759170532226562     
   8.9700000000000002E-002     48.236095428466797     
   9.0000000000000011E-002     49.465145111083984     
   9.0299999999999991E-002     48.459239959716797     
   9.0600000000000000E-002     45.366619110107422     
   9.0900000000000009E-002     40.453365325927734     
   9.1200000000000017E-002     34.078163146972656     
   9.1499999999999998E-002     26.663570404052734     
   9.1800000000000007E-002     18.663789749145508     
   9.2100000000000001E-002     10.531139373779297     
   9.2399999999999996E-002     2.6864140033721924     
   9.2700000000000005E-002    -4.5046415328979492     
   9.3000000000000013E-002    -10.749330520629883     
   9.3300000000000008E-002    -15.839109420776367     
   9.3600000000000003E-002    -19.652753829956055     
   9.3899999999999997E-002    -22.153594970703125     
   9.4200000000000006E-002    -23.381696701049805     
   9.4500000000000001E-002    -23.441518783569336     
   9.4800000000000009E-002    -22.486459732055664     
   9.5100000000000004E-002    -20.704360961914062     
   9.5399999999999999E-002    -18.302408218383789     
   9.5699999999999993E-002    -15.490710258483887     
   9.6000000000000002E-002    -12.471332550048828     
   9.6300000000000011E-002    -9.4286279678344727     
   9.6600000000000005E-002    -6.5201668739318848     
   9.6900000000000000E-002    -3.8711745738983154     
   9.7200000000000009E-002    -1.5727052688598633     
   9.7499999999999989E-002    0.31820300221443176     
   9.7799999999999998E-002     1.7778040170669556     
   9.8100000000000007E-002     2.8124864101409912     
   9.8400000000000015E-002     3.4532976150512695     
   9.8699999999999996E-002     3.7498304843902588     
   9.9000000000000005E-002     3.7635762691497803     
   9.9300000000000013E-002     3.5614874362945557     
   9.9599999999999994E-002     3.2106184959411621     
   9.9900000000000003E-002     2.7729744911193848     
  0.10020000000000001          2.3012456893920898     
  0.10049999999999999          1.8370548486709595     
  0.10080000000000000          1.4107758998870850     
  0.10110000000000001          1.0410554409027100     
  0.10140000000000000         0.73718076944351196     
  0.10170000000000000         0.50125676393508911     
  0.10200000000000001         0.32941961288452148     
  0.10230000000000002         0.21491806209087372     
  0.10260000000000000         0.15041354298591614     
  0.10290000000000001         0.12792687118053436     
  0.10320000000000000         0.13872119784355164     
  0.10350000000000001         0.17503789067268372     
  0.10380000000000000         0.23007385432720184     
  0.10410000000000001         0.29635608196258545     
  0.10440000000000001         0.36560815572738647     
  0.10470000000000000         0.43107420206069946     
  0.10500000000000000         0.48609092831611633     
  0.10530000000000000         0.52443015575408936     
  0.10560000000000000         0.54271453619003296     
  0.10590000000000001         0.53949892520904541     
  0.10620000000000000         0.51528918743133545     
  0.10650000000000001         0.47334945201873779     
  0.10679999999999999         0.41927108168601990     
  0.10710000000000000         0.35958313941955566     
  0.10740000000000001         0.30015394091606140     
  0.10770000000000000         0.24638272821903229     
  0.10800000000000000         0.20261229574680328     
  0.10830000000000001         0.17071849107742310     
  0.10859999999999999         0.15038490295410156     
  0.10890000000000000         0.13884362578392029     
  0.10920000000000001         0.13259850442409515     
  0.10950000000000001         0.12809397280216217     
  0.10979999999999999         0.12145519256591797     
  0.11009999999999999         0.10964803397655487     
  0.11040000000000001          9.1476999223232269E-002
  0.11070000000000001          6.7920237779617310E-002
  0.11100000000000000          4.0318332612514496E-002
  0.11130000000000000          1.1028672568500042E-002
  0.11160000000000002         -1.6835894435644150E-002
  0.11190000000000001         -4.0822844952344894E-002
  0.11220000000000001         -5.9125721454620361E-002
  0.11250000000000000         -7.0593625307083130E-002
  0.11280000000000000         -7.5910769402980804E-002
  0.11309999999999999         -7.6688840985298157E-002
  0.11340000000000001         -7.4517086148262024E-002
  0.11369999999999998         -7.0954859256744385E-002
  0.11400000000000000         -6.8158134818077087E-002
  0.11430000000000000         -6.7704752087593079E-002
  0.11460000000000002         -6.8985037505626678E-002
  0.11489999999999999         -7.1267843246459961E-002
  0.11520000000000001         -7.3945201933383942E-002
  0.11550000000000001         -7.5422078371047974E-002
  0.11580000000000000         -7.4306964874267578E-002
  0.11609999999999999         -6.9660246372222900E-002
  0.11640000000000002         -6.1030879616737366E-002
  0.11670000000000001         -4.9053657799959183E-002
  0.11700000000000001         -3.5096213221549988E-002
  0.11730000000000000         -2.1454736590385437E-002
  0.11760000000000000         -1.0434074327349663E-002
  0.11789999999999999         -4.1044056415557861E-003
  0.11820000000000001         -4.7350251115858555E-003
  0.11850000000000001         -1.3295034877955914E-002
  0.11880000000000000         -2.9871087521314621E-002
  0.11910000000000000         -5.3067877888679504E-002
  0.11940000000000002         -8.0412700772285461E-002
  0.11970000000000001        -0.10906843096017838     
  0.12000000000000001        -0.13522046804428101     
  0.12030000000000000        -0.15427407622337341     
  0.12060000000000000        -0.16237631440162659     
  0.12089999999999999        -0.15779010951519012     
  0.12119999999999999        -0.13967788219451904     
  0.12150000000000001        -0.10803938657045364     
  0.12180000000000001         -6.5532237291336060E-002
  0.12210000000000000         -1.6841759905219078E-002
  0.12239999999999999          3.2229132950305939E-002
  0.12270000000000002          7.5515143573284149E-002
  0.12300000000000001         0.10709928721189499     
  0.12330000000000001         0.12198855727910995     
  0.12360000000000000         0.11718416213989258     
  0.12390000000000000          9.2053376138210297E-002
  0.12419999999999999          4.9277063459157944E-002
  0.12450000000000001         -5.2333762869238853E-003
  0.12480000000000001         -6.4312160015106201E-002
  0.12509999999999999        -0.11909619718790054     
  0.12540000000000001        -0.16027291119098663     
  0.12570000000000003        -0.17981556057929993     
  0.12600000000000000        -0.17270709574222565     
  0.12630000000000002        -0.13792915642261505     
  0.12659999999999999         -7.8417323529720306E-002
  0.12690000000000001         -1.0399222373962402E-003
  0.12719999999999998          8.3428323268890381E-002
  0.12750000000000000         0.16189646720886230     
  0.12780000000000002         0.22102300822734833     
  0.12809999999999999         0.24996955692768097     
  0.12840000000000001         0.24171312153339386     
  0.12869999999999998         0.19380240142345428     
  0.12900000000000000         0.11070767045021057     
  0.12930000000000003          3.6375485360622406E-003
  0.12959999999999999        -0.11136528104543686     
  0.12990000000000002        -0.21509653329849243     
  0.13019999999999998        -0.28764277696609497     
  0.13050000000000000        -0.31191721558570862     
  0.13080000000000003        -0.27708360552787781     
  0.13109999999999999        -0.17947107553482056     
  0.13140000000000002         -2.4557603523135185E-002
  0.13169999999999998         0.17157305777072906     
  0.13200000000000001         0.38513883948326111     
  0.13229999999999997         0.58740842342376709     
  0.13260000000000000         0.74744021892547607     
  0.13290000000000002         0.83604425191879272     
  0.13319999999999999         0.83073943853378296     
  0.13350000000000001         0.71986043453216553     
  0.13380000000000003         0.50292086601257324     
  0.13410000000000000         0.19257870316505432     
  0.13440000000000002        -0.18587414920330048     
  0.13469999999999999        -0.59768956899642944     
  0.13500000000000001         -1.0013980865478516     
  0.13529999999999998         -1.3539780378341675     
  0.13560000000000000         -1.6159945726394653     
  0.13590000000000002         -1.7553534507751465     
  0.13619999999999999         -1.7509936094284058     
  0.13650000000000001         -1.5951111316680908     
  0.13680000000000003         -1.2946918010711670     
  0.13710000000000000        -0.87002784013748169     
  0.13740000000000002        -0.35295170545578003     
  0.13769999999999999         0.21574030816555023     
  0.13800000000000001         0.79120177030563354     
  0.13829999999999998          1.3284006118774414     
  0.13860000000000000          1.7852883338928223     
  0.13890000000000002          2.1267225742340088     
  0.13919999999999999          2.3278937339782715     
  0.13950000000000001          2.3755700588226318     
  0.13979999999999998          2.2677831649780273     
  0.14010000000000000          2.0141406059265137     
  0.14040000000000002          1.6352488994598389     
  0.14069999999999999          1.1603947877883911     
  0.14100000000000001         0.62407797574996948     
  0.14130000000000004          6.3403256237506866E-002
  0.14160000000000000        -0.48395079374313354     
  0.14189999999999997        -0.98272657394409180     
  0.14219999999999999         -1.4035267829895020     
  0.14250000000000002         -1.7238727807998657     
  0.14279999999999998         -1.9290744066238403     
  0.14310000000000000         -2.0132935047149658     
  0.14339999999999997         -1.9796528816223145     
  0.14369999999999999         -1.8388310670852661     
  0.14400000000000002         -1.6073797941207886     
  0.14429999999999998         -1.3072835206985474     
  0.14460000000000001        -0.96290469169616699     
  0.14490000000000003        -0.59808558225631714     
  0.14520000000000000        -0.23616969585418701     
  0.14550000000000002         0.10133698582649231     
  0.14579999999999999         0.39773839712142944     
  0.14610000000000001         0.64181721210479736     
  0.14640000000000003         0.82620108127593994     
  0.14670000000000000         0.94722688198089600     
  0.14699999999999996          1.0063166618347168     
  0.14729999999999999          1.0084682703018188     
  0.14760000000000001         0.96072089672088623     
  0.14789999999999998         0.87195205688476562     
  0.14820000000000000         0.75187587738037109     