  -1.4999999999999999E-002     0.0000000000000000     
  -1.4700000000000000E-002    -7.8866743453172434E-025
  -1.4400000000000000E-002    -2.4544739978340619E-020
  -1.4100000000000000E-002    -2.8412839355011822E-018
  -1.3800000000000000E-002     2.7860399024234798E-017
  -1.3500000000000000E-002     6.9732097439072119E-016
  -1.3200000000000000E-002    -1.4721062011749405E-015
  -1.2899999999999998E-002    -2.2892067911784807E-014
  -1.2600000000000000E-002    -2.1037737901981390E-015
  -1.2299999999999998E-002     3.1326416907372580E-013
  -1.2000000000000000E-002     2.4483226300307684E-013
  -1.1699999999999999E-002    -8.3751367609321877E-013
  -1.1399999999999999E-002    -4.0023746338328808E-012
  -1.1099999999999999E-002    -1.7504849174605541E-011
  -1.0799999999999999E-002     5.1658942669152489E-011
  -1.0499999999999999E-002     1.7774886669376474E-010
  -1.0199999999999999E-002    -4.2483119420946775E-010
  -9.8999999999999991E-003    -5.4848872743582506E-010
  -9.5999999999999992E-003     1.6829610651914872E-009
  -9.2999999999999992E-003    -1.4841888941479992E-010
  -8.9999999999999993E-003    -2.0011495218636199E-009
  -8.6999999999999994E-003     3.3061543554886035E-009
  -8.3999999999999995E-003    -3.9187444724979815E-009
  -8.0999999999999996E-003    -3.9118449851759564E-009
  -7.7999999999999988E-003     1.0156302683628578E-008
  -7.4999999999999997E-003     5.3214144107210795E-010
  -7.1999999999999998E-003    -4.7802397469727075E-009
  -6.8999999999999981E-003     2.3993159458069928E-009
  -6.5999999999999982E-003     1.0711901066840384E-008
  -6.3000000000000000E-003    -4.0201179105346220E-008
  -6.0000000000000001E-003    -3.6865583340229898E-008
  -5.6999999999999985E-003     1.0758325577955975E-007
  -5.3999999999999986E-003     4.5025737578575140E-008
  -5.1000000000000004E-003    -6.6469525054398160E-008
  -4.7999999999999987E-003    -5.9591702957021393E-008
  -4.5000000000000005E-003    -3.0992055809258115E-008
  -4.1999999999999989E-003     6.5739080356986433E-008
  -3.8999999999999990E-003    -1.4073211835387853E-007
  -3.5999999999999990E-003    -1.1311748478225412E-007
  -3.2999999999999991E-003     6.9294910188136022E-007
  -2.9999999999999992E-003     8.9425521235116949E-007
  -2.6999999999999993E-003    -1.8124444293557410E-006
  -2.3999999999999994E-003    -3.5322348270319544E-006
  -2.0999999999999977E-003     3.7757930825958356E-006
  -1.7999999999999995E-003     9.6846966131998067E-006
  -1.4999999999999979E-003    -5.2550423847588052E-006
  -1.1999999999999997E-003    -2.7084614811131476E-005
  -8.9999999999999976E-004     4.7809499330491372E-007
  -5.9999999999999810E-004     1.4081333518068285E-004
  -2.9999999999999992E-004     3.9638164752070504E-004
   0.0000000000000000          6.9088209094105967E-004
   3.0000000000000165E-004     9.8334916676059286E-004
   5.9999999999999984E-004     1.3574214623496145E-003
   9.0000000000000149E-004     1.9813377476276678E-003
   1.2000000000000031E-003     3.0565613817713083E-003
   1.5000000000000013E-003     4.7741020609339338E-003
   1.8000000000000030E-003     7.3011057735886259E-003
   2.1000000000000012E-003     1.0860511249879481E-002
   2.3999999999999994E-003     1.5857384619561155E-002
   2.7000000000000010E-003     2.2917432969552232E-002
   2.9999999999999992E-003     3.2762438021085749E-002
   3.3000000000000008E-003     4.6150473916022006E-002
   3.6000000000000025E-003     6.3942317258056880E-002
   3.9000000000000007E-003     8.7087339766283245E-002
   4.2000000000000023E-003    0.11656552566586664     
   4.5000000000000005E-003    0.15330697052117825     
   4.7999999999999987E-003    0.19802738466683056     
   5.1000000000000004E-003    0.25095138855653687     
   5.4000000000000020E-003    0.31150238876239911     
   5.7000000000000037E-003    0.37802627657294785     
   5.9999999999999984E-003    0.44750791775288690     
   6.3000000000000000E-003    0.51525694267766475     
   6.6000000000000017E-003    0.57453041927141513     
   6.9000000000000034E-003    0.61631018392513326     
   7.2000000000000015E-003    0.62928281542147246     
   7.5000000000000032E-003    0.60005306648502810     
   7.8000000000000014E-003    0.51371783559783957     
   8.0999999999999996E-003    0.35483747186597370     
   8.4000000000000012E-003    0.10881365162195777     
   8.7000000000000029E-003   -0.23655352374976069     
   9.0000000000000011E-003   -0.68911212578925074     
   9.2999999999999992E-003    -1.2501199082157344     
   9.6000000000000009E-003    -1.9120424213411642     
   9.8999999999999991E-003    -2.6566257114283438     
   1.0200000000000001E-002    -3.4536846710773332     
   1.0500000000000002E-002    -4.2607570669442651     
   1.0800000000000004E-002    -5.0239102390747092     
   1.1099999999999999E-002    -5.6797203545778956     
   1.1400000000000000E-002    -6.1587680269441876     
   1.1700000000000002E-002    -6.3903784599091864     
   1.2000000000000004E-002    -6.3084570447144586     
   1.2300000000000002E-002    -5.8577198117122578     
   1.2600000000000000E-002    -5.0006756603287101     
   1.2900000000000002E-002    -3.7230521332526081     
   1.3200000000000000E-002    -2.0381774887211392     
   1.3500000000000002E-002     1.0212074960218587E-002
   1.3800000000000003E-002     2.3476283065189705     
   1.4100000000000001E-002     4.8715708842681238     
   1.4400000000000000E-002     7.4559737375743858     
   1.4700000000000001E-002     9.9594164755729508     
   1.4999999999999999E-002     12.233796412751644     
   1.5300000000000001E-002     14.134610783885876     
   1.5600000000000003E-002     15.531717775042182     
   1.5899999999999997E-002     16.317627014662548     
   1.6199999999999999E-002     16.416519753490263     
   1.6500000000000001E-002     15.789047222596139     
   1.6800000000000002E-002     14.435281099908877     
   1.7100000000000004E-002     12.395240900414308     
   1.7400000000000006E-002     9.7449969145220052     
   1.7700000000000000E-002     6.5929603234976071     
   1.8000000000000002E-002     3.0725868976703978     
   1.8300000000000004E-002   -0.66500735241818631     
   1.8600000000000005E-002    -4.4580988919312574     
   1.8900000000000000E-002    -8.1438964569859991     
   1.9200000000000002E-002    -11.563164757567286     
   1.9500000000000003E-002    -14.568710528319997     
   1.9799999999999998E-002    -17.029579705827246     
   2.0100000000000000E-002    -18.835022660998675     
   2.0400000000000001E-002    -19.899917496472483     
   2.0700000000000003E-002    -20.166224276027435     
   2.0999999999999998E-002    -19.606589446124303     
   2.1299999999999999E-002    -18.227156393684936     
   2.1600000000000001E-002    -16.067283138260734     
   2.1900000000000003E-002    -13.202098276123252     
   2.2200000000000004E-002    -9.7406712859203424     
   2.2500000000000006E-002    -5.8220737946009109     
   2.2800000000000001E-002    -1.6129416796837894     
   2.3100000000000002E-002     2.7014062072844638     
   2.3400000000000004E-002     6.9264787130853165     
   2.3699999999999999E-002     10.867752927104704     
   2.4000000000000000E-002     14.345309964049918     
   2.4300000000000002E-002     17.202468480043194     
   2.4599999999999997E-002     19.317691196482485     
   2.4900000000000005E-002     20.612764798215380     
   2.5200000000000000E-002     21.053522327508006     
   2.5499999999999995E-002     20.653242609864208     
   2.5800000000000003E-002     19.464638722562654     
   2.6099999999999998E-002     17.570772703074681     
   2.6400000000000007E-002     15.074624094630053     
   2.6700000000000002E-002     12.081822961863622     
   2.6999999999999996E-002     8.6924074046865485     
   2.7300000000000005E-002     4.9879441413398382     
   2.7600000000000000E-002     1.0254405768398627     
   2.7900000000000008E-002    -3.1583717942827718     
   2.8200000000000003E-002    -7.5441713243575919     
   2.8499999999999998E-002    -12.114203177811106     
   2.8800000000000006E-002    -16.837502040131227     
   2.9100000000000001E-002    -21.650590111396305     
   2.9400000000000003E-002    -26.440408263268893     
   2.9700000000000004E-002    -31.033773255598589     
   3.0000000000000006E-002    -35.192654598252489     
   3.0300000000000001E-002    -38.620922035284764     
   3.0600000000000002E-002    -40.980634678263016     
   3.0900000000000004E-002    -41.921401537013367     
   3.1199999999999999E-002    -41.112824598101270     
   3.1500000000000007E-002    -38.287712765038805     
   3.1800000000000002E-002    -33.279435803246770     
   3.2099999999999997E-002    -26.057941605498968     
   3.2400000000000005E-002    -16.754603061921813     
   3.2700000000000000E-002    -5.6699343750686353     
   3.3000000000000002E-002     6.7256107804829526     
   3.3300000000000003E-002     19.822081947432935     
   3.3599999999999998E-002     32.903042247908502     
   3.3900000000000000E-002     45.196029088028581     
   3.4200000000000001E-002     55.938441300187264     
   3.4500000000000003E-002     64.428418794218146     
   3.4799999999999998E-002     70.091065420362980     
   3.5099999999999999E-002     72.522150437886182     
   3.5400000000000001E-002     71.521648508640055     
   3.5699999999999996E-002     67.116989824825623     
   3.6000000000000004E-002     59.550955537896698     
   3.6299999999999999E-002     49.273242651658620     
   3.6600000000000008E-002     36.897978270339877     
   3.6900000000000002E-002     23.155749695831503     
   3.7199999999999997E-002     8.8424756651639029     
   3.7500000000000006E-002    -5.2451906766791581     
   3.7800000000000000E-002    -18.360948622736259     
   3.8100000000000009E-002    -29.862118809504182     
   3.8400000000000004E-002    -39.246066782342268     
   3.8699999999999998E-002    -46.173781846793872     
   3.9000000000000007E-002    -50.485841968107479     
   3.9300000000000002E-002    -52.192567314659698     
   3.9600000000000003E-002    -51.461946028244824     
   3.9900000000000005E-002    -48.591825541117373     
   4.0200000000000000E-002    -43.973297213744218     
   4.0500000000000001E-002    -38.058265191864848     
   4.0800000000000003E-002    -31.315185705560111     
   4.1100000000000005E-002    -24.199946821356320     
   4.1399999999999999E-002    -17.124246263091493     
   4.1700000000000008E-002    -10.433166872393684     
   4.2000000000000003E-002    -4.3967760720340934     
   4.2299999999999997E-002    0.80223373448933444     
   4.2600000000000006E-002     5.0580492238215982     
   4.2900000000000001E-002     8.3404617761944451     
   4.3200000000000002E-002     10.678533264037185     
   4.3500000000000004E-002     12.145971850770252     
   4.3799999999999999E-002     12.851710609247931     
   4.4100000000000000E-002     12.917462870648656     
   4.4400000000000002E-002     12.476719753279355     
   4.4700000000000004E-002     11.657353200152102     
   4.4999999999999998E-002     10.578423370433939     
   4.5300000000000000E-002     9.3496154776452158     
   4.5600000000000002E-002     8.0598788816747913     
   4.5899999999999996E-002     6.7875838937187041     
   4.6200000000000005E-002     5.5914656739317934     
   4.6500000000000000E-002     4.5149466283506001     
   4.6799999999999994E-002     3.5877346713375999     
   4.7100000000000003E-002     2.8209854855527681     
   4.7399999999999998E-002     2.2168178492059241     
   4.7700000000000006E-002     1.7629670238988879     
   4.8000000000000001E-002     1.4391697796534402     
   4.8300000000000010E-002     1.2202863552632479     
   4.8600000000000004E-002     1.0762475165937389     
   4.8899999999999999E-002    0.97986984981308822     
   4.9200000000000008E-002    0.90681439016245946     
   4.9500000000000002E-002    0.83902328924076031     
   4.9800000000000011E-002    0.76562015646417336     
   5.0100000000000006E-002    0.68257876339736967     
   5.0400000000000000E-002    0.59160059722827896     
   5.0700000000000009E-002    0.49973186975586259     
   5.1000000000000004E-002    0.41423320105415762     
   5.1299999999999998E-002    0.34301424636880640     
   5.1600000000000007E-002    0.29115937063084196     
   5.1900000000000002E-002    0.25889306628461073     
   5.2200000000000010E-002    0.24504883346668072     
   5.2500000000000005E-002    0.24212609268416752     
   5.2800000000000000E-002    0.24363837021297674     
   5.3099999999999994E-002    0.24126808672208577     
   5.3400000000000003E-002    0.22792714437744088     
   5.3699999999999998E-002    0.20184091657346315     
   5.4000000000000006E-002    0.15978674439740814     
   5.4300000000000001E-002    0.10651096061766463     
   5.4599999999999996E-002     4.5363106238916151E-002
   5.4900000000000004E-002    -1.8167465148822004E-002
   5.5199999999999999E-002    -7.7415566744726494E-002
   5.5499999999999994E-002   -0.13177706479506490     
   5.5800000000000002E-002   -0.17727884411615724     
   5.6099999999999997E-002   -0.21831155749598796     
   5.6400000000000006E-002   -0.25746568454061691     
   5.6700000000000000E-002   -0.29788728111101026     
   5.6999999999999995E-002   -0.34627259499730023     
   5.7300000000000004E-002   -0.40068937050867071     
   5.7599999999999998E-002   -0.46421834518499772     
   5.7900000000000007E-002   -0.53153343568959244     
   5.8200000000000002E-002   -0.59582255748363977     
   5.8499999999999996E-002   -0.65232480981211438     
   5.8800000000000005E-002   -0.68926973915930745     
   5.9100000000000000E-002   -0.70429960338635311     
   5.9400000000000008E-002   -0.69223133167245621     
   5.9700000000000003E-002   -0.65311248377336639     
   6.0000000000000012E-002   -0.59364162350167504     
   6.0300000000000006E-002   -0.51775367900677693     
   6.0600000000000001E-002   -0.43785465999281747     
   6.0900000000000010E-002   -0.36234406940738317     
   6.1200000000000004E-002   -0.29853945434088125     
   6.1500000000000013E-002   -0.25421662411682178     
   6.1800000000000008E-002   -0.22898215082578499     
   6.2100000000000002E-002   -0.22268595117733625     
   6.2399999999999997E-002   -0.23113256180229591     
   6.2700000000000006E-002   -0.24540922651637587     
   6.3000000000000000E-002   -0.26090592614938402     
   6.3300000000000009E-002   -0.27054540978518382     
   6.3600000000000004E-002   -0.26981090371798189     
   6.3899999999999998E-002   -0.26069867008012881     
   6.4199999999999993E-002   -0.24177788699177238     
   6.4500000000000002E-002   -0.21978489119913291     
   6.4800000000000010E-002   -0.19944371350548185     
   6.5100000000000005E-002   -0.18196459640050744     
   6.5400000000000000E-002   -0.17534363679718901     
   6.5700000000000008E-002   -0.17463846412418782     
   6.5999999999999989E-002   -0.17945964595764075     
   6.6299999999999998E-002   -0.18575592646684358     
   6.6600000000000006E-002   -0.18161474349393414     
   6.6900000000000001E-002   -0.16720595015095396     
   6.7199999999999996E-002   -0.13143568631904046     
   6.7500000000000004E-002    -7.4854955739425799E-002
   6.7800000000000013E-002    -1.5425343288246740E-003
   6.8099999999999994E-002     8.8573188242011103E-002
   6.8400000000000002E-002    0.17853157404644926     
   6.8700000000000011E-002    0.26296072054013608     
   6.8999999999999992E-002    0.32801678772540033     
   6.9300000000000000E-002    0.36086431742658043     
   6.9600000000000009E-002    0.36122743296238546     
   6.9900000000000004E-002    0.32052121325298244     
   7.0199999999999999E-002    0.24755863545777901     
   7.0500000000000007E-002    0.15058320691823024     
   7.0800000000000016E-002     3.9534940277175190E-002
   7.1099999999999997E-002    -6.5087001375572662E-002
   7.1400000000000005E-002   -0.15371117251036814     
   7.1700000000000000E-002   -0.21080341407619763     
   7.1999999999999995E-002   -0.22724488085082317     
   7.2300000000000003E-002   -0.20434791992768186     
   7.2600000000000012E-002   -0.14077691359500610     
   7.2900000000000006E-002    -4.9030772542993484E-002
   7.3200000000000001E-002     5.7825145634743447E-002
   7.3499999999999996E-002    0.16686143905618422     
   7.3800000000000004E-002    0.25823122861082259     
   7.4099999999999999E-002    0.32290485059270946     
   7.4400000000000008E-002    0.35086717853928739     
   7.4700000000000003E-002    0.33808810671022771     
   7.5000000000000011E-002    0.29281634921053068     
   7.5299999999999992E-002    0.22028635965510546     
   7.5600000000000001E-002    0.13870576342612662     
   7.5900000000000009E-002     6.4502037185265704E-002
   7.6200000000000004E-002     1.1559955052701243E-002
   7.6499999999999999E-002    -1.6839360352670640E-003
   7.6800000000000007E-002     2.8266490818449785E-002
   7.7099999999999988E-002    0.10464592195950839     
   7.7399999999999997E-002    0.21953979817783509     
   7.7700000000000005E-002    0.35440527563864288     
   7.8000000000000014E-002    0.49127100775173904     
   7.8299999999999995E-002    0.59896603882558286     
   7.8600000000000003E-002    0.65338379353827003     
   7.8900000000000012E-002    0.62999115423836738     
   7.9199999999999993E-002    0.51035232762906357     
   7.9500000000000001E-002    0.29161061513508119     
   7.9800000000000010E-002    -2.3732793706159327E-002
   8.0100000000000018E-002   -0.41207289967158367     
   8.0399999999999999E-002   -0.84258326018607121     
   8.0700000000000008E-002    -1.2717291028518183     
   8.1000000000000003E-002    -1.6486027061573232     
   8.1299999999999997E-002    -1.9260365048664809     
   8.1600000000000006E-002    -2.0551829482812245     
   8.1900000000000014E-002    -2.0057123637626635     
   8.2199999999999995E-002    -1.7575579529431979     
   8.2500000000000004E-002    -1.3128740136211547     
   8.2799999999999999E-002   -0.69654941294003159     
   8.3100000000000007E-002     5.1877071674933717E-002
   8.3400000000000002E-002    0.86819872400475617     
   8.3700000000000011E-002     1.6846750296878099     
   8.4000000000000005E-002     2.4247388426835528     
   8.4300000000000000E-002     3.0156229214690953     
   8.4599999999999995E-002     3.4011841827555642     
   8.4900000000000003E-002     3.5352040844964598     
   8.5199999999999998E-002     3.4025703308016553     
   8.5500000000000007E-002     3.0075610176477010     
   8.5800000000000001E-002     2.3788436247855245     
   8.6100000000000010E-002     1.5705041969510276     
   8.6399999999999991E-002    0.64514334593460632     
   8.6699999999999999E-002   -0.31936984412634217     
   8.7000000000000008E-002    -1.2486036622121190     
   8.7300000000000003E-002    -2.0741955153878706     
   8.7599999999999997E-002    -2.7366039162334772     
   8.7900000000000006E-002    -3.1983435726943128     
   8.8200000000000014E-002    -3.4364805187065812     
   8.8499999999999995E-002    -3.4485847786733572     
   8.8800000000000004E-002    -3.2517564348603130     
   8.9100000000000013E-002    -2.8734872765069142     
   8.9399999999999993E-002    -2.3545671762509599     
   8.9700000000000002E-002    -1.7404053094321625     
   9.0000000000000011E-002    -1.0762591715621141     
   9.0299999999999991E-002   -0.40952461187540923     
   9.0600000000000000E-002    0.22251620670101602     
   9.0900000000000009E-002    0.78555700505278736     
   9.1200000000000017E-002     1.2536937397845520     
   9.1499999999999998E-002     1.6127282706824673     
   9.1800000000000007E-002     1.8503111342790177     
   9.2100000000000001E-002     1.9671297935299847     
   9.2399999999999996E-002     1.9679344890180381     
   9.2700000000000005E-002     1.8631497187592201     
   9.3000000000000013E-002     1.6713618467961915     
   9.3300000000000008E-002     1.4099271918844778     
   9.3600000000000003E-002     1.1036148542423483     
   9.3899999999999997E-002    0.77481097916712116     
   9.4200000000000006E-002    0.44611460951212401     
   9.4500000000000001E-002    0.14011938156099824     
   9.4800000000000009E-002   -0.12869600297510964     
   9.5100000000000004E-002   -0.34560439666949350     
   9.5399999999999999E-002   -0.50551879193753635     
   9.5699999999999993E-002   -0.60617679928892088     
   9.6000000000000002E-002   -0.65131166512859551     
   9.6300000000000011E-002   -0.65011597478976313     
   9.6600000000000005E-002   -0.61054336619743133     
   9.6900000000000000E-002   -0.54730679610491206     
   9.7200000000000009E-002   -0.46840493377547965     
   9.7499999999999989E-002   -0.38537581159489065     
   9.7799999999999998E-002   -0.30574306128533024     
   9.8100000000000007E-002   -0.23204201664355750     
   9.8400000000000015E-002   -0.17032274817353521     
   9.8699999999999996E-002   -0.11633450313553206     
   9.9000000000000005E-002    -7.2465439569316503E-002
   9.9300000000000013E-002    -3.6734696298507563E-002
   9.9599999999999994E-002    -6.2829803705605203E-003
   9.9900000000000003E-002     1.5404536886243880E-002
  0.10020000000000001          3.3152215661755857E-002
  0.10049999999999999          4.3131261070125326E-002
  0.10080000000000000          4.5893611670619894E-002
  0.10110000000000001          4.3226296625162197E-002
  0.10140000000000000          3.2340622000160746E-002
  0.10170000000000000          1.9085835853270283E-002
  0.10200000000000001          3.4986273138337687E-003
  0.10230000000000002         -1.0932302170576502E-002
  0.10260000000000000         -1.9781443205499682E-002
  0.10290000000000001         -2.3300376898192754E-002
  0.10320000000000000         -1.8046067986464465E-002
  0.10350000000000001         -4.9316354883953695E-003
  0.10380000000000000          1.4071684455258471E-002
  0.10410000000000001          3.7611368305200177E-002
  0.10440000000000001          6.1510249759382907E-002
  0.10470000000000000          8.2360047984173512E-002
  0.10500000000000000          9.8764471927422326E-002
  0.10530000000000000         0.10719124971600835     
  0.10560000000000000         0.10834262055919086     
  0.10590000000000001         0.10340798874968493     
  0.10620000000000000          9.1574563250071531E-002
  0.10650000000000001          7.8457215149976445E-002
  0.10679999999999999          6.3480928020298144E-002
  0.10710000000000000          4.9148546414192196E-002
  0.10740000000000001          3.8004234518494023E-002
  0.10770000000000000          2.6881539813141474E-002
  0.10800000000000000          1.9407271000111914E-002
  0.10830000000000001          1.1746089451833308E-002
  0.10859999999999999          3.3498222234355501E-003
  0.10890000000000000         -4.1622561074890485E-003
  0.10920000000000001         -1.4661369213778336E-002
  0.10950000000000001         -2.3817607227275883E-002
  0.10979999999999999         -3.1705909983245628E-002
  0.11009999999999999         -3.7851155387800484E-002
  0.11040000000000001         -3.8005639560343418E-002
  0.11070000000000001         -3.4246419109142945E-002
  0.11100000000000000         -2.4764821720520303E-002
  0.11130000000000000         -9.7835830563801629E-003
  0.11160000000000002          6.3949031627785757E-003
  0.11190000000000001          2.4776036827143466E-002
  0.11220000000000001          4.0581842491889369E-002
  0.11250000000000000          5.0562458374723229E-002
  0.11280000000000000          5.6648168869767868E-002
  0.11309999999999999          5.3638919476291180E-002
  0.11340000000000001          4.5006784390260401E-002
  0.11369999999999998          3.2546381380226030E-002
  0.11400000000000000          1.4376381729882981E-002
  0.11430000000000000         -9.3423734365039035E-004
  0.11460000000000002         -1.7429806726011909E-002
  0.11489999999999999         -3.0386368952949550E-002
  0.11520000000000001         -3.7389661087269044E-002
  0.11550000000000001         -4.4951362747275292E-002
  0.11580000000000000         -4.5103928247282044E-002
  0.11609999999999999         -4.6637461451777718E-002
  0.11640000000000002         -4.7835494367499898E-002
  0.11670000000000001         -4.6783769135004150E-002
  0.11700000000000001         -5.1228549463914322E-002
  0.11730000000000000         -5.1066946394556889E-002
  0.11760000000000000         -5.2643695397424084E-002
  0.11789999999999999         -5.2049968489552123E-002
  0.11820000000000001         -4.5033604213262857E-002
  0.11850000000000001         -3.8351098716962628E-002
  0.11880000000000000         -2.2965242803438812E-002
  0.11910000000000000         -6.2382791725611453E-003
  0.11940000000000002          1.1841555114959074E-002
  0.11970000000000001          3.2359702296917647E-002
  0.12000000000000001          4.5704667989893255E-002
  0.12030000000000000          5.6866605376286516E-002
  0.12060000000000000          5.9691245614688970E-002
  0.12089999999999999          5.4388079400244482E-002
  0.12119999999999999          4.4969858739251745E-002
  0.12150000000000001          2.7933806968023278E-002
  0.12180000000000001          1.0366065330897234E-002
  0.12210000000000000         -7.6040005784756559E-003
  0.12239999999999999         -2.4001244566461452E-002
  0.12270000000000002         -3.3945110496394426E-002
  0.12300000000000001         -4.0348569423425296E-002
  0.12330000000000001         -4.1058909214468087E-002
  0.12360000000000000         -3.7418057535683835E-002
  0.12390000000000000         -3.3346619460994154E-002
  0.12419999999999999         -2.7320917559620350E-002
  0.12450000000000001         -2.3241052318117600E-002
  0.12480000000000001         -2.1288737622603748E-002
  0.12509999999999999         -1.9994084500967291E-002
  0.12540000000000001         -2.1406005901915437E-002
  0.12570000000000003         -2.0225722931567658E-002
  0.12600000000000000         -1.7513031522969014E-002
  0.12630000000000002         -1.1664618111735137E-002
  0.12659999999999999         -1.3421501418070525E-004
  0.12690000000000001          1.3224708942144614E-002
  0.12719999999999998          3.0718697865401268E-002
  0.12750000000000000          4.7521142138675476E-002
  0.12780000000000002          6.1634395734016745E-002
  0.12809999999999999          7.1736043485445267E-002
  0.12840000000000001          7.3051315014549534E-002
  0.12869999999999998          6.8215902032186637E-002
  0.12900000000000000          5.4449773454462003E-002
  0.12930000000000003          3.5130255689417966E-002
  0.12959999999999999          1.3291410403081461E-002
  0.12990000000000002         -1.0116508900053667E-002
  0.13019999999999998         -2.8957255070888189E-002
  0.13050000000000000         -4.3805938294027846E-002
  0.13080000000000003         -5.1065105494394913E-002
  0.13109999999999999         -5.1358741138240571E-002
  0.13140000000000002         -4.6609560088612834E-002
  0.13169999999999998         -3.6328517962600504E-002
  0.13200000000000001         -2.6066113873252306E-002
  0.13229999999999997         -1.5240105880626353E-002
  0.13260000000000000         -7.3477259424787889E-003
  0.13290000000000002         -2.7317008059359882E-003
  0.13319999999999999         -1.5016984153704005E-004
  0.13350000000000001         -1.8771685784169101E-004
  0.13380000000000003          1.0434513093826869E-003
  0.13410000000000000          3.1152610048507459E-003
  0.13440000000000002          8.9436303341414169E-003
  0.13469999999999999          1.8073139119981096E-002
  0.13500000000000001          2.9716973829105209E-002
  0.13529999999999998          4.3077133677993651E-002
  0.13560000000000000          5.4396278663381703E-002
  0.13590000000000002          6.2688779242407788E-002
  0.13619999999999999          6.3963263525178560E-002
  0.13650000000000001          5.8199143213212290E-002
  0.13680000000000003          4.4612446221546698E-002
  0.13710000000000000          2.3956849415128656E-002
  0.13740000000000002          2.0546833710910484E-004
  0.13769999999999999         -2.5254577118646149E-002
  0.13800000000000001         -4.7040270637821902E-002
  0.13829999999999998         -6.3531517479536670E-002
  0.13860000000000000         -7.2339092882986566E-002
  0.13890000000000002         -7.1809018855124362E-002
  0.13919999999999999         -6.4677628795728026E-002
  0.13950000000000001         -5.0075081742471772E-002
  0.13979999999999998         -3.2791891284768337E-002
  0.14010000000000000         -1.4945870165995245E-002
  0.14040000000000002          8.2655183676977328E-004
  0.14069999999999999          1.1860349786812885E-002
  0.14100000000000001          1.9084134164185917E-002
  0.14130000000000004          2.1238338366036398E-002
  0.14160000000000000          2.1265096068047634E-002
  0.14189999999999997          1.9862541824651414E-002
  0.14219999999999999          1.9284532521194109E-002
  0.14250000000000002          2.0754523526752666E-002
  0.14279999999999998          2.4536661042125207E-002
  0.14310000000000000          3.0552458105165159E-002
  0.14339999999999997          3.6178461583097565E-002
  0.14369999999999999          4.1357294191453731E-002
  0.14400000000000002          4.1818088348283711E-002
  0.14429999999999998          3.7497068542190259E-002
  0.14460000000000001          2.7177653412300384E-002
  0.14490000000000003          1.0194919959357285E-002
  0.14520000000000000         -9.3578310144888377E-003
  0.14550000000000002         -3.1886868754052777E-002
  0.14579999999999999         -5.1855620388123136E-002
  0.14610000000000001         -6.7191499851946057E-002
  0.14640000000000003         -7.6695096511407934E-002
  0.14670000000000000         -7.6026669471944919E-002
  0.14699999999999996         -6.8763397758480060E-002
  0.14729999999999999         -5.3371216910193864E-002
  0.14760000000000001         -3.2753197194368422E-002
  0.14789999999999998         -1.1612129353312461E-002
  0.14820000000000000          1.0107702406799757E-002