  -1.4999999999999999E-002     0.0000000000000000     
  -1.4700000000000000E-002     3.2667378351487197E-016
  -1.4400000000000000E-002     4.7973506915441429E-013
  -1.4100000000000000E-002     1.1641549957016808E-011
  -1.3800000000000000E-002    -8.9360501092694984E-011
  -1.3500000000000000E-002    -7.4597203601144577E-010
  -1.3200000000000000E-002     2.5910846443117498E-009
  -1.2899999999999998E-002     8.7867872518522695E-009
  -1.2600000000000000E-002    -2.0403560020450506E-008
  -1.2299999999999998E-002    -3.5621004776371434E-008
  -1.2000000000000000E-002     3.5998917844655928E-008
  -1.1699999999999999E-002     8.1370026339757708E-008
  -1.1399999999999999E-002     1.0963807478755273E-007
  -1.1099999999999999E-002    -1.5467908385241120E-007
  -1.0799999999999999E-002    -4.1925090591670061E-007
  -1.0499999999999999E-002     1.1867390938919590E-007
  -1.0199999999999999E-002     2.1128192329462830E-007
  -9.8999999999999991E-003     8.1489949102994810E-008
  -9.5999999999999992E-003     1.1169586077532333E-006
  -9.2999999999999992E-003     4.2792919187443560E-007
  -8.9999999999999993E-003    -2.3465093786689454E-006
  -8.6999999999999994E-003    -1.7499218226050752E-006
  -8.3999999999999995E-003     1.3076611194649638E-006
  -8.0999999999999996E-003     9.3988399360340081E-007
  -7.7999999999999988E-003     1.3884959001332886E-007
  -7.4999999999999997E-003     1.7832634057855253E-006
  -7.1999999999999998E-003     1.4866071355931488E-006
  -6.8999999999999981E-003     2.4010340979094016E-006
  -6.5999999999999982E-003     5.0560517094023854E-006
  -6.3000000000000000E-003    -1.0571243199983160E-005
  -6.0000000000000001E-003    -4.3004568263969894E-005
  -5.6999999999999985E-003    -2.6649164351949485E-005
  -5.3999999999999986E-003     1.0995730983355811E-004
  -5.1000000000000004E-003     3.7349318742180867E-004
  -4.7999999999999987E-003     7.2505535760304641E-004
  -4.5000000000000005E-003     1.1368609310687277E-003
  -4.1999999999999989E-003     1.6404874384225530E-003
  -3.8999999999999990E-003     2.3774479984986982E-003
  -3.5999999999999990E-003     3.5864902922359519E-003
  -3.2999999999999991E-003     5.5173888865221177E-003
  -2.9999999999999992E-003     8.4638660201214466E-003
  -2.6999999999999993E-003     1.2848400131830445E-002
  -2.3999999999999994E-003     1.9166768178798171E-002
  -2.0999999999999977E-003     2.8032253781205357E-002
  -1.7999999999999995E-003     4.0386339014156447E-002
  -1.4999999999999979E-003     5.7443126515349940E-002
  -1.1999999999999997E-003     8.0453615941234125E-002
  -8.9999999999999976E-004    0.11084011260262394     
  -5.9999999999999810E-004    0.15037015528161257     
  -2.9999999999999992E-004    0.20073035601696088     
   0.0000000000000000         0.26317792976879772     
   3.0000000000000165E-004    0.33880326212753875     
   5.9999999999999984E-004    0.42814908103864102     
   9.0000000000000149E-004    0.53008649026182209     
   1.2000000000000031E-003    0.64166501550698030     
   1.5000000000000013E-003    0.75823769475318770     
   1.8000000000000030E-003    0.87231946959434836     
   2.1000000000000012E-003    0.97268721911261835     
   2.3999999999999994E-003     1.0448775544195819     
   2.7000000000000010E-003     1.0713593616513641     
   2.9999999999999992E-003     1.0310089465939605     
   3.3000000000000008E-003    0.90010063019927244     
   3.6000000000000025E-003    0.65477631162462657     
   3.9000000000000007E-003    0.27260070466503405     
   4.2000000000000023E-003   -0.26579085379174572     
   4.5000000000000005E-003   -0.97290567336006362     
   4.7999999999999987E-003    -1.8507787360042194     
   5.1000000000000004E-003    -2.8885439822136281     
   5.4000000000000020E-003    -4.0598461016830214     
   5.7000000000000037E-003    -5.3207181204509766     
   5.9999999999999984E-003    -6.6090280289523804     
   6.3000000000000000E-003    -7.8459890118889604     
   6.6000000000000017E-003    -8.9392664720330970     
   6.9000000000000034E-003    -9.7877037525036030     
   7.2000000000000015E-003    -10.287847248225177     
   7.5000000000000032E-003    -10.341988257055192     
   7.8000000000000014E-003    -9.8673449953060981     
   8.0999999999999996E-003    -8.8046422535853139     
   8.4000000000000012E-003    -7.1251779806944171     
   8.7000000000000029E-003    -4.8364595397500523     
   9.0000000000000011E-003    -1.9864690924027961     
   9.2999999999999992E-003     1.3368353989102957     
   9.6000000000000009E-003     5.0099417485901370     
   9.8999999999999991E-003     8.8795026964995429     
   1.0200000000000001E-002     12.771486648163474     
   1.0500000000000002E-002     16.503815514318276     
   1.0800000000000004E-002     19.898147832907824     
   1.1099999999999999E-002     22.790914439884830     
   1.1400000000000000E-002     25.044099391309942     
   1.1700000000000002E-002     26.553118467236459     
   1.2000000000000004E-002     27.250571351358076     
   1.2300000000000002E-002     27.105687457355771     
   1.2600000000000000E-002     26.122800991770873     
   1.2900000000000002E-002     24.335111052289108     
   1.3200000000000000E-002     21.795543826306471     
   1.3500000000000002E-002     18.569878519013855     
   1.3800000000000003E-002     14.727959973894087     
   1.4100000000000001E-002     10.339143589843303     
   1.4400000000000000E-002     5.4698424056438597     
   1.4700000000000001E-002    0.18329930267221073     
   1.4999999999999999E-002    -5.4541124656464604     
   1.5300000000000001E-002    -11.364683489543609     
   1.5600000000000003E-002    -17.453045994281183     
   1.5899999999999997E-002    -23.593867340031107     
   1.6199999999999999E-002    -29.624393879526465     
   1.6500000000000001E-002    -35.343591617634388     
   1.6800000000000002E-002    -40.510968502710909     
   1.7100000000000004E-002    -44.854857227184141     
   1.7400000000000006E-002    -48.088252229053865     
   1.7700000000000000E-002    -49.929416871287344     
   1.8000000000000002E-002    -50.126896582101494     
   1.8300000000000004E-002    -48.483989555352196     
   1.8600000000000005E-002    -44.886971812637057     
   1.8900000000000000E-002    -39.329239142033884     
   1.9200000000000002E-002    -31.921148168278251     
   1.9500000000000003E-002    -22.896569735385810     
   1.9799999999999998E-002    -12.611951332710532     
   2.0100000000000000E-002    -1.5238493043156041     
   2.0400000000000001E-002     9.8366349694528026     
   2.0700000000000003E-002     20.898228722540807     
   2.0999999999999998E-002     31.091687189091772     
   2.1299999999999999E-002     39.888486271335864     
   2.1600000000000001E-002     46.842862287548940     
   2.1900000000000003E-002     51.624286979102351     
   2.2200000000000004E-002     54.037366023511254     
   2.2500000000000006E-002     54.037787411507679     
   2.2800000000000001E-002     51.728485872279180     
   2.3100000000000002E-002     47.347063575680750     
   2.3400000000000004E-002     41.246234785258821     
   2.3699999999999999E-002     33.858201071923872     
   2.4000000000000000E-002     25.662373754721784     
   2.4300000000000002E-002     17.149175766214682     
   2.4599999999999997E-002     8.7828892194185144     
   2.4900000000000005E-002    0.97506075650585444     
   2.5200000000000000E-002    -5.9398456223526637     
   2.5499999999999995E-002    -11.720340307958963     
   2.5800000000000003E-002    -16.219354526257234     
   2.6099999999999998E-002    -19.386182547573753     
   2.6400000000000007E-002    -21.257160343549629     
   2.6700000000000002E-002    -21.936637098915043     
   2.6999999999999996E-002    -21.585096627787806     
   2.7300000000000005E-002    -20.398061113881852     
   2.7600000000000000E-002    -18.584207323775274     
   2.7900000000000008E-002    -16.353018857297911     
   2.8200000000000003E-002    -13.898362423259641     
   2.8499999999999998E-002    -11.390141731001108     
   2.8800000000000006E-002    -8.9670945756025162     
   2.9100000000000001E-002    -6.7311109198951158     
   2.9400000000000003E-002    -4.7542377356425902     
   2.9700000000000004E-002    -3.0773552001109508     
   3.0000000000000006E-002    -1.7105627325791808     
   3.0300000000000001E-002   -0.64677212774322257     
   3.0600000000000002E-002    0.13680564377729709     
   3.0900000000000004E-002    0.67563157909967586     
   3.1199999999999999E-002     1.0089881655048600     
   3.1500000000000007E-002     1.1788420125702217     
   3.1800000000000002E-002     1.2254298900392513     
   3.2099999999999997E-002     1.1856795846446033     
   3.2400000000000005E-002     1.0931384871988818     
   3.2700000000000000E-002    0.97328347453156283     
   3.3000000000000002E-002    0.84688916919491675     
   3.3300000000000003E-002    0.73103266613011364     
   3.3599999999999998E-002    0.63400772975075093     
   3.3900000000000000E-002    0.56026478565682503     
   3.4200000000000001E-002    0.51219935643553960     
   3.4500000000000003E-002    0.48640337300903269     
   3.4799999999999998E-002    0.47873732766473687     
   3.5099999999999999E-002    0.48472427805173446     
   3.5400000000000001E-002    0.49755358346573786     
   3.5699999999999996E-002    0.51295046795090471     
   3.6000000000000004E-002    0.52736455193564069     
   3.6299999999999999E-002    0.53772419328749166     
   3.6600000000000008E-002    0.54447539166768166     
   3.6900000000000002E-002    0.54672134911690051     
   3.7199999999999997E-002    0.54593351019050651     
   3.7500000000000006E-002    0.54535649547337428     
   3.7800000000000000E-002    0.54387238477033861     
   3.8100000000000009E-002    0.54326810244172563     
   3.8400000000000004E-002    0.54440553952559156     
   3.8699999999999998E-002    0.54512462605841705     
   3.9000000000000007E-002    0.54564411726587636     
   3.9300000000000002E-002    0.54336610864914192     
   3.9600000000000003E-002    0.53666090669640809     
   3.9900000000000005E-002    0.52663167447903092     
   4.0200000000000000E-002    0.51123953996088289     
   4.0500000000000001E-002    0.49146497213471285     
   4.0800000000000003E-002    0.46947401419093993     
   4.1100000000000005E-002    0.44638517941803890     
   4.1399999999999999E-002    0.42462420668648981     
   4.1700000000000008E-002    0.40451556372143394     
   4.2000000000000003E-002    0.38656559961488490     
   4.2299999999999997E-002    0.37171938072181909     
   4.2600000000000006E-002    0.35769859321217901     
   4.2900000000000001E-002    0.34179904182023080     
   4.3200000000000002E-002    0.32312331170644448     
   4.3500000000000004E-002    0.29841480332737369     
   4.3799999999999999E-002    0.26470532868051322     
   4.4100000000000000E-002    0.22248442878999519     
   4.4400000000000002E-002    0.17145714868733553     
   4.4700000000000004E-002    0.11258999441456341     
   4.4999999999999998E-002     4.9060872732778288E-002
   4.5300000000000000E-002    -1.5913815253730590E-002
   4.5600000000000002E-002    -7.6833361862193250E-002
   4.5899999999999996E-002   -0.13068706068183533     
   4.6200000000000005E-002   -0.17453133921994290     
   4.6500000000000000E-002   -0.20275968609845751     
   4.6799999999999994E-002   -0.21495741000735080     
   4.7100000000000003E-002   -0.21081134545227354     
   4.7399999999999998E-002   -0.18949241710133080     
   4.7700000000000006E-002   -0.15425273777719850     
   4.8000000000000001E-002   -0.10699134288626833     
   4.8300000000000010E-002    -5.1340105658282842E-002
   4.8600000000000004E-002     7.5499840313422162E-003
   4.8899999999999999E-002     6.6560962105891353E-002
   4.9200000000000008E-002    0.12035956747174437     
   4.9500000000000002E-002    0.16455090395917438     
   4.9800000000000011E-002    0.19633423743822359     
   5.0100000000000006E-002    0.21097098357977284     
   5.0400000000000000E-002    0.20714812021146045     
   5.0700000000000009E-002    0.18518393852131609     
   5.1000000000000004E-002    0.14438649917298640     
   5.1299999999999998E-002     8.7786565332347966E-002
   5.1600000000000007E-002     1.9422194694048406E-002
   5.1900000000000002E-002    -5.6224659569746205E-002
   5.2200000000000010E-002   -0.13167239528232288     
   5.2500000000000005E-002   -0.20080914356761917     
   5.2800000000000000E-002   -0.25750190342831303     
   5.3099999999999994E-002   -0.29431143657974257     
   5.3400000000000003E-002   -0.30808893775488233     
   5.3699999999999998E-002   -0.29665048275593620     
   5.4000000000000006E-002   -0.25922216373797635     
   5.4300000000000001E-002   -0.19983520256263443     
   5.4599999999999996E-002   -0.12312124302474925     
   5.4900000000000004E-002    -3.6454813143977916E-002
   5.5199999999999999E-002     5.0758342617442498E-002
   5.5499999999999994E-002    0.13036048939741018     
   5.5800000000000002E-002    0.19252734938975236     
   5.6099999999999997E-002    0.23026416288379481     
   5.6400000000000006E-002    0.24058433644689270     
   5.6700000000000000E-002    0.22013116154021528     
   5.6999999999999995E-002    0.17118860848861539     
   5.7300000000000004E-002    0.10025826909357627     
   5.7599999999999998E-002     1.3612650082121647E-002
   5.7900000000000007E-002    -7.8914241947130037E-002
   5.8200000000000002E-002   -0.16637010076287417     
   5.8499999999999996E-002   -0.23976893705915714     
   5.8800000000000005E-002   -0.29114877003036010     
   5.9100000000000000E-002   -0.31674086040878757     
   5.9400000000000008E-002   -0.31552491028667840     
   5.9700000000000003E-002   -0.28923855424994205     
   6.0000000000000012E-002   -0.24584868726823750     
   6.0300000000000006E-002   -0.19298555141116402     
   6.0600000000000001E-002   -0.13875677582941037     
   6.0900000000000010E-002    -9.4063345436599555E-002
   6.1200000000000004E-002    -6.4074007562229252E-002
   6.1500000000000013E-002    -5.1281063387388581E-002
   6.1800000000000008E-002    -5.5610235591742274E-002
   6.2100000000000002E-002    -7.0083292250614271E-002
   6.2399999999999997E-002    -8.6514092742353998E-002
   6.2700000000000006E-002    -9.3869970824901561E-002
   6.3000000000000000E-002    -7.9909000295942834E-002
   6.3300000000000009E-002    -3.6733396269489349E-002
   6.3600000000000004E-002     4.1375638682425553E-002
   6.3899999999999998E-002    0.15337071089123189     
   6.4199999999999993E-002    0.29050433218756044     
   6.4500000000000002E-002    0.43987390978602470     
   6.4800000000000010E-002    0.58116997062240827     
   6.5100000000000005E-002    0.69077035974515488     
   6.5400000000000000E-002    0.74696692715460045     
   6.5700000000000008E-002    0.72931769924840095     
   6.5999999999999989E-002    0.62423310064934956     
   6.6299999999999998E-002    0.42835075597479566     
   6.6600000000000006E-002    0.14755334789874297     
   6.6900000000000001E-002   -0.19930749749241805     
   6.7199999999999996E-002   -0.58277054850827881     
   6.7500000000000004E-002   -0.96777911711433973     
   6.7800000000000013E-002    -1.3126783415119618     
   6.8099999999999994E-002    -1.5767212291568633     
   6.8400000000000002E-002    -1.7248620939966131     
   6.8700000000000011E-002    -1.7297237674853552     
   6.8999999999999992E-002    -1.5790338186832553     
   6.9300000000000000E-002    -1.2745530709898674     
   6.9600000000000009E-002   -0.83284684472723924     
   6.9900000000000004E-002   -0.28751527622168460     
   7.0199999999999999E-002    0.31864597313083465     
   7.0500000000000007E-002    0.93498611729904013     
   7.0800000000000016E-002     1.5067005216243246     
   7.1099999999999997E-002     1.9851614350846631     
   7.1400000000000005E-002     2.3279617245503772     
   7.1700000000000000E-002     2.5049527249105026     
   7.1999999999999995E-002     2.5028865443683657     
   7.2300000000000003E-002     2.3225391216661073     
   7.2600000000000012E-002     1.9813163306111150     
   7.2900000000000006E-002     1.5106733199685927     
   7.3200000000000001E-002    0.94976218152128844     
   7.3499999999999996E-002    0.34504460947377336     
   7.3800000000000004E-002   -0.25689169593250938     
   7.4099999999999999E-002   -0.81359414241632777     
   7.4400000000000008E-002    -1.2875269565567109     
   7.4700000000000003E-002    -1.6531120476550853     
   7.5000000000000011E-002    -1.8945619951511219     
   7.5299999999999992E-002    -2.0055385591167081     
   7.5600000000000001E-002    -1.9929178049630902     
   7.5900000000000009E-002    -1.8698438343648203     
   7.6200000000000004E-002    -1.6546423554718785     
   7.6499999999999999E-002    -1.3719969805192065     
   7.6800000000000007E-002    -1.0451072314671386     
   7.7099999999999988E-002   -0.69780478140792468     
   7.7399999999999997E-002   -0.35261987402653538     
   7.7700000000000005E-002    -2.6775839985844208E-002
   7.8000000000000014E-002    0.26379643995437263     
   7.8299999999999995E-002    0.50862285506971006     
   7.8600000000000003E-002    0.70110738274532380     
   7.8900000000000012E-002    0.83641388507603409     
   7.9199999999999993E-002    0.91549875727181629     
   7.9500000000000001E-002    0.94057676608522378     
   7.9800000000000010E-002    0.91597138715897941     
   8.0100000000000018E-002    0.85018464347725420     
   8.0399999999999999E-002    0.75141005820664830     
   8.0700000000000008E-002    0.62938330047761504     
   8.1000000000000003E-002    0.49521528063882059     
   8.1299999999999997E-002    0.35860781991751445     
   8.1600000000000006E-002    0.22825454176144699     
   8.1900000000000014E-002    0.11166733891430569     
   8.2199999999999995E-002     1.4032041447015642E-002
   8.2500000000000004E-002    -6.1696603644206593E-002
   8.2799999999999999E-002   -0.11518706522920663     
   8.3100000000000007E-002   -0.14906050520995784     
   8.3400000000000002E-002   -0.16560617910099218     
   8.3700000000000011E-002   -0.16895790054848803     
   8.4000000000000005E-002   -0.16500786129914014     
   8.4300000000000000E-002   -0.15666923145950307     
   8.4599999999999995E-002   -0.14749314215016174     
   8.4900000000000003E-002   -0.13912498603708512     
   8.5199999999999998E-002   -0.13150212954826213     
   8.5500000000000007E-002   -0.12572591082604845     
   8.5800000000000001E-002   -0.11927716444905956     
   8.6100000000000010E-002   -0.11062365494806548     
   8.6399999999999991E-002    -9.9921085001108523E-002
   8.6699999999999999E-002    -8.4961706890559263E-002
   8.7000000000000008E-002    -6.7058507586959859E-002
   8.7300000000000003E-002    -4.7705712023608182E-002
   8.7599999999999997E-002    -2.7694746083235189E-002
   8.7900000000000006E-002    -1.0142796704163293E-002
   8.8200000000000014E-002     3.5726753632060598E-003
   8.8499999999999995E-002     1.1676996824851529E-002
   8.8800000000000004E-002     1.2988598531195703E-002
   8.9100000000000013E-002     8.9868037055442530E-003
   8.9399999999999993E-002    -1.3364977627219887E-004
   8.9700000000000002E-002    -1.2781377371496538E-002
   9.0000000000000011E-002    -2.5496896219860843E-002
   9.0299999999999991E-002    -3.6737738677281251E-002
   9.0600000000000000E-002    -4.4758207846851472E-002
   9.0900000000000009E-002    -4.8291021989507521E-002
   9.1200000000000017E-002    -4.7635207534266311E-002
   9.1499999999999998E-002    -4.2601290821914550E-002
   9.1800000000000007E-002    -3.4601024115605061E-002
   9.2100000000000001E-002    -2.6018736556138289E-002
   9.2399999999999996E-002    -1.7464045529656136E-002
   9.2700000000000005E-002    -1.0442297994139704E-002
   9.3000000000000013E-002    -6.1312873433623238E-003
   9.3300000000000008E-002    -3.5069106038345121E-003
   9.3600000000000003E-002    -2.5712814610523993E-003
   9.3899999999999997E-002    -2.1337925056734708E-003
   9.4200000000000006E-002    -3.3097515384328258E-004
   9.4500000000000001E-002     3.1571821463501210E-003
   9.4800000000000009E-002     9.5632620098125287E-003
   9.5100000000000004E-002     1.8411450187733935E-002
   9.5399999999999999E-002     2.9116101150157503E-002
   9.5699999999999993E-002     4.1529486042047870E-002
   9.6000000000000002E-002     5.2314914336007101E-002
   9.6300000000000011E-002     6.0073733366893034E-002
   9.6600000000000005E-002     6.4274362390084411E-002
   9.6900000000000000E-002     6.2893696651321829E-002
   9.7200000000000009E-002     5.6078132205862663E-002
   9.7499999999999989E-002     4.4657146824014227E-002
   9.7799999999999998E-002     2.9869098421765106E-002
   9.8100000000000007E-002     1.3526840361046788E-002
   9.8400000000000015E-002    -2.8573479271655974E-003
   9.8699999999999996E-002    -1.6854881466585148E-002
   9.9000000000000005E-002    -2.6470310997269042E-002
   9.9300000000000013E-002    -3.1583824005199879E-002
   9.9599999999999994E-002    -3.2190144168253609E-002
   9.9900000000000003E-002    -2.8033003185329974E-002
  0.10020000000000001         -2.0732249930952240E-002
  0.10049999999999999         -1.1983886877619643E-002
  0.10080000000000000         -2.8569930523770770E-003
  0.10110000000000001          4.9051096076853373E-003
  0.10140000000000000          1.1222134241361103E-002
  0.10170000000000000          1.5371593763139652E-002
  0.10200000000000001          1.6752918532211114E-002
  0.10230000000000002          1.7180338613249080E-002
  0.10260000000000000          1.6575579320364742E-002
  0.10290000000000001          1.5926671564532147E-002
  0.10320000000000000          1.6516557107717711E-002
  0.10350000000000001          1.7295310603156588E-002
  0.10380000000000000          1.8995146198767632E-002
  0.10410000000000001          2.1339762662959338E-002
  0.10440000000000001          2.2458387673826352E-002
  0.10470000000000000          2.2170567902489835E-002
  0.10500000000000000          1.9504408555855224E-002
  0.10530000000000000          1.4369102519596777E-002
  0.10560000000000000          6.8528125780226157E-003
  0.10590000000000001         -3.7775944521538374E-003
  0.10620000000000000         -1.5075817366770078E-002
  0.10650000000000001         -2.5668359730921630E-002
  0.10679999999999999         -3.5476556818303084E-002
  0.10710000000000000         -4.1922311813144153E-002
  0.10740000000000001         -4.4429115121390250E-002
  0.10770000000000000         -4.3273949454826877E-002
  0.10800000000000000         -3.7519031825865912E-002
  0.10830000000000001         -2.8537914263537245E-002
  0.10859999999999999         -1.7627669130950707E-002
  0.10890000000000000         -6.1484266211973004E-003
  0.10920000000000001          4.4001600473885238E-003
  0.10950000000000001          1.3539489533410998E-002
  0.10979999999999999          1.9538853642889209E-002
  0.11009999999999999          2.2026734428300165E-002
  0.11040000000000001          2.2481840953928689E-002
  0.11070000000000001          2.0636153870043139E-002
  0.11100000000000000          1.7187235840104037E-002
  0.11130000000000000          1.3905461338638375E-002
  0.11160000000000002          1.0831182679308216E-002
  0.11190000000000001          8.5847021523621225E-003
  0.11220000000000001          7.5003470634725788E-003
  0.11250000000000000          6.5056037023497604E-003
  0.11280000000000000          5.5320183027331715E-003
  0.11309999999999999          3.7566771234580076E-003
  0.11340000000000001          2.8957626655345958E-004
  0.11369999999999998         -4.7333709199310903E-003
  0.11400000000000000         -1.1568877790725685E-002
  0.11430000000000000         -1.9570594805594199E-002
  0.11460000000000002         -2.7520468854396768E-002
  0.11489999999999999         -3.4522357381714303E-002
  0.11520000000000001         -3.8854794931867609E-002
  0.11550000000000001         -3.9439969134732134E-002
  0.11580000000000000         -3.6530750027977454E-002
  0.11609999999999999         -2.9358522308124302E-002
  0.11640000000000002         -1.8312557227586845E-002
  0.11670000000000001         -5.3222879559410297E-003
  0.11700000000000001          8.6888837074012015E-003
  0.11730000000000000          2.1839630684537426E-002
  0.11760000000000000          3.2267112551602806E-002
  0.11789999999999999          3.9640408301059304E-002
  0.11820000000000001          4.2303535550295188E-002
  0.11850000000000001          4.0621005066851568E-002
  0.11880000000000000          3.5716400937498449E-002
  0.11910000000000000          2.7686290932830204E-002
  0.11940000000000002          1.8546285410788066E-002
  0.11970000000000001          8.9998923262676334E-003
  0.12000000000000001          2.2346869860356833E-004
  0.12030000000000000         -6.2016871341662172E-003
  0.12060000000000000         -1.1300902120556955E-002
  0.12089999999999999         -1.4795617400734207E-002
  0.12119999999999999         -1.6263025544461573E-002
  0.12150000000000001         -1.7358458687752154E-002
  0.12180000000000001         -1.8248730604743524E-002
  0.12210000000000000         -1.9242111852437960E-002
  0.12239999999999999         -2.0679803386691224E-002
  0.12270000000000002         -2.1773685048645297E-002
  0.12300000000000001         -2.2447576835196936E-002
  0.12330000000000001         -2.1969649564416383E-002
  0.12360000000000000         -1.9410827732450509E-002
  0.12390000000000000         -1.4951470772098130E-002
  0.12419999999999999         -7.6510692156175342E-003
  0.12450000000000001          2.2168863142351669E-003
  0.12480000000000001          1.2728872131616484E-002
  0.12509999999999999          2.3673713435657939E-002
  0.12540000000000001          3.3720276770931978E-002
  0.12570000000000003          4.0913860461668117E-002
  0.12600000000000000          4.4569773757608733E-002
  0.12630000000000002          4.3857056281593421E-002
  0.12659999999999999          3.8814978032789216E-002
  0.12690000000000001          2.9816034727124019E-002
  0.12719999999999998          1.7581632405717862E-002
  0.12750000000000000          4.2098917495762000E-003
  0.12780000000000002         -8.7008118868539819E-003
  0.12809999999999999         -2.0417436671760436E-002
  0.12840000000000001         -2.9127922722198663E-002
  0.12869999999999998         -3.4089656906484800E-002
  0.12900000000000000         -3.5563065238457481E-002
  0.12930000000000003         -3.3434416243455362E-002
  0.12959999999999999         -2.8820220934827598E-002
  0.12990000000000002         -2.2696181211644267E-002
  0.13019999999999998         -1.5888106367099253E-002
  0.13050000000000000         -9.8608653207289398E-003
  0.13080000000000003         -4.7212915738266692E-003
  0.13109999999999999         -6.7392394487800211E-004
  0.13140000000000002          2.0841931842210670E-003
  0.13169999999999998          4.8954416738392348E-003
  0.13200000000000001          7.6750562861517546E-003
  0.13229999999999997          1.0321163574754308E-002
  0.13260000000000000          1.4029420272963000E-002
  0.13290000000000002          1.8627120288869148E-002
  0.13319999999999999          2.3141856257366408E-002
  0.13350000000000001          2.6861249019244804E-002
  0.13380000000000003          2.9089028204248191E-002
  0.13410000000000000          2.9582315598736919E-002
  0.13440000000000002          2.6897161038029971E-002
  0.13469999999999999          2.0497649240646787E-002
  0.13500000000000001          1.2316359660949461E-002
  0.13529999999999998          2.1438552118753784E-003
  0.13560000000000000         -9.6683768673268694E-003
  0.13590000000000002         -2.0486299945314035E-002
  0.13619999999999999         -2.9323614907972306E-002
  0.13650000000000001         -3.5386310162981133E-002
  0.13680000000000003         -3.7938621416164275E-002
  0.13710000000000000         -3.6794623007134819E-002
  0.13740000000000002         -3.1922937732327683E-002
  0.13769999999999999         -2.4809692074690193E-002
  0.13800000000000001         -1.6348965838386686E-002
  0.13829999999999998         -7.1186486788529513E-003
  0.13860000000000000          9.9055626846718259E-004
  0.13890000000000002          7.4367574150137894E-003
  0.13919999999999999          1.2628704974105232E-002
  0.13950000000000001          1.5742075215237350E-002
  0.13979999999999998          1.7263769089103820E-002
  0.14010000000000000          1.8132987318680266E-002
  0.14040000000000002          1.8312519707492564E-002
  0.14069999999999999          1.8789308856675374E-002
  0.14100000000000001          1.9626856681425817E-002
  0.14130000000000004          2.0238732471303006E-002
  0.14160000000000000          2.0742277982528590E-002
  0.14189999999999997          1.9946760566655342E-002
  0.14219999999999999          1.7815005018414043E-002
  0.14250000000000002          1.4016486579932930E-002
  0.14279999999999998          7.5911511272407362E-003
  0.14310000000000000         -5.9967573302127652E-004
  0.14339999999999997         -9.9623189825025250E-003
  0.14369999999999999         -1.9681168306969865E-002
  0.14400000000000002         -2.8405975750743606E-002
  0.14429999999999998         -3.5359576209490276E-002
  0.14460000000000001         -3.9165868595100156E-002
  0.14490000000000003         -3.8867349800663975E-002
  0.14520000000000000         -3.5170489004938132E-002
  0.14550000000000002         -2.8107125262112231E-002
  0.14579999999999999         -1.7944378790340054E-002
  0.14610000000000001         -6.3708663903599971E-003
  0.14640000000000003          5.2241903843063958E-003
  0.14670000000000000          1.5759722229181705E-002
  0.14699999999999996          2.4151047309069584E-002
  0.14729999999999999          3.0041300043888441E-002
  0.14760000000000001          3.2646838522803701E-002
  0.14789999999999998          3.2355005199857401E-002
  0.14820000000000000          3.0058900594735788E-002