  -1.4999999999999999E-002     0.0000000000000000     
  -1.4700000000000000E-002     0.0000000000000000     
  -1.4400000000000000E-002     0.0000000000000000     
  -1.4100000000000000E-002     0.0000000000000000     
  -1.3800000000000000E-002     0.0000000000000000     
  -1.3500000000000000E-002     0.0000000000000000     
  -1.3200000000000000E-002     0.0000000000000000     
  -1.2899999999999998E-002     0.0000000000000000     
  -1.2600000000000000E-002     0.0000000000000000     
  -1.2299999999999998E-002     0.0000000000000000     
  -1.2000000000000000E-002     0.0000000000000000     
  -1.1699999999999999E-002     0.0000000000000000     
  -1.1399999999999999E-002     0.0000000000000000     
  -1.1099999999999999E-002     0.0000000000000000     
  -1.0799999999999999E-002     0.0000000000000000     
  -1.0499999999999999E-002     0.0000000000000000     
  -1.0199999999999999E-002     0.0000000000000000     
  -9.8999999999999991E-003     0.0000000000000000     
  -9.5999999999999992E-003     0.0000000000000000     
  -9.2999999999999992E-003     0.0000000000000000     
  -8.9999999999999993E-003     0.0000000000000000     
  -8.6999999999999994E-003     0.0000000000000000     
  -8.3999999999999995E-003     0.0000000000000000     
  -8.0999999999999996E-003    -1.5645534572673795E-036
  -7.7999999999999988E-003     7.2034055620071619E-036
  -7.4999999999999997E-003     6.1525527859508667E-036
  -7.1999999999999998E-003    -8.5027673430614224E-035
  -6.8999999999999981E-003     3.7362970850628807E-034
  -6.5999999999999982E-003    -2.3247994221922237E-033
  -6.3000000000000000E-003     2.2633156309828455E-032
  -6.0000000000000001E-003    -1.7625674977726698E-031
  -5.6999999999999985E-003     8.9236026758492418E-031
  -5.3999999999999986E-003    -1.5468804121792733E-030
  -5.1000000000000004E-003    -1.7416503469240813E-029
  -4.7999999999999987E-003     1.8706972828477480E-028
  -4.5000000000000005E-003    -1.0004190133046026E-027
  -4.1999999999999989E-003     3.5125495511723285E-027
  -3.8999999999999990E-003    -8.4981789759323000E-027
  -3.5999999999999990E-003     1.4209304669998988E-026
  -3.2999999999999991E-003    -1.8790669843852412E-026
  -2.9999999999999992E-003     4.3473156899525900E-026
  -2.6999999999999993E-003    -1.8694756067431599E-025
  -2.3999999999999994E-003     6.7761869859513930E-025
  -2.0999999999999977E-003    -1.8359366923196228E-024
  -1.7999999999999995E-003     3.9556345408562958E-024
  -1.4999999999999979E-003    -7.6643485186302679E-024
  -1.1999999999999997E-003     1.6372637693906572E-023
  -8.9999999999999976E-004    -4.3029424661795151E-023
  -5.9999999999999810E-004     1.2155476909193876E-022
  -2.9999999999999992E-004    -3.1628654767158562E-022
   0.0000000000000000          7.0697209454927737E-022
   3.0000000000000165E-004    -1.3002880381259915E-021
   5.9999999999999984E-004     1.7896549345628426E-021
   9.0000000000000149E-004    -1.0765586035728596E-021
   1.2000000000000031E-003    -3.4916206462593947E-021
   1.5000000000000013E-003     1.7088344611756534E-020
   1.8000000000000030E-003    -4.8245528947005549E-020
   2.1000000000000012E-003     1.0892108803414837E-019
   2.3999999999999994E-003    -2.1410466386805246E-019
   2.7000000000000010E-003     3.9052085937786931E-019
   2.9999999999999992E-003    -7.4825584649052824E-019
   3.3000000000000008E-003     1.8280637770682096E-018
   3.6000000000000025E-003    -5.8968986221772422E-018
   3.9000000000000007E-003     2.0923642782369692E-017
   4.2000000000000023E-003    -7.0654644490286624E-017
   4.5000000000000005E-003     2.1427103946094377E-016
   4.7999999999999987E-003    -5.6542641484644512E-016
   5.1000000000000004E-003     1.2265123897119362E-015
   5.4000000000000020E-003    -1.7691900936335318E-015
   5.7000000000000037E-003    -1.0144994077394744E-015
   5.9999999999999984E-003     2.0672711521676872E-014
   6.3000000000000000E-003    -1.0072816875299900E-013
   6.6000000000000017E-003     3.4174391289922001E-013
   6.9000000000000034E-003    -8.0907893232340378E-013
   7.2000000000000015E-003     5.8188588496210780E-013
   7.5000000000000032E-003     6.7659315650114848E-012
   7.8000000000000014E-003    -4.6783903140390493E-011
   8.0999999999999996E-003     1.8211029906289866E-010
   8.4000000000000012E-003    -4.5033260454019342E-010
   8.7000000000000029E-003     4.2501038799436230E-010
   9.0000000000000011E-003     1.8394941125876585E-009
   9.2999999999999992E-003    -9.4668237693440460E-009
   9.6000000000000009E-003     1.7368781968229996E-008
   9.8999999999999991E-003     8.3017095420245823E-009
   1.0200000000000001E-002    -1.0758968471691333E-007
   1.0500000000000002E-002     1.5671774633574387E-007
   1.0800000000000004E-002     2.2556687895303185E-007
   1.1099999999999999E-002    -8.3810152773367008E-007
   1.1400000000000000E-002    -2.6293025712220697E-007
   1.1700000000000002E-002     2.7164128368895035E-006
   1.2000000000000004E-002     9.6910821412166115E-007
   1.2300000000000002E-002    -7.6414144132286310E-006
   1.2600000000000000E-002    -7.6092169365438167E-006
   1.2900000000000002E-002     2.2727341274730861E-005
   1.3200000000000000E-002     8.6957967141643167E-005
   1.3500000000000002E-002     1.6896935994736850E-004
   1.3800000000000003E-002     2.6044086553156376E-004
   1.4100000000000001E-002     3.7766317836940289E-004
   1.4400000000000000E-002     5.5873510427772999E-004
   1.4700000000000001E-002     8.5825100541114807E-004
   1.4999999999999999E-002     1.3345665065571666E-003
   1.5300000000000001E-002     2.0512663759291172E-003
   1.5600000000000003E-002     3.0986024066805840E-003
   1.5899999999999997E-002     4.6044103801250458E-003
   1.6199999999999999E-002     6.7437402904033661E-003
   1.6500000000000001E-002     9.7485929727554321E-003
   1.6800000000000002E-002     1.3906129635870457E-002
   1.7100000000000004E-002     1.9553294405341148E-002
   1.7400000000000006E-002     2.7071500197052956E-002
   1.7700000000000000E-002     3.6892309784889221E-002
   1.8000000000000002E-002     4.9481216818094254E-002
   1.8300000000000004E-002     6.5275102853775024E-002
   1.8600000000000005E-002     8.4626041352748871E-002
   1.8900000000000000E-002    0.10774460434913635     
   1.9200000000000002E-002    0.13460746407508850     
   1.9500000000000003E-002    0.16482000052928925     
   1.9799999999999998E-002    0.19747731089591980     
   2.0100000000000000E-002    0.23104311525821686     
   2.0400000000000001E-002    0.26323026418685913     
   2.0700000000000003E-002    0.29090961813926697     
   2.0999999999999998E-002    0.31008547544479370     
   2.1299999999999999E-002    0.31594458222389221     
   2.1600000000000001E-002    0.30302000045776367     
   2.1900000000000003E-002    0.26546552777290344     
   2.2200000000000004E-002    0.19744393229484558     
   2.2500000000000006E-002     9.3734540045261383E-002
   2.2800000000000001E-002    -4.9589581787586212E-002
   2.3100000000000002E-002   -0.23444288969039917     
   2.3400000000000004E-002   -0.45996955037117004     
   2.3699999999999999E-002   -0.72190886735916138     
   2.4000000000000000E-002    -1.0120863914489746     
   2.4300000000000002E-002    -1.3181627988815308     
   2.4599999999999997E-002    -1.6237733364105225     
   2.4900000000000005E-002    -1.9090745449066162     
   2.5200000000000000E-002    -2.1517226696014404     
   2.5499999999999995E-002    -2.3282907009124756     
   2.5800000000000003E-002    -2.4159986972808838     
   2.6099999999999998E-002    -2.3947346210479736     
   2.6400000000000007E-002    -2.2490549087524414     
   2.6700000000000002E-002    -1.9700748920440674     
   2.6999999999999996E-002    -1.5569306612014771     
   2.7300000000000005E-002    -1.0179078578948975     
   2.7600000000000000E-002   -0.37053644657135010     
   2.7900000000000008E-002    0.35888564586639404     
   2.8200000000000003E-002     1.1366238594055176     
   2.8499999999999998E-002     1.9237065315246582     
   2.8800000000000006E-002     2.6783766746520996     
   2.9100000000000001E-002     3.3591604232788086     
   2.9400000000000003E-002     3.9278945922851562     
   2.9700000000000004E-002     4.3525118827819824     
   3.0000000000000006E-002     4.6094512939453125     
   3.0300000000000001E-002     4.6853499412536621     
   3.0600000000000002E-002     4.5777120590209961     
   3.0900000000000004E-002     4.2949738502502441     
   3.1199999999999999E-002     3.8554570674896240     
   3.1500000000000007E-002     3.2857034206390381     
   3.1800000000000002E-002     2.6183168888092041     
   3.2099999999999997E-002     1.8894160985946655     
   3.2400000000000005E-002     1.1358965635299683     
   3.2700000000000000E-002    0.39304721355438232     
   3.3000000000000002E-002   -0.30761167407035828     
   3.3300000000000003E-002   -0.94001770019531250     
   3.3599999999999998E-002    -1.4846379756927490     
   3.3900000000000000E-002    -1.9291846752166748     
   3.4200000000000001E-002    -2.2683451175689697     
   3.4500000000000003E-002    -2.5034487247467041     
   3.4799999999999998E-002    -2.6417362689971924     
   3.5099999999999999E-002    -2.6950895786285400     
   3.5400000000000001E-002    -2.6789820194244385     
   3.5699999999999996E-002    -2.6110737323760986     
   3.6000000000000004E-002    -2.5100252628326416     
   3.6299999999999999E-002    -2.3941335678100586     
   3.6600000000000008E-002    -2.2800683975219727     
   3.6900000000000002E-002    -2.1819078922271729     
   3.7199999999999997E-002    -2.1099848747253418     
   3.7500000000000006E-002    -2.0700623989105225     
   3.7800000000000000E-002    -2.0626778602600098     
   3.8100000000000009E-002    -2.0826292037963867     
   3.8400000000000004E-002    -2.1191670894622803     
   3.8699999999999998E-002    -2.1562709808349609     
   3.9000000000000007E-002    -2.1733388900756836     
   3.9300000000000002E-002    -2.1469287872314453     
   3.9600000000000003E-002    -2.0523657798767090     
   3.9900000000000005E-002    -1.8662896156311035     
   4.0200000000000000E-002    -1.5692265033721924     
   4.0500000000000001E-002    -1.1478800773620605     
   4.0800000000000003E-002   -0.59798240661621094     
   4.1100000000000005E-002     7.4434489011764526E-002
   4.1399999999999999E-002    0.85179716348648071     
   4.1700000000000008E-002     1.7047169208526611     
   4.2000000000000003E-002     2.5936584472656250     
   4.2299999999999997E-002     3.4702188968658447     
   4.2600000000000006E-002     4.2811765670776367     
   4.2900000000000001E-002     4.9720988273620605     
   4.3200000000000002E-002     5.4912977218627930     
   4.3500000000000004E-002     5.7948684692382812     
   4.3799999999999999E-002     5.8498353958129883     
   4.4100000000000000E-002     5.6375517845153809     
   4.4400000000000002E-002     5.1557092666625977     
   4.4700000000000004E-002     4.4184083938598633     
   4.4999999999999998E-002     3.4559624195098877     
   4.5300000000000000E-002     2.3126671314239502     
   4.5600000000000002E-002     1.0434472560882568     
   4.5899999999999996E-002   -0.28947553038597107     
   4.6200000000000005E-002    -1.6213043928146362     
   4.6500000000000000E-002    -2.8886694908142090     
   4.6799999999999994E-002    -4.0328865051269531     
   4.7100000000000003E-002    -5.0039334297180176     
   4.7399999999999998E-002    -5.7617278099060059     
   4.7700000000000006E-002    -6.2777857780456543     
   4.8000000000000001E-002    -6.5363006591796875     
   4.8300000000000010E-002    -6.5325398445129395     
   4.8600000000000004E-002    -6.2735271453857422     
   4.8899999999999999E-002    -5.7759976387023926     
   4.9200000000000008E-002    -5.0648326873779297     
   4.9500000000000002E-002    -4.1728672981262207     
   4.9800000000000011E-002    -3.1381902694702148     
   5.0100000000000006E-002    -2.0042295455932617     
   5.0400000000000000E-002   -0.81812411546707153     
   5.0700000000000009E-002    0.37152087688446045     
   5.1000000000000004E-002     1.5141086578369141     
   5.1299999999999998E-002     2.5610430240631104     
   5.1600000000000007E-002     3.4663133621215820     
   5.1900000000000002E-002     4.1890239715576172     
   5.2200000000000010E-002     4.6973328590393066     
   5.2500000000000005E-002     4.9681892395019531     
   5.2800000000000000E-002     4.9921846389770508     
   5.3099999999999994E-002     4.7736172676086426     
   5.3400000000000003E-002     4.3307199478149414     
   5.3699999999999998E-002     3.6972408294677734     
   5.4000000000000006E-002     2.9181718826293945     
   5.4300000000000001E-002     2.0489370822906494     
   5.4599999999999996E-002     1.1512758731842041     
   5.4900000000000004E-002    0.28731495141983032     
   5.5199999999999999E-002   -0.48324236273765564     
   5.5499999999999994E-002    -1.1098245382308960     
   5.5800000000000002E-002    -1.5546560287475586     
   5.6099999999999997E-002    -1.7952783107757568     
   5.6400000000000006E-002    -1.8281881809234619     
   5.6700000000000000E-002    -1.6673057079315186     
   5.6999999999999995E-002    -1.3435876369476318     
   5.7300000000000004E-002   -0.90250253677368164     
   5.7599999999999998E-002   -0.39791953563690186     
   5.7900000000000007E-002    0.11117211729288101     
   5.8200000000000002E-002    0.56768435239791870     
   5.8499999999999996E-002    0.92212194204330444     
   5.8800000000000005E-002     1.1362396478652954     
   5.9100000000000000E-002     1.1886496543884277     
   5.9400000000000008E-002     1.0755981206893921     
   5.9700000000000003E-002    0.81190240383148193     
   6.0000000000000012E-002    0.43023794889450073     
   6.0300000000000006E-002    -2.3701436817646027E-002
   6.0600000000000001E-002   -0.49405506253242493     
   6.0900000000000010E-002   -0.92131298780441284     
   6.1200000000000004E-002    -1.2489268779754639     
   6.1500000000000013E-002    -1.4276173114776611     
   6.1800000000000008E-002    -1.4225612878799438     
   6.2100000000000002E-002    -1.2160493135452271     
   6.2399999999999997E-002   -0.80986976623535156     
   6.2700000000000006E-002   -0.22677825391292572     
   6.3000000000000000E-002    0.49302065372467041     
   6.3300000000000009E-002     1.2939542531967163     
   6.3600000000000004E-002     2.1108732223510742     
   6.3899999999999998E-002     2.8758389949798584     
   6.4199999999999993E-002     3.5231413841247559     
   6.4500000000000002E-002     3.9973165988922119     
   6.4800000000000010E-002     4.2573304176330566     
   6.5100000000000005E-002     4.2801666259765625     
   6.5400000000000000E-002     4.0637679100036621     
   6.5700000000000008E-002     3.6247508525848389     
   6.5999999999999989E-002     2.9976062774658203     
   6.6299999999999998E-002     2.2297627925872803     
   6.6600000000000006E-002     1.3756818771362305     
   6.6900000000000001E-002    0.49189651012420654     
   6.7199999999999996E-002   -0.37012451887130737     
   6.7500000000000004E-002    -1.1679103374481201     
   6.7800000000000013E-002    -1.8721537590026855     
   6.8099999999999994E-002    -2.4687962532043457     
   6.8400000000000002E-002    -2.9582667350769043     
   6.8700000000000011E-002    -3.3547172546386719     
   6.8999999999999992E-002    -3.6820390224456787     
   6.9300000000000000E-002    -3.9699702262878418     
   6.9600000000000009E-002    -4.2493557929992676     
   6.9900000000000004E-002    -4.5476312637329102     
   7.0199999999999999E-002    -4.8853993415832520     
   7.0500000000000007E-002    -5.2731242179870605     
   7.0800000000000016E-002    -5.7100901603698730     
   7.1099999999999997E-002    -6.1837797164916992     
   7.1400000000000005E-002    -6.6708960533142090     
   7.1700000000000000E-002    -7.1396050453186035     
   7.1999999999999995E-002    -7.5512537956237793     
   7.2300000000000003E-002    -7.8641061782836914     
   7.2600000000000012E-002    -8.0353946685791016     
   7.2900000000000006E-002    -8.0246095657348633     
   7.3200000000000001E-002    -7.7959637641906738     
   7.3499999999999996E-002    -7.3197832107543945     
   7.3800000000000004E-002    -6.5753159523010254     
   7.4099999999999999E-002    -5.5510425567626953     
   7.4400000000000008E-002    -4.2470507621765137     
   7.4700000000000003E-002    -2.6752240657806396     
   7.5000000000000011E-002   -0.85965007543563843     
   7.5299999999999992E-002     1.1611363887786865     
   7.5600000000000001E-002     3.3368377685546875     
   7.5900000000000009E-002     5.6037383079528809     
   7.6200000000000004E-002     7.8869915008544922     
   7.6499999999999999E-002     10.104111671447754     
   7.6800000000000007E-002     12.164967536926270     
   7.7099999999999988E-002     13.979877471923828     
   7.7399999999999997E-002     15.460962295532227     
   7.7700000000000005E-002     16.528503417968750     
   7.8000000000000014E-002     17.117719650268555     
   7.8299999999999995E-002     17.179681777954102     
   7.8600000000000003E-002     16.689451217651367     
   7.8900000000000012E-002     15.646662712097168     
   7.9199999999999993E-002     14.076260566711426     
   7.9500000000000001E-002     12.031213760375977     
   7.9800000000000010E-002     9.5868062973022461     
   8.0100000000000018E-002     6.8396005630493164     
   8.0399999999999999E-002     3.9020252227783203     
   8.0700000000000008E-002    0.89500910043716431     
   8.1000000000000003E-002    -2.0555119514465332     
   8.1299999999999997E-002    -4.8278570175170898     
   8.1600000000000006E-002    -7.3093285560607910     
   8.1900000000000014E-002    -9.4013271331787109     
   8.2199999999999995E-002    -11.026481628417969     
   8.2500000000000004E-002    -12.128162384033203     
   8.2799999999999999E-002    -12.676952362060547     
   8.3100000000000007E-002    -12.669189453125000     
   8.3400000000000002E-002    -12.126853942871094     
   8.3700000000000011E-002    -11.098681449890137     
   8.4000000000000005E-002    -9.6548500061035156     
   8.4300000000000000E-002    -7.8855371475219727     
   8.4599999999999995E-002    -5.8965950012207031     
   8.4900000000000003E-002    -3.8029031753540039     
   8.5199999999999998E-002    -1.7246518135070801     
   8.5500000000000007E-002    0.22054070234298706     
   8.5800000000000001E-002     1.9239144325256348     
   8.6100000000000010E-002     3.2908010482788086     
   8.6399999999999991E-002     4.2483539581298828     
   8.6699999999999999E-002     4.7487821578979492     
   8.7000000000000008E-002     4.7733201980590820     
   8.7300000000000003E-002     4.3347520828247070     
   8.7599999999999997E-002     3.4755506515502930     
   8.7900000000000006E-002     2.2669107913970947     
   8.8200000000000014E-002    0.80384522676467896     
   8.8499999999999995E-002   -0.80192971229553223     
   8.8800000000000004E-002    -2.4285838603973389     
   8.9100000000000013E-002    -3.9536185264587402     
   8.9399999999999993E-002    -5.2630624771118164     
   8.9700000000000002E-002    -6.2591595649719238     
   9.0000000000000011E-002    -6.8690123558044434     
   9.0299999999999991E-002    -7.0492587089538574     
   9.0600000000000000E-002    -6.7892651557922363     
   9.0900000000000009E-002    -6.1133856773376465     
   9.1200000000000017E-002    -5.0765719413757324     
   9.1499999999999998E-002    -3.7619705200195312     
   9.1800000000000007E-002    -2.2731056213378906     
   9.2100000000000001E-002   -0.72376823425292969     
   9.2399999999999996E-002    0.76889228820800781     
   9.2700000000000005E-002     2.0968387126922607     
   9.3000000000000013E-002     3.1691873073577881     
   9.3300000000000008E-002     3.9195487499237061     
   9.3600000000000003E-002     4.3123922348022461     
   9.3899999999999997E-002     4.3444137573242188     
   9.4200000000000006E-002     4.0452389717102051     
   9.4500000000000001E-002     3.4729151725769043     
   9.4800000000000009E-002     2.7075526714324951     
   9.5100000000000004E-002     1.8445402383804321     
   9.5399999999999999E-002    0.98299789428710938     
   9.5699999999999993E-002    0.21665635704994202     
   9.6000000000000002E-002   -0.37475991249084473     
   9.6300000000000011E-002   -0.73384171724319458     
   9.6600000000000005E-002   -0.83000659942626953     
   9.6900000000000000E-002   -0.66185754537582397     
   9.7200000000000009E-002   -0.25597128272056580     
   9.7499999999999989E-002    0.33737486600875854     
   9.7799999999999998E-002     1.0503636598587036     
   9.8100000000000007E-002     1.8059905767440796     
   9.8400000000000015E-002     2.5267872810363770     
   9.8699999999999996E-002     3.1433393955230713     
   9.9000000000000005E-002     3.6012189388275146     
   9.9300000000000013E-002     3.8667647838592529     
   9.9599999999999994E-002     3.9288337230682373     
   9.9900000000000003E-002     3.7981545925140381     
  0.10020000000000001          3.5053977966308594     
  0.10049999999999999          3.0953118801116943     
  0.10080000000000000          2.6207315921783447     
  0.10110000000000001          2.1355047225952148     
  0.10140000000000000          1.6877979040145874     
  0.10170000000000000          1.3158215284347534     
  0.10200000000000001          1.0428644418716431     
  0.10230000000000002         0.87720078229904175     
  0.10260000000000000         0.81214708089828491     
  0.10290000000000001         0.82785081863403320     
  0.10320000000000000         0.89683562517166138     
  0.10350000000000001         0.98665511608123779     
  0.10380000000000000          1.0657408237457275     
  0.10410000000000001          1.1069179773330688     
  0.10440000000000001          1.0899814367294312     
  0.10470000000000000          1.0045654773712158     
  0.10500000000000000         0.84867411851882935     
  0.10530000000000000         0.62906414270401001     
  0.10560000000000000         0.35900172591209412     
  0.10590000000000001          5.4075911641120911E-002
  0.10620000000000000        -0.26779434084892273     
  0.10650000000000001        -0.59105163812637329     
  0.10679999999999999        -0.90365481376647949     
  0.10710000000000000         -1.1966826915740967     
  0.10740000000000001         -1.4671869277954102     
  0.10770000000000000         -1.7143489122390747     
  0.10800000000000000         -1.9410048723220825     
  0.10830000000000001         -2.1515412330627441     
  0.10859999999999999         -2.3488194942474365     
  0.10890000000000000         -2.5374886989593506     
  0.10920000000000001         -2.7191786766052246     
  0.10950000000000001         -2.8947308063507080     
  0.10979999999999999         -3.0655186176300049     
  0.11009999999999999         -3.2304379940032959     
  0.11040000000000001         -3.3905208110809326     
  0.11070000000000001         -3.5461788177490234     
  0.11100000000000000         -3.6973314285278320     
  0.11130000000000000         -3.8450438976287842     
  0.11160000000000002         -3.9863810539245605     
  0.11190000000000001         -4.1177868843078613     
  0.11220000000000001         -4.2323222160339355     
  0.11250000000000000         -4.3184828758239746     
  0.11280000000000000         -4.3653478622436523     
  0.11309999999999999         -4.3588013648986816     
  0.11340000000000001         -4.2870411872863770     
  0.11369999999999998         -4.1429553031921387     
  0.11400000000000000         -3.9230346679687500     
  0.11430000000000000         -3.6334917545318604     
  0.11460000000000002         -3.2859179973602295     
  0.11489999999999999         -2.8977451324462891     
  0.11520000000000001         -2.4905779361724854     
  0.11550000000000001         -2.0825257301330566     
  0.11580000000000000         -1.6888424158096313     
  0.11609999999999999         -1.3139241933822632     
  0.11640000000000002        -0.94918310642242432     
  0.11670000000000001        -0.57549631595611572     
  0.11700000000000001        -0.15911801159381866     
  0.11730000000000000         0.33793216943740845     
  0.11760000000000000         0.95642679929733276     
  0.11789999999999999          1.7315104007720947     
  0.11820000000000001          2.6816608905792236     
  0.11850000000000001          3.8095934391021729     
  0.11880000000000000          5.0908889770507812     
  0.11910000000000000          6.4786043167114258     
  0.11940000000000002          7.9061346054077148     
  0.11970000000000001          9.2914199829101562     
  0.12000000000000001          10.552238464355469     
  0.12030000000000000          11.612449645996094     
  0.12060000000000000          12.415699958801270     
  0.12089999999999999          12.936191558837891     
  0.12119999999999999          13.178963661193848     
  0.12150000000000001          13.186092376708984     
  0.12180000000000001          13.026536941528320     
  0.12210000000000000          12.785833358764648     
  0.12239999999999999          12.553387641906738     
  0.12270000000000002          12.399852752685547     
  0.12300000000000001          12.363703727722168     
  0.12330000000000001          12.432690620422363     
  0.12360000000000000          12.534631729125977     
  0.12390000000000000          12.537170410156250     
  0.12419999999999999          12.250842094421387     
  0.12450000000000001          11.449501991271973     
  0.12480000000000001          9.8926401138305664     
  0.12509999999999999          7.3538384437561035     
  0.12540000000000001          3.6608898639678955     
  0.12570000000000003         -1.2774776220321655     
  0.12600000000000000         -7.4409418106079102     
  0.12630000000000002         -14.676636695861816     
  0.12659999999999999         -22.699407577514648     
  0.12690000000000001         -31.092123031616211     
  0.12719999999999998         -39.333034515380859     
  0.12750000000000000         -46.832942962646484     
  0.12780000000000002         -52.976078033447266     
  0.12809999999999999         -57.182067871093750     
  0.12840000000000001         -58.953689575195312     
  0.12869999999999998         -57.927989959716797     
  0.12900000000000000         -53.922309875488281     
  0.12930000000000003         -46.950668334960938     
  0.12959999999999999         -37.241790771484375     
  0.12990000000000002         -25.225809097290039     
  0.13019999999999998         -11.505702972412109     
  0.13050000000000000          3.1798217296600342     
  0.13080000000000003          18.016183853149414     
  0.13109999999999999          32.168300628662109     
  0.13140000000000002          44.843395233154297     
  0.13169999999999998          55.346878051757812     
  0.13200000000000001          63.129142761230469     
  0.13229999999999997          67.820091247558594     
  0.13260000000000000          69.248847961425781     
  0.13290000000000002          67.445564270019531     
  0.13319999999999999          62.631259918212891     
  0.13350000000000001          55.192363739013672     
  0.13380000000000003          45.646427154541016     
  0.13410000000000000          34.601650238037109     
  0.13440000000000002          22.711467742919922     
  0.13469999999999999          10.631978988647461     
  0.13500000000000001         -1.0180025100708008     
  0.13529999999999998         -11.691970825195312     
  0.13560000000000000         -20.939834594726562     
  0.13590000000000002         -28.428699493408203     
  0.13619999999999999         -33.949565887451172     
  0.13650000000000001         -37.418388366699219     
  0.13680000000000003         -38.872200012207031     
  0.13710000000000000         -38.450359344482422     
  0.13740000000000002         -36.380222320556641     
  0.13769999999999999         -32.954952239990234     
  0.13800000000000001         -28.506689071655273     
  0.13829999999999998         -23.386732101440430     
  0.13860000000000000         -17.939367294311523     
  0.13890000000000002         -12.483181953430176     
  0.13919999999999999         -7.2962741851806641     
  0.13950000000000001         -2.6013991832733154     
  0.13979999999999998          1.4384181499481201     
  0.14010000000000000          4.7215585708618164     
  0.14040000000000002          7.2066602706909180     
  0.14069999999999999          8.9044246673583984     
  0.14100000000000001          9.8690204620361328     
  0.14130000000000004          10.187119483947754     
  0.14160000000000000          9.9655351638793945     
  0.14189999999999997          9.3222265243530273     
  0.14219999999999999          8.3750791549682617     
  0.14250000000000002          7.2341594696044922     
  0.14279999999999998          5.9988489151000977     
  0.14310000000000000          4.7515749931335449     
  0.14339999999999997          3.5583245754241943     
  0.14369999999999999          2.4696888923645020     
  0.14400000000000002          1.5183929204940796     
  0.14429999999999998         0.72598916292190552     
  0.14460000000000001         0.10156652331352234     
  0.14490000000000003        -0.35647031664848328     
  0.14520000000000000        -0.65516591072082520     
  0.14550000000000002        -0.81046801805496216     
  0.14579999999999999        -0.84175252914428711     
  0.14610000000000001        -0.77174788713455200     
  0.14640000000000003        -0.62727862596511841     
  0.14670000000000000        -0.43265518546104431     
  0.14699999999999996        -0.21399727463722229     
  0.14729999999999999          4.9235550686717033E-003
  0.14760000000000001         0.20677022635936737     
  0.14789999999999998         0.37458753585815430     
  0.14820000000000000         0.49971815943717957     