  -1.4999999999999999E-002     0.0000000000000000     
  -1.4700000000000000E-002     0.0000000000000000     
  -1.4400000000000000E-002     0.0000000000000000     
  -1.4100000000000000E-002     0.0000000000000000     
  -1.3800000000000000E-002     0.0000000000000000     
  -1.3500000000000000E-002     0.0000000000000000     
  -1.3200000000000000E-002     0.0000000000000000     
  -1.2899999999999998E-002     0.0000000000000000     
  -1.2600000000000000E-002     0.0000000000000000     
  -1.2299999999999998E-002     0.0000000000000000     
  -1.2000000000000000E-002     0.0000000000000000     
  -1.1699999999999999E-002     0.0000000000000000     
  -1.1399999999999999E-002     0.0000000000000000     
  -1.1099999999999999E-002     0.0000000000000000     
  -1.0799999999999999E-002     0.0000000000000000     
  -1.0499999999999999E-002     0.0000000000000000     
  -1.0199999999999999E-002     0.0000000000000000     
  -9.8999999999999991E-003     0.0000000000000000     
  -9.5999999999999992E-003     0.0000000000000000     
  -9.2999999999999992E-003     0.0000000000000000     
  -8.9999999999999993E-003     0.0000000000000000     
  -8.6999999999999994E-003     0.0000000000000000     
  -8.3999999999999995E-003     0.0000000000000000     
  -8.0999999999999996E-003     0.0000000000000000     
  -7.7999999999999988E-003     0.0000000000000000     
  -7.4999999999999997E-003     0.0000000000000000     
  -7.1999999999999998E-003     0.0000000000000000     
  -6.8999999999999981E-003     0.0000000000000000     
  -6.5999999999999982E-003     0.0000000000000000     
  -6.3000000000000000E-003     0.0000000000000000     
  -6.0000000000000001E-003     0.0000000000000000     
  -5.6999999999999985E-003     0.0000000000000000     
  -5.3999999999999986E-003     0.0000000000000000     
  -5.1000000000000004E-003     0.0000000000000000     
  -4.7999999999999987E-003     0.0000000000000000     
  -4.5000000000000005E-003     0.0000000000000000     
  -4.1999999999999989E-003     0.0000000000000000     
  -3.8999999999999990E-003     0.0000000000000000     
  -3.5999999999999990E-003     0.0000000000000000     
  -3.2999999999999991E-003     0.0000000000000000     
  -2.9999999999999992E-003     0.0000000000000000     
  -2.6999999999999993E-003     0.0000000000000000     
  -2.3999999999999994E-003     0.0000000000000000     
  -2.0999999999999977E-003     0.0000000000000000     
  -1.7999999999999995E-003     0.0000000000000000     
  -1.4999999999999979E-003     0.0000000000000000     
  -1.1999999999999997E-003     0.0000000000000000     
  -8.9999999999999976E-004     0.0000000000000000     
  -5.9999999999999810E-004     0.0000000000000000     
  -2.9999999999999992E-004     0.0000000000000000     
   0.0000000000000000          0.0000000000000000     
   3.0000000000000165E-004     0.0000000000000000     
   5.9999999999999984E-004     0.0000000000000000     
   9.0000000000000149E-004     0.0000000000000000     
   1.2000000000000031E-003     0.0000000000000000     
   1.5000000000000013E-003     0.0000000000000000     
   1.8000000000000030E-003     0.0000000000000000     
   2.1000000000000012E-003     0.0000000000000000     
   2.3999999999999994E-003     0.0000000000000000     
   2.7000000000000010E-003     0.0000000000000000     
   2.9999999999999992E-003     0.0000000000000000     
   3.3000000000000008E-003     0.0000000000000000     
   3.6000000000000025E-003     0.0000000000000000     
   3.9000000000000007E-003     0.0000000000000000     
   4.2000000000000023E-003     0.0000000000000000     
   4.5000000000000005E-003     0.0000000000000000     
   4.7999999999999987E-003     0.0000000000000000     
   5.1000000000000004E-003    -7.2831983215835210E-037
   5.4000000000000020E-003     5.8569967432570879E-036
   5.7000000000000037E-003     8.8708910773544322E-035
   5.9999999999999984E-003    -1.4162603894546546E-033
   6.3000000000000000E-003     5.5284887871874090E-033
   6.6000000000000017E-003     4.3454611338810830E-032
   6.9000000000000034E-003    -6.7881352210550493E-031
   7.2000000000000015E-003     3.4121930281205938E-030
   7.5000000000000032E-003     2.6646918446134902E-030
   7.8000000000000014E-003    -1.3681387435164019E-028
   8.0999999999999996E-003     7.7072085996432009E-028
   8.4000000000000012E-003    -1.0190586447888684E-027
   8.7000000000000029E-003    -1.1212311927871545E-026
   9.0000000000000011E-003     7.9254710431968986E-026
   9.2999999999999992E-003    -2.2629599193054664E-025
   9.6000000000000009E-003     1.0543914859184044E-026
   9.8999999999999991E-003     2.7343581499318022E-024
   1.0200000000000001E-002    -1.3113351578902852E-023
   1.0500000000000002E-002     3.5698568668568876E-023
   1.0800000000000004E-002    -5.9235464398849908E-023
   1.1099999999999999E-002     3.4813798054491094E-023
   1.1400000000000000E-002     1.0108622673860538E-022
   1.1700000000000002E-002    -2.3958950198526205E-022
   1.2000000000000004E-002    -1.2541843310086851E-022
   1.2300000000000002E-002    -1.1391052516679460E-021
   1.2600000000000000E-002     3.8942884525998007E-020
   1.2900000000000002E-002    -3.6452588144777786E-019
   1.3200000000000000E-002     2.3512886017325017E-018
   1.3500000000000002E-002    -1.2469224956089759E-017
   1.3800000000000003E-002     5.8636755746185399E-017
   1.4100000000000001E-002    -2.5538241883064168E-016
   1.4400000000000000E-002     1.0582114958945983E-015
   1.4700000000000001E-002    -4.2245831771779273E-015
   1.4999999999999999E-002     1.6200084486774416E-014
   1.5300000000000001E-002    -5.8472114140579318E-014
   1.5600000000000003E-002     1.9053029011277534E-013
   1.5899999999999997E-002    -5.1573871041876718E-013
   1.6199999999999999E-002     9.0436349815120609E-013
   1.6500000000000001E-002     7.1784776473765577E-013
   1.6800000000000002E-002    -1.4362346381635582E-011
   1.7100000000000004E-002     6.8655997553790371E-011
   1.7400000000000006E-002    -1.9681260787773880E-010
   1.7700000000000000E-002     2.7756899556585779E-010
   1.8000000000000002E-002     4.0632761044712140E-010
   1.8300000000000004E-002    -3.2208866684868553E-009
   1.8600000000000005E-002     6.9006138581073628E-009
   1.8900000000000000E-002     5.1781134935424689E-010
   1.9200000000000002E-002    -3.5235231621300045E-008
   1.9500000000000003E-002     5.6712096352384833E-008
   1.9799999999999998E-002     6.9951923364897084E-008
   2.0100000000000000E-002    -2.7771815780397446E-007
   2.0400000000000001E-002    -1.0423057261732538E-007
   2.0700000000000003E-002     8.8981295220946777E-007
   2.0999999999999998E-002     4.6151117771842110E-007
   2.1299999999999999E-002    -2.4801925064821262E-006
   2.1600000000000001E-002    -3.1049592053022934E-006
   2.1900000000000003E-002     6.9505176725215279E-006
   2.2200000000000004E-002     3.1302584829973057E-005
   2.2500000000000006E-002     6.6244159825146198E-005
   2.2800000000000001E-002     1.0876083251787350E-004
   2.3100000000000002E-002     1.6440014587715268E-004
   2.3400000000000004E-002     2.4875858798623085E-004
   2.3699999999999999E-002     3.8530392339453101E-004
   2.4000000000000000E-002     6.0144497547298670E-004
   2.4300000000000002E-002     9.2965236399322748E-004
   2.4599999999999997E-002     1.4146900502964854E-003
   2.4900000000000005E-002     2.1197339519858360E-003
   2.5200000000000000E-002     3.1321747228503227E-003
   2.5499999999999995E-002     4.5689693652093410E-003
   2.5800000000000003E-002     6.5789278596639633E-003
   2.6099999999999998E-002     9.3439957126975060E-003
   2.6400000000000007E-002     1.3080990873277187E-002
   2.6700000000000002E-002     1.8044529482722282E-002
   2.6999999999999996E-002     2.4522107094526291E-002
   2.7300000000000005E-002     3.2816827297210693E-002
   2.7600000000000000E-002     4.3226286768913269E-002
   2.7900000000000008E-002     5.6015774607658386E-002
   2.8200000000000003E-002     7.1375869214534760E-002
   2.8499999999999998E-002     8.9364737272262573E-002
   2.8800000000000006E-002    0.10983910411596298     
   2.9100000000000001E-002    0.13238519430160522     
   2.9400000000000003E-002    0.15624505281448364     
   2.9700000000000004E-002    0.18024258315563202     
   3.0000000000000006E-002    0.20273517072200775     
   3.0300000000000001E-002    0.22158865630626678     
   3.0600000000000002E-002    0.23420806229114532     
   3.0900000000000004E-002    0.23758780956268311     
   3.1199999999999999E-002    0.22845622897148132     
   3.1500000000000007E-002    0.20348522067070007     
   3.1800000000000002E-002    0.15955995023250580     
   3.2099999999999997E-002     9.4137690961360931E-002
   3.2400000000000005E-002     5.5916626006364822E-003
   3.2700000000000000E-002   -0.10641025751829147     
   3.3000000000000002E-002   -0.24055661261081696     
   3.3300000000000003E-002   -0.39361527562141418     
   3.3599999999999998E-002   -0.56030595302581787     
   3.3900000000000000E-002   -0.73328804969787598     
   3.4200000000000001E-002   -0.90337890386581421     
   3.4500000000000003E-002    -1.0599902868270874     
   3.4799999999999998E-002    -1.1917006969451904     
   3.5099999999999999E-002    -1.2870738506317139     
   3.5400000000000001E-002    -1.3355309963226318     
   3.5699999999999996E-002    -1.3282454013824463     
   3.6000000000000004E-002    -1.2591173648834229     
   3.6299999999999999E-002    -1.1253902912139893     
   3.6600000000000008E-002   -0.92829459905624390     
   3.6900000000000002E-002   -0.67316854000091553     
   3.7199999999999997E-002   -0.36934244632720947     
   3.7500000000000006E-002    -2.9827859252691269E-002
   3.7800000000000000E-002    0.32967770099639893     
   3.8100000000000009E-002    0.69170260429382324     
   3.8400000000000004E-002     1.0381367206573486     
   3.8699999999999998E-002     1.3517251014709473     
   3.9000000000000007E-002     1.6169886589050293     
   3.9300000000000002E-002     1.8214702606201172     
   3.9600000000000003E-002     1.9564799070358276     
   3.9900000000000005E-002     2.0174620151519775     
   4.0200000000000000E-002     2.0043182373046875     
   4.0500000000000001E-002     1.9209781885147095     
   4.0800000000000003E-002     1.7749661207199097     
   4.1100000000000005E-002     1.5767177343368530     
   4.1399999999999999E-002     1.3384989500045776     
   4.1700000000000008E-002     1.0736489295959473     
   4.2000000000000003E-002    0.79552030563354492     
   4.2299999999999997E-002    0.51654565334320068     
   4.2600000000000006E-002    0.24782645702362061     
   4.2900000000000001E-002    -1.6679782420396805E-003
   4.3200000000000002E-002   -0.22510246932506561     
   4.3500000000000004E-002   -0.41783255338668823     
   4.3799999999999999E-002   -0.57757425308227539     
   4.4100000000000000E-002   -0.70368295907974243     
   4.4400000000000002E-002   -0.79722529649734497     
   4.4700000000000004E-002   -0.86041176319122314     
   4.4999999999999998E-002   -0.89601218700408936     
   4.5300000000000000E-002   -0.90747445821762085     
   4.5600000000000002E-002   -0.89806514978408813     
   4.5899999999999996E-002   -0.87102985382080078     
   4.6200000000000005E-002   -0.82942932844161987     
   4.6500000000000000E-002   -0.77576088905334473     
   4.6799999999999994E-002   -0.71249568462371826     
   4.7100000000000003E-002   -0.64171159267425537     
   4.7399999999999998E-002   -0.56538081169128418     
   4.7700000000000006E-002   -0.48570251464843750     
   4.8000000000000001E-002   -0.40481534600257874     
   4.8300000000000010E-002   -0.32541528344154358     
   4.8600000000000004E-002   -0.25051259994506836     
   4.8899999999999999E-002   -0.18349786102771759     
   4.9200000000000008E-002   -0.12839624285697937     
   4.9500000000000002E-002    -8.9283153414726257E-002
   4.9800000000000011E-002    -7.0421352982521057E-002
   5.0100000000000006E-002    -7.5759753584861755E-002
   5.0400000000000000E-002   -0.10842069983482361     
   5.0700000000000009E-002   -0.17043691873550415     
   5.1000000000000004E-002   -0.26195853948593140     
   5.1299999999999998E-002   -0.38092938065528870     
   5.1600000000000007E-002   -0.52272933721542358     
   5.1900000000000002E-002   -0.67974454164505005     
   5.2200000000000010E-002   -0.84165990352630615     
   5.2500000000000005E-002   -0.99556273221969604     
   5.2800000000000000E-002    -1.1266094446182251     
   5.3099999999999994E-002    -1.2190835475921631     
   5.3400000000000003E-002    -1.2573636770248413     
   5.3699999999999998E-002    -1.2275223731994629     
   5.4000000000000006E-002    -1.1187152862548828     
   5.4300000000000001E-002   -0.92448997497558594     
   5.4599999999999996E-002   -0.64395713806152344     
   5.4900000000000004E-002   -0.28253397345542908     
   5.5199999999999999E-002    0.14788272976875305     
   5.5499999999999994E-002    0.62914496660232544     
   5.5800000000000002E-002     1.1377964019775391     
   5.6099999999999997E-002     1.6466590166091919     
   5.6400000000000006E-002     2.1265308856964111     
   5.6700000000000000E-002     2.5485126972198486     
   5.6999999999999995E-002     2.8861320018768311     
   5.7300000000000004E-002     3.1172816753387451     
   5.7599999999999998E-002     3.2261786460876465     
   5.7900000000000007E-002     3.2042465209960938     
   5.8200000000000002E-002     3.0509812831878662     
   5.8499999999999996E-002     2.7738101482391357     
   5.8800000000000005E-002     2.3872296810150146     
   5.9100000000000000E-002     1.9118152856826782     
   5.9400000000000008E-002     1.3722369670867920     
   5.9700000000000003E-002    0.79563951492309570     
   6.0000000000000012E-002    0.20962612330913544     
   6.0300000000000006E-002   -0.35973849892616272     
   6.0600000000000001E-002   -0.88921493291854858     
   6.0900000000000010E-002    -1.3597472906112671     
   6.1200000000000004E-002    -1.7571978569030762     
   6.1500000000000013E-002    -2.0724630355834961     
   6.1800000000000008E-002    -2.3016250133514404     
   6.2100000000000002E-002    -2.4451971054077148     
   6.2399999999999997E-002    -2.5076241493225098     
   6.2700000000000006E-002    -2.4964656829833984     
   6.3000000000000000E-002    -2.4212319850921631     
   6.3300000000000009E-002    -2.2929260730743408     
   6.3600000000000004E-002    -2.1231014728546143     
   6.3899999999999998E-002    -1.9232832193374634     
   6.4199999999999993E-002    -1.7048199176788330     
   6.4500000000000002E-002    -1.4781812429428101     
   6.4800000000000010E-002    -1.2530543804168701     
   6.5100000000000005E-002    -1.0380114316940308     
   6.5400000000000000E-002   -0.84011763334274292     
   6.5700000000000008E-002   -0.66509401798248291     
   6.5999999999999989E-002   -0.51657617092132568     
   6.6299999999999998E-002   -0.39592099189758301     
   6.6600000000000006E-002   -0.30213293433189392     
   6.6900000000000001E-002   -0.23107551038265228     
   6.7199999999999996E-002   -0.17601484060287476     
   6.7500000000000004E-002   -0.12743653357028961     
   6.7800000000000013E-002    -7.3582842946052551E-002
   6.8099999999999994E-002    -1.6617234796285629E-003
   6.8400000000000002E-002    0.10154843330383301     
   6.8700000000000011E-002    0.24778774380683899     
   6.8999999999999992E-002    0.44591456651687622     
   6.9300000000000000E-002    0.70055246353149414     
   6.9600000000000009E-002     1.0103800296783447     
   6.9900000000000004E-002     1.3678873777389526     
   7.0199999999999999E-002     1.7586189508438110     
   7.0500000000000007E-002     2.1616468429565430     
   7.0800000000000016E-002     2.5510392189025879     
   7.1099999999999997E-002     2.8970992565155029     
   7.1400000000000005E-002     3.1692337989807129     
   7.1700000000000000E-002     3.3385646343231201     
   7.1999999999999995E-002     3.3803834915161133     
   7.2300000000000003E-002     3.2772257328033447     
   7.2600000000000012E-002     3.0206022262573242     
   7.2900000000000006E-002     2.6123101711273193     
   7.3200000000000001E-002     2.0652027130126953     
   7.3499999999999996E-002     1.4022284746170044     
   7.3800000000000004E-002    0.65531009435653687     
   7.4099999999999999E-002   -0.13702312111854553     
   7.4400000000000008E-002   -0.93290877342224121     
   7.4700000000000003E-002    -1.6896114349365234     
   7.5000000000000011E-002    -2.3675885200500488     
   7.5299999999999992E-002    -2.9329149723052979     
   7.5600000000000001E-002    -3.3597972393035889     
   7.5900000000000009E-002    -3.6325402259826660     
   7.6200000000000004E-002    -3.7455267906188965     
   7.6499999999999999E-002    -3.7036664485931396     
   7.6800000000000007E-002    -3.5210731029510498     
   7.7099999999999988E-002    -3.2190134525299072     
   7.7399999999999997E-002    -2.8241891860961914     
   7.7700000000000005E-002    -2.3653829097747803     
   7.8000000000000014E-002    -1.8712877035140991     
   7.8299999999999995E-002    -1.3680475950241089     
   7.8600000000000003E-002   -0.87705743312835693     
   7.8900000000000012E-002   -0.41410446166992188     
   7.9199999999999993E-002     1.1643674224615097E-002
   7.9500000000000001E-002    0.39732486009597778     
   7.9800000000000010E-002    0.74548280239105225     
   8.0100000000000018E-002     1.0626778602600098     
   8.0399999999999999E-002     1.3576753139495850     
   8.0700000000000008E-002     1.6393046379089355     
   8.1000000000000003E-002     1.9144328832626343     
   8.1299999999999997E-002     2.1865606307983398     
   8.1600000000000006E-002     2.4539847373962402     
   8.1900000000000014E-002     2.7095155715942383     
   8.2199999999999995E-002     2.9405488967895508     
   8.2500000000000004E-002     3.1296403408050537     
   8.2799999999999999E-002     3.2564609050750732     
   8.3100000000000007E-002     3.2994077205657959     
   8.3400000000000002E-002     3.2383472919464111     
   8.3700000000000011E-002     3.0571784973144531     
   8.4000000000000005E-002     2.7458734512329102     
   8.4300000000000000E-002     2.3027651309967041     
   8.4599999999999995E-002     1.7352783679962158     
   8.4900000000000003E-002     1.0605220794677734     
   8.5199999999999998E-002    0.30479079484939575     
   8.5500000000000007E-002   -0.49834126234054565     
   8.5800000000000001E-002    -1.3097294569015503     
   8.6100000000000010E-002    -2.0881502628326416     
   8.6399999999999991E-002    -2.7931458950042725     
   8.6699999999999999E-002    -3.3878314495086670     
   8.7000000000000008E-002    -3.8424761295318604     
   8.7300000000000003E-002    -4.1356601715087891     
   8.7599999999999997E-002    -4.2561788558959961     
   8.7900000000000006E-002    -4.2034416198730469     
   8.8200000000000014E-002    -3.9864087104797363     
   8.8499999999999995E-002    -3.6231138706207275     
   8.8800000000000004E-002    -3.1379482746124268     
   8.9100000000000013E-002    -2.5596356391906738     
   8.9399999999999993E-002    -1.9194483757019043     
   8.9700000000000002E-002    -1.2479269504547119     
   9.0000000000000011E-002   -0.57436484098434448     
   9.0299999999999991E-002     7.5062558054924011E-002
   9.0600000000000000E-002    0.67838907241821289     
   9.0900000000000009E-002     1.2166850566864014     
   9.1200000000000017E-002     1.6755955219268799     
   9.1499999999999998E-002     2.0433404445648193     
   9.1800000000000007E-002     2.3109128475189209     
   9.2100000000000001E-002     2.4723730087280273     
   9.2399999999999996E-002     2.5231468677520752     
   9.2700000000000005E-002     2.4621870517730713     
   9.3000000000000013E-002     2.2912800312042236     
   9.3300000000000008E-002     2.0158975124359131     
   9.3600000000000003E-002     1.6467354297637939     
   9.3899999999999997E-002     1.1990635395050049     
   9.4200000000000006E-002    0.69406175613403320     
   9.4500000000000001E-002    0.15797984600067139     
   9.4800000000000009E-002   -0.37917235493659973     
   9.5100000000000004E-002   -0.88410192728042603     
   9.5399999999999999E-002    -1.3235819339752197     
   9.5699999999999993E-002    -1.6664407253265381     
   9.6000000000000002E-002    -1.8859685659408569     
   9.6300000000000011E-002    -1.9634023904800415     
   9.6600000000000005E-002    -1.8890153169631958     
   9.6900000000000000E-002    -1.6642313003540039     
   9.7200000000000009E-002    -1.3021631240844727     
   9.7499999999999989E-002   -0.82653695344924927     
   9.7799999999999998E-002   -0.27120381593704224     
   9.8100000000000007E-002    0.32292252779006958     
   9.8400000000000015E-002    0.91084045171737671     
   9.8699999999999996E-002     1.4463444948196411     
   9.9000000000000005E-002     1.8866821527481079     
   9.9300000000000013E-002     2.1949155330657959     
   9.9599999999999994E-002     2.3433969020843506     
   9.9900000000000003E-002     2.3162987232208252     
  0.10020000000000001          2.1099035739898682     
  0.10049999999999999          1.7343033552169800     
  0.10080000000000000          1.2119991779327393     
  0.10110000000000001         0.57660824060440063     
  0.10140000000000000        -0.12857180833816528     
  0.10170000000000000        -0.85454064607620239     
  0.10200000000000001         -1.5486387014389038     
  0.10230000000000002         -2.1586515903472900     
  0.10260000000000000         -2.6364390850067139     
  0.10290000000000001         -2.9405727386474609     
  0.10320000000000000         -3.0404949188232422     
  0.10350000000000001         -2.9181163311004639     
  0.10380000000000000         -2.5702373981475830     
  0.10410000000000001         -2.0094804763793945     
  0.10440000000000001         -1.2635278701782227     
  0.10470000000000000        -0.37488776445388794     
  0.10500000000000000         0.60219651460647583     
  0.10530000000000000          1.6046553850173950     
  0.10560000000000000          2.5648417472839355     
  0.10590000000000001          3.4156394004821777     
  0.10620000000000000          4.0949540138244629     
  0.10650000000000001          4.5511684417724609     
  0.10679999999999999          4.7467527389526367     
  0.10710000000000000          4.6617450714111328     
  0.10740000000000001          4.2959103584289551     
  0.10770000000000000          3.6687760353088379     
  0.10800000000000000          2.8191077709197998     
  0.10830000000000001          1.8017227649688721     
  0.10859999999999999         0.68371337652206421     
  0.10890000000000000        -0.46042987704277039     
  0.10920000000000001         -1.5549106597900391     
  0.10950000000000001         -2.5277707576751709     
  0.10979999999999999         -3.3165760040283203     
  0.11009999999999999         -3.8733315467834473     
  0.11040000000000001         -4.1670694351196289     
  0.11070000000000001         -4.1870284080505371     
  0.11100000000000000         -3.9422965049743652     
  0.11130000000000000         -3.4605853557586670     
  0.11160000000000002         -2.7862358093261719     
  0.11190000000000001         -1.9752610921859741     
  0.11220000000000001         -1.0917977094650269     
  0.11250000000000000        -0.20183175802230835     
  0.11280000000000000         0.63173252344131470     
  0.11309999999999999          1.3533262014389038     
  0.11340000000000001          1.9199618101119995     
  0.11369999999999998          2.3026905059814453     
  0.11400000000000000          2.4889729022979736     
  0.11430000000000000          2.4825539588928223     
  0.11460000000000002          2.3012499809265137     
  0.11489999999999999          1.9755150079727173     
  0.11520000000000001          1.5438300371170044     
  0.11550000000000001          1.0491658449172974     
  0.11580000000000000         0.53477364778518677     
  0.11609999999999999          3.9358578622341156E-002
  0.11640000000000002        -0.40482658147811890     
  0.11670000000000001        -0.77558612823486328     
  0.11700000000000001         -1.0611788034439087     
  0.11730000000000000         -1.2599004507064819     
  0.11760000000000000         -1.3797361850738525     
  0.11789999999999999         -1.4348524808883667     
  0.11820000000000001         -1.4437946081161499     
  0.11850000000000001         -1.4255795478820801     
  0.11880000000000000         -1.3966090679168701     
  0.11910000000000000         -1.3686592578887939     
  0.11940000000000002         -1.3463908433914185     
  0.11970000000000001         -1.3277156352996826     
  0.12000000000000001         -1.3037797212600708     
  0.12030000000000000         -1.2606017589569092     
  0.12060000000000000         -1.1821644306182861     
  0.12089999999999999         -1.0526738166809082     
  0.12119999999999999        -0.86024975776672363     
  0.12150000000000001        -0.59954535961151123     
  0.12180000000000001        -0.27366572618484497     
  0.12210000000000000         0.10446359217166901     
  0.12239999999999999         0.51292961835861206     
  0.12270000000000002         0.92223083972930908     
  0.12300000000000001          1.2980926036834717     
  0.12330000000000001          1.6050876379013062     
  0.12360000000000000          1.8105837106704712     
  0.12390000000000000          1.8888732194900513     
  0.12419999999999999          1.8242074251174927     
  0.12450000000000001          1.6131292581558228     
  0.12480000000000001          1.2655261754989624     
  0.12509999999999999         0.80379402637481689     
  0.12540000000000001         0.26086437702178955     
  0.12570000000000003        -0.32315206527709961     
  0.12600000000000000        -0.90494292974472046     
  0.12630000000000002         -1.4423844814300537     
  0.12659999999999999         -1.8985881805419922     
  0.12690000000000001         -2.2451052665710449     
  0.12719999999999998         -2.4646241664886475     
  0.12750000000000000         -2.5514588356018066     
  0.12780000000000002         -2.5114941596984863     
  0.12809999999999999         -2.3603394031524658     
  0.12840000000000001         -2.1205174922943115     
  0.12869999999999998         -1.8187692165374756     
  0.12900000000000000         -1.4821825027465820     
  0.12930000000000003         -1.1359584331512451     
  0.12959999999999999        -0.80055278539657593     
  0.12990000000000002        -0.49008229374885559     
  0.13019999999999998        -0.21251609921455383     
  0.13050000000000000          3.1262297183275223E-002
  0.13080000000000003         0.24554489552974701     
  0.13109999999999999         0.43872469663619995     
  0.13140000000000002         0.62202781438827515     
  0.13169999999999998         0.80698317289352417     
  0.13200000000000001          1.0055021047592163     
  0.13229999999999997          1.2276935577392578     
  0.13260000000000000          1.4814633131027222     
  0.13290000000000002          1.7729964256286621     
  0.13319999999999999          2.1054666042327881     
  0.13350000000000001          2.4802069664001465     
  0.13380000000000003          2.8957667350769043     
  0.13410000000000000          3.3477387428283691     
  0.13440000000000002          3.8295242786407471     
  0.13469999999999999          4.3305020332336426     
  0.13500000000000001          4.8368473052978516     
  0.13529999999999998          5.3309273719787598     
  0.13560000000000000          5.7906236648559570     
  0.13590000000000002          6.1906943321228027     
  0.13619999999999999          6.5025215148925781     
  0.13650000000000001          6.6958923339843750     
  0.13680000000000003          6.7412285804748535     
  0.13710000000000000          6.6105475425720215     
  0.13740000000000002          6.2805171012878418     
  0.13769999999999999          5.7344388961791992     
  0.13800000000000001          4.9638881683349609     
  0.13829999999999998          3.9705221652984619     
  0.13860000000000000          2.7666006088256836     
  0.13890000000000002          1.3753173351287842     
  0.13919999999999999        -0.17004007101058960     
  0.13950000000000001         -1.8270957469940186     
  0.13979999999999998         -3.5470023155212402     
  0.14010000000000000         -5.2758836746215820     
  0.14040000000000002         -6.9580092430114746     
  0.14069999999999999         -8.5382509231567383     
  0.14100000000000001         -9.9641628265380859     
  0.14130000000000004         -11.188802719116211     
  0.14160000000000000         -12.171575546264648     
  0.14189999999999997         -12.880043029785156     
  0.14219999999999999         -13.290810585021973     
  0.14250000000000002         -13.389031410217285     
  0.14279999999999998         -13.169521331787109     
  0.14310000000000000         -12.635640144348145     
  0.14339999999999997         -11.798501968383789     
  0.14369999999999999         -10.677325248718262     
  0.14400000000000002         -9.2972240447998047     
  0.14429999999999998         -7.6894650459289551     
  0.14460000000000001         -5.8907237052917480     
  0.14490000000000003         -3.9411559104919434     
  0.14520000000000000         -1.8863556385040283     
  0.14550000000000002         0.22546879947185516     
  0.14579999999999999          2.3428111076354980     
  0.14610000000000001          4.4106464385986328     
  0.14640000000000003          6.3736824989318848     
  0.14670000000000000          8.1739768981933594     
  0.14699999999999996          9.7558412551879883     
  0.14729999999999999          11.065230369567871     
  0.14760000000000001          12.052772521972656     
  0.14789999999999998          12.678517341613770     
  0.14820000000000000          12.910578727722168     