  -1.4999999999999999E-002     0.0000000000000000     
  -1.4700000000000000E-002     0.0000000000000000     
  -1.4400000000000000E-002     0.0000000000000000     
  -1.4100000000000000E-002     0.0000000000000000     
  -1.3800000000000000E-002     0.0000000000000000     
  -1.3500000000000000E-002     0.0000000000000000     
  -1.3200000000000000E-002     0.0000000000000000     
  -1.2899999999999998E-002     0.0000000000000000     
  -1.2600000000000000E-002     0.0000000000000000     
  -1.2299999999999998E-002     0.0000000000000000     
  -1.2000000000000000E-002     0.0000000000000000     
  -1.1699999999999999E-002     0.0000000000000000     
  -1.1399999999999999E-002     0.0000000000000000     
  -1.1099999999999999E-002     0.0000000000000000     
  -1.0799999999999999E-002     0.0000000000000000     
  -1.0499999999999999E-002     0.0000000000000000     
  -1.0199999999999999E-002     0.0000000000000000     
  -9.8999999999999991E-003     0.0000000000000000     
  -9.5999999999999992E-003     0.0000000000000000     
  -9.2999999999999992E-003     0.0000000000000000     
  -8.9999999999999993E-003     0.0000000000000000     
  -8.6999999999999994E-003     0.0000000000000000     
  -8.3999999999999995E-003     0.0000000000000000     
  -8.0999999999999996E-003     0.0000000000000000     
  -7.7999999999999988E-003     0.0000000000000000     
  -7.4999999999999997E-003     0.0000000000000000     
  -7.1999999999999998E-003     0.0000000000000000     
  -6.8999999999999981E-003     0.0000000000000000     
  -6.5999999999999982E-003     0.0000000000000000     
  -6.3000000000000000E-003     0.0000000000000000     
  -6.0000000000000001E-003     0.0000000000000000     
  -5.6999999999999985E-003     0.0000000000000000     
  -5.3999999999999986E-003     0.0000000000000000     
  -5.1000000000000004E-003     0.0000000000000000     
  -4.7999999999999987E-003     0.0000000000000000     
  -4.5000000000000005E-003     0.0000000000000000     
  -4.1999999999999989E-003     0.0000000000000000     
  -3.8999999999999990E-003     0.0000000000000000     
  -3.5999999999999990E-003     0.0000000000000000     
  -3.2999999999999991E-003     0.0000000000000000     
  -2.9999999999999992E-003     0.0000000000000000     
  -2.6999999999999993E-003     0.0000000000000000     
  -2.3999999999999994E-003     0.0000000000000000     
  -2.0999999999999977E-003     0.0000000000000000     
  -1.7999999999999995E-003     0.0000000000000000     
  -1.4999999999999979E-003     0.0000000000000000     
  -1.1999999999999997E-003     0.0000000000000000     
  -8.9999999999999976E-004     0.0000000000000000     
  -5.9999999999999810E-004     0.0000000000000000     
  -2.9999999999999992E-004     0.0000000000000000     
   0.0000000000000000          0.0000000000000000     
   3.0000000000000165E-004     0.0000000000000000     
   5.9999999999999984E-004     0.0000000000000000     
   9.0000000000000149E-004     0.0000000000000000     
   1.2000000000000031E-003     0.0000000000000000     
   1.5000000000000013E-003     0.0000000000000000     
   1.8000000000000030E-003     0.0000000000000000     
   2.1000000000000012E-003     0.0000000000000000     
   2.3999999999999994E-003     0.0000000000000000     
   2.7000000000000010E-003     0.0000000000000000     
   2.9999999999999992E-003     0.0000000000000000     
   3.3000000000000008E-003     0.0000000000000000     
   3.6000000000000025E-003     0.0000000000000000     
   3.9000000000000007E-003     0.0000000000000000     
   4.2000000000000023E-003     0.0000000000000000     
   4.5000000000000005E-003     0.0000000000000000     
   4.7999999999999987E-003     0.0000000000000000     
   5.1000000000000004E-003     0.0000000000000000     
   5.4000000000000020E-003     0.0000000000000000     
   5.7000000000000037E-003     0.0000000000000000     
   5.9999999999999984E-003     0.0000000000000000     
   6.3000000000000000E-003     0.0000000000000000     
   6.6000000000000017E-003     0.0000000000000000     
   6.9000000000000034E-003     0.0000000000000000     
   7.2000000000000015E-003     0.0000000000000000     
   7.5000000000000032E-003     0.0000000000000000     
   7.8000000000000014E-003     0.0000000000000000     
   8.0999999999999996E-003     0.0000000000000000     
   8.4000000000000012E-003     0.0000000000000000     
   8.7000000000000029E-003     0.0000000000000000     
   9.0000000000000011E-003     0.0000000000000000     
   9.2999999999999992E-003     0.0000000000000000     
   9.6000000000000009E-003     0.0000000000000000     
   9.8999999999999991E-003     0.0000000000000000     
   1.0200000000000001E-002     0.0000000000000000     
   1.0500000000000002E-002    -1.1736542357438594E-037
   1.0800000000000004E-002    -1.8390026498320179E-036
   1.1099999999999999E-002     6.4611013097310528E-035
   1.1400000000000000E-002    -2.8309634750158962E-034
   1.1700000000000002E-002    -3.8060709032621084E-033
   1.2000000000000004E-002     4.3186455025858807E-032
   1.2300000000000002E-002    -6.8631632604621561E-032
   1.2600000000000000E-002    -1.6481743269655839E-030
   1.2900000000000002E-002     1.1479351876092116E-029
   1.3200000000000000E-002    -8.3051372773948100E-032
   1.3500000000000002E-002    -3.3987662264296562E-028
   1.3800000000000003E-002     1.5572614725141513E-027
   1.4100000000000001E-002     6.3128102159147748E-028
   1.4400000000000000E-002    -3.2754729780210965E-026
   1.4700000000000001E-002     1.2625354940051169E-025
   1.4999999999999999E-002    -3.2431328413475567E-026
   1.5300000000000001E-002    -1.4553131907009313E-024
   1.5600000000000003E-002     5.5713004756065646E-024
   1.5899999999999997E-002    -5.0248174502158844E-024
   1.6199999999999999E-002    -2.7981987617922532E-023
   1.6500000000000001E-002     8.8237239475597029E-023
   1.6800000000000002E-002     1.5231906895433115E-022
   1.7100000000000004E-002    -1.8436698536973322E-021
   1.7400000000000006E-002     6.2149227198261533E-021
   1.7700000000000000E-002    -7.0208861082073095E-021
   1.8000000000000002E-002    -3.9843226559589795E-020
   1.8300000000000004E-002     3.2382214060994834E-019
   1.8600000000000005E-002    -1.5958034932000215E-018
   1.8900000000000000E-002     6.9051565699508353E-018
   1.9200000000000002E-002    -2.8826620575887230E-017
   1.9500000000000003E-002     1.1869054208050217E-016
   1.9799999999999998E-002    -4.8306378926757471E-016
   2.0100000000000000E-002     1.9474004367125058E-015
   2.0400000000000001E-002    -7.7864861473166304E-015
   2.0700000000000003E-002     3.0668134171115610E-014
   2.0999999999999998E-002    -1.1662768848938915E-013
   2.1299999999999999E-002     4.1374403226876170E-013
   2.1600000000000001E-002    -1.2983394497581539E-012
   2.1900000000000003E-002     3.2655803318132663E-012
   2.2200000000000004E-002    -4.7580851052600169E-012
   2.2500000000000006E-002    -8.1027720859993839E-012
   2.2800000000000001E-002     8.8097393515168007E-011
   2.3100000000000002E-002    -3.4144834600062753E-010
   2.3400000000000004E-002     7.3852184810372135E-010
   2.3699999999999999E-002    -3.2479789141526287E-010
   2.4000000000000000E-002    -3.6812319121422879E-009
   2.4300000000000002E-002     1.2388075554305103E-008
   2.4599999999999997E-002    -1.0837811491394263E-008
   2.4900000000000005E-002    -3.6781804949870657E-008
   2.5200000000000000E-002     1.0715499828678879E-007
   2.5499999999999995E-002     6.8834539667430532E-009
   2.5800000000000003E-002    -3.9039839219119121E-007
   2.6099999999999998E-002     1.6898910328825247E-007
   2.6400000000000007E-002     1.1378700862340418E-006
   2.6700000000000002E-002    -2.9084637328277116E-007
   2.6999999999999996E-002    -3.3925385308398873E-006
   2.7300000000000005E-002    -1.5504269326469403E-006
   2.7600000000000000E-002     1.1528400221026271E-005
   2.7900000000000008E-002     3.4687893420017805E-005
   2.8200000000000003E-002     6.2632695191904009E-005
   2.8499999999999998E-002     9.5939631174465304E-005
   2.8800000000000006E-002     1.4381080041960589E-004
   2.9100000000000001E-002     2.2152955205635184E-004
   2.9400000000000003E-002     3.4813586852306538E-004
   2.9700000000000004E-002     5.4446917385614184E-004
   3.0000000000000006E-002     8.3757699088100532E-004
   3.0300000000000001E-002     1.2673957192131935E-003
   3.0600000000000002E-002     1.8900113850600225E-003
   3.0900000000000004E-002     2.7820275587848164E-003
   3.1199999999999999E-002     4.0438994942332829E-003
   3.1500000000000007E-002     5.8013625326517326E-003
   3.1800000000000002E-002     8.2070570634220075E-003
   3.2099999999999997E-002     1.1442585353508672E-002
   3.2400000000000005E-002     1.5721168788674911E-002
   3.2700000000000000E-002     2.1281134087227538E-002
   3.3000000000000002E-002     2.8369379613830792E-002
   3.3300000000000003E-002     3.7225609750160649E-002
   3.3599999999999998E-002     4.8060351407757773E-002
   3.3900000000000000E-002     6.1020012494422016E-002
   3.4200000000000001E-002     7.6137380522595333E-002
   3.4500000000000003E-002     9.3275504201490556E-002
   3.4799999999999998E-002    0.11207799880385272     
   3.5099999999999999E-002    0.13191102165885216     
   3.5400000000000001E-002    0.15180712532914242     
   3.5699999999999996E-002    0.17043253387776147     
   3.6000000000000004E-002    0.18607142974777169     
   3.6299999999999999E-002    0.19665423739906629     
   3.6600000000000008E-002    0.19981037814132296     
   3.6900000000000002E-002    0.19298335341039685     
   3.7199999999999997E-002    0.17360145904846647     
   3.7500000000000006E-002    0.13929904287775674     
   3.7800000000000000E-002     8.8162058712336400E-002
   3.8100000000000009E-002     1.9031130947027575E-002
   3.8400000000000004E-002    -6.8253222369189431E-002
   3.8699999999999998E-002   -0.17256902882412861     
   3.9000000000000007E-002   -0.29134552729960728     
   3.9300000000000002E-002   -0.42047193593472088     
   3.9600000000000003E-002   -0.55430866226492981     
   3.9900000000000005E-002   -0.68591288411764140     
   4.0200000000000000E-002   -0.80731203311063382     
   4.0500000000000001E-002   -0.91000449915335935     
   4.0800000000000003E-002   -0.98554064921815154     
   4.1100000000000005E-002    -1.0261652685492884     
   4.1399999999999999E-002    -1.0255089295388800     
   4.1700000000000008E-002   -0.97919016614847365     
   4.2000000000000003E-002   -0.88532736303456616     
   4.2299999999999997E-002   -0.74490450083619564     
   4.2600000000000006E-002   -0.56185649562328166     
   4.2900000000000001E-002   -0.34298751071046851     
   4.3200000000000002E-002    -9.7601354603746859E-002
   4.3500000000000004E-002    0.16306401138555948     
   4.3799999999999999E-002    0.42655782382276275     
   4.4100000000000000E-002    0.68015579487786226     
   4.4400000000000002E-002    0.91155886783857554     
   4.4700000000000004E-002     1.1099452895184498     
   4.4999999999999998E-002     1.2665068897577783     
   4.5300000000000000E-002     1.3749723207999480     
   4.5600000000000002E-002     1.4321102089283428     
   4.5899999999999996E-002     1.4374988079219619     
   4.6200000000000005E-002     1.3936653873054894     
   4.6500000000000000E-002     1.3055396576357481     
   4.6799999999999994E-002     1.1799348200751041     
   4.7100000000000003E-002     1.0251148517728765     
   4.7399999999999998E-002    0.84991571812054545     
   4.7700000000000006E-002    0.66330557075418994     
   4.8000000000000001E-002    0.47380425170624640     
   4.8300000000000010E-002    0.28887123363830902     
   4.8600000000000004E-002    0.11484682087286835     
   4.8899999999999999E-002    -4.3442631249793973E-002
   4.9200000000000008E-002   -0.18272894258340777     
   4.9500000000000002E-002   -0.30099092613723055     
   4.9800000000000011E-002   -0.39767921634281755     
   5.0100000000000006E-002   -0.47319713414596976     
   5.0400000000000000E-002   -0.52870723084478755     
   5.0700000000000009E-002   -0.56613727312442563     
   5.1000000000000004E-002   -0.58744940378487343     
   5.1299999999999998E-002   -0.59492763235373403     
   5.1600000000000007E-002   -0.59068922116615497     
   5.1900000000000002E-002   -0.57659042289748896     
   5.2200000000000010E-002   -0.55441176492933408     
   5.2500000000000005E-002   -0.52535165856140154     
   5.2800000000000000E-002   -0.49049228863433392     
   5.3099999999999994E-002   -0.45063845643536560     
   5.3400000000000003E-002   -0.40622596529978772     
   5.3699999999999998E-002   -0.35788572773942562     
   5.4000000000000006E-002   -0.30599554326485112     
   5.4300000000000001E-002   -0.25124463476689396     
   5.4599999999999996E-002   -0.19463983311028521     
   5.4900000000000004E-002   -0.13740083816817261     
   5.5199999999999999E-002    -8.1520987291528346E-002
   5.5499999999999994E-002    -2.9331904642504458E-002
   5.5800000000000002E-002     1.6163162972352096E-002
   5.6099999999999997E-002     5.1409978191474526E-002
   5.6400000000000006E-002     7.2720234286898888E-002
   5.6700000000000000E-002     7.6167410982787231E-002
   5.6999999999999995E-002     5.8230214220062804E-002
   5.7300000000000004E-002     1.6104088208362399E-002
   5.7599999999999998E-002    -5.1877795092969248E-002
   5.7900000000000007E-002   -0.14564588686241553     
   5.8200000000000002E-002   -0.26316153359731853     
   5.8499999999999996E-002   -0.40006413079037628     
   5.8800000000000005E-002   -0.54948431840950818     
   5.9100000000000000E-002   -0.70231588356143249     
   5.9400000000000008E-002   -0.84748923800646736     
   5.9700000000000003E-002   -0.97257985489944687     
   6.0000000000000012E-002    -1.0648106350928757     
   6.0300000000000006E-002    -1.1118495508902484     
   6.0600000000000001E-002    -1.1031047027979000     
   6.0900000000000010E-002    -1.0308015705283964     
   6.1200000000000004E-002   -0.89072532007913807     
   6.1500000000000013E-002   -0.68326773887298131     
   6.1800000000000008E-002   -0.41341148888965762     
   6.2100000000000002E-002    -9.0966624049185318E-002
   6.2399999999999997E-002    0.26987074077533180     
   6.2700000000000006E-002    0.65169657092599564     
   6.3000000000000000E-002     1.0345843188311683     
   6.3300000000000009E-002     1.3979458743836304     
   6.3600000000000004E-002     1.7218317762745059     
   6.3899999999999998E-002     1.9882787527688848     
   6.4199999999999993E-002     2.1829686497060976     
   6.4500000000000002E-002     2.2957188440697536     
   6.4800000000000010E-002     2.3214707390001053     
   6.5100000000000005E-002     2.2603939278882450     
   6.5400000000000000E-002     2.1174932963976261     
   6.5700000000000008E-002     1.9022073712078722     
   6.5999999999999989E-002     1.6273022716418239     
   6.6299999999999998E-002     1.3078479932796441     
   6.6600000000000006E-002    0.96007525033542862     
   6.6900000000000001E-002    0.60010600805880188     
   6.7199999999999996E-002    0.24308080452170699     
   6.7500000000000004E-002    -9.7733473637298118E-002
   6.7800000000000013E-002   -0.41158199301358778     
   6.8099999999999994E-002   -0.69025983219261455     
   6.8400000000000002E-002   -0.92840502506041389     
   6.8700000000000011E-002    -1.1231739837323005     
   6.8999999999999992E-002    -1.2737326373059759     
   6.9300000000000000E-002    -1.3812117826490180     
   6.9600000000000009E-002    -1.4477605170888026     
   6.9900000000000004E-002    -1.4763775735860918     
   7.0199999999999999E-002    -1.4706295172010826     
   7.0500000000000007E-002    -1.4339607506080867     
   7.0800000000000016E-002    -1.3700964553153270     
   7.1099999999999997E-002    -1.2826033112719202     
   7.1400000000000005E-002    -1.1750959625260506     
   7.1700000000000000E-002    -1.0515209761358335     
   7.1999999999999995E-002   -0.91586322051890079     
   7.2300000000000003E-002   -0.77276967420574749     
   7.2600000000000012E-002   -0.62722392887049239     
   7.2900000000000006E-002   -0.48473633018987705     
   7.3200000000000001E-002   -0.35131141866542315     
   7.3499999999999996E-002   -0.23278276561303812     
   7.3800000000000004E-002   -0.13489438553484678     
   7.4099999999999999E-002    -6.2503744574261777E-002
   7.4400000000000008E-002    -1.9245510550750744E-002
   7.4700000000000003E-002    -7.0614403345337085E-003
   7.5000000000000011E-002    -2.5474365903485161E-002
   7.5299999999999992E-002    -7.1571516112416300E-002
   7.5600000000000001E-002   -0.13947636871188474     
   7.5900000000000009E-002   -0.22059421548869640     
   7.6200000000000004E-002   -0.30397105591226303     
   7.6499999999999999E-002   -0.37675141377316734     
   7.6800000000000007E-002   -0.42525530847808746     
   7.7099999999999988E-002   -0.43604247651628114     
   7.7399999999999997E-002   -0.39713411307628910     
   7.7700000000000005E-002   -0.29947387176606455     
   7.8000000000000014E-002   -0.13800824715983540     
   7.8299999999999995E-002     8.7286885439761264E-002
   7.8600000000000003E-002    0.37077071194001432     
   7.8900000000000012E-002    0.70107256577706778     
   7.9199999999999993E-002     1.0614024838889335     
   7.9500000000000001E-002     1.4305810348716292     
   7.9800000000000010E-002     1.7844147913027086     
   8.0100000000000018E-002     2.0974253766476281     
   8.0399999999999999E-002     2.3450373859737823     
   8.0700000000000008E-002     2.5054612437613457     
   8.1000000000000003E-002     2.5617146792516223     
   8.1299999999999997E-002     2.5031632631786636     
   8.1600000000000006E-002     2.3264305733689952     
   8.1900000000000014E-002     2.0360330466914860     
   8.2199999999999995E-002     1.6438959070210402     
   8.2500000000000004E-002     1.1688377232027918     
   8.2799999999999999E-002    0.63491178517359970     
   8.3100000000000007E-002     6.9638359745795908E-002
   8.3400000000000002E-002   -0.49778223200076654     
   8.3700000000000011E-002    -1.0390036215205303     
   8.4000000000000005E-002    -1.5280113052440356     
   8.4300000000000000E-002    -1.9429688290516722     
   8.4599999999999995E-002    -2.2676557266876074     
   8.4900000000000003E-002    -2.4916839372682915     
   8.5199999999999998E-002    -2.6111961743494874     
   8.5500000000000007E-002    -2.6282828158491753     
   8.5800000000000001E-002    -2.5502519454868064     
   8.6100000000000010E-002    -2.3888711760090331     
   8.6399999999999991E-002    -2.1587669125578373     
   8.6699999999999999E-002    -1.8766117524417893     
   8.7000000000000008E-002    -1.5595701703971301     
   8.7300000000000003E-002    -1.2242736202675459     
   8.7599999999999997E-002   -0.88614010467952298     
   8.7900000000000006E-002   -0.55845871297253780     
   8.8200000000000014E-002   -0.25213596058948973     
   8.8499999999999995E-002     2.4533264775763008E-002
   8.8800000000000004E-002    0.26600106950163610     
   8.9100000000000013E-002    0.46941838263164826     
   8.9399999999999993E-002    0.63449221988135918     
   8.9700000000000002E-002    0.76355503521944357     
   9.0000000000000011E-002    0.86094672301925712     
   9.0299999999999991E-002    0.93312377047456252     
   9.0600000000000000E-002    0.98812288396599612     
   9.0900000000000009E-002     1.0348813112115707     
   9.1200000000000017E-002     1.0830416443601152     
   9.1499999999999998E-002     1.1414971935288705     
   9.1800000000000007E-002     1.2179131228206117     
   9.2100000000000001E-002     1.3174767452554477     
   9.2399999999999996E-002     1.4417824063766034     
   9.2700000000000005E-002     1.5886563885632654     
   9.3000000000000013E-002     1.7509383663979321     
   9.3300000000000008E-002     1.9169628953958622     
   9.3600000000000003E-002     2.0709252763183130     
   9.3899999999999997E-002     2.1935044738028893     
   9.4200000000000006E-002     2.2640217680471153     
   9.4500000000000001E-002     2.2617556531279490     
   9.4800000000000009E-002     2.1684998415828574     
   9.5100000000000004E-002     1.9705807623214469     
   9.5399999999999999E-002     1.6604945332211969     
   9.5699999999999993E-002     1.2389846007253240     
   9.6000000000000002E-002    0.71518999328895205     
   9.6300000000000011E-002    0.10715532162589447     
   9.6600000000000005E-002   -0.55918854807360940     
   9.6900000000000000E-002    -1.2515882061520767     
   9.7200000000000009E-002    -1.9338041418642717     
   9.7499999999999989E-002    -2.5682189672251567     
   9.7799999999999998E-002    -3.1187933011136408     
   9.8100000000000007E-002    -3.5541583254227049     
   9.8400000000000015E-002    -3.8497170223881909     
   9.8699999999999996E-002    -3.9900981880448398     
   9.9000000000000005E-002    -3.9697418822249659     
   9.9300000000000013E-002    -3.7933811855066324     
   9.9599999999999994E-002    -3.4755680783605953     
   9.9900000000000003E-002    -3.0386968420571492     
  0.10020000000000001         -2.5117245819721603     
  0.10049999999999999         -1.9270688361552786     
  0.10080000000000000         -1.3179768838117170     
  0.10110000000000001        -0.71636549574364494     
  0.10140000000000000        -0.14975791261972171     
  0.10170000000000000         0.35990698791509068     
  0.10200000000000001         0.79771397833874857     
  0.10230000000000002          1.1562187774144910     
  0.10260000000000000          1.4350289279877870     
  0.10290000000000001          1.6401187366005487     
  0.10320000000000000          1.7822533904139064     
  0.10350000000000001          1.8750909125677495     
  0.10380000000000000          1.9332172281510367     
  0.10410000000000001          1.9701203301549910     
  0.10440000000000001          1.9962944187902281     
  0.10470000000000000          2.0181438187474399     
  0.10500000000000000          2.0367155827745904     
  0.10530000000000000          2.0479026784145802     
  0.10560000000000000          2.0428461159831102     
  0.10590000000000001          2.0086406607941711     
  0.10620000000000000          1.9308937826663737     
  0.10650000000000001          1.7948784360248524     
  0.10679999999999999          1.5880880440140430     
  0.10710000000000000          1.3026556929372717     
  0.10740000000000001         0.93617576530137114     
  0.10770000000000000         0.49408840449833491     
  0.10800000000000000         -1.0825870488578193E-002
  0.10830000000000001        -0.55839535558718545     
  0.10859999999999999         -1.1218411212914905     
  0.10890000000000000         -1.6707655659454019     
  0.10920000000000001         -2.1722136967890435     
  0.10950000000000001         -2.5945169097022998     
  0.10979999999999999         -2.9097787077829764     
  0.11009999999999999         -3.0958179814166016     
  0.11040000000000001         -3.1393929313880449     
  0.11070000000000001         -3.0361021823607359     
  0.11100000000000000         -2.7914157612385111     
  0.11130000000000000         -2.4203679624389451     
  0.11160000000000002         -1.9451293573843884     
  0.11190000000000001         -1.3942791244133019     
  0.11220000000000001        -0.79926536216058963     
  0.11250000000000000        -0.19214548288640909     
  0.11280000000000000         0.39623871378963571     
  0.11309999999999999         0.93995802109491011     
  0.11340000000000001          1.4176295022410805     
  0.11369999999999998          1.8144330671662559     
  0.11400000000000000          2.1221683707961034     
  0.11430000000000000          2.3377223835372973     
  0.11460000000000002          2.4635650205568140     
  0.11489999999999999          2.5049643500292120     
  0.11520000000000001          2.4693825304673283     
  0.11550000000000001          2.3654843582693275     
  0.11580000000000000          2.2009758860793340     
  0.11609999999999999          1.9835486285830868     
  0.11640000000000002          1.7196078820810641     
  0.11670000000000001          1.4149996049176465     
  0.11700000000000001          1.0762684578024988     
  0.11730000000000000         0.71026289875962689     
  0.11760000000000000         0.32616713999899094     
  0.11789999999999999         -6.4425810534001648E-002
  0.11820000000000001        -0.44755523630008032     
  0.11850000000000001        -0.80644613625166794     
  0.11880000000000000         -1.1230973450056894     
  0.11910000000000000         -1.3788245747209800     
  0.11940000000000002         -1.5561776746515150     
  0.11970000000000001         -1.6409449938912886     
  0.12000000000000001         -1.6233629273318897     
  0.12030000000000000         -1.5001633555656753     
  0.12060000000000000         -1.2753270810055497     
  0.12089999999999999        -0.96038977969226735     
  0.12119999999999999        -0.57430624060289759     
  0.12150000000000001        -0.14215575476584885     
  0.12180000000000001         0.30654749628280342     
  0.12210000000000000         0.73989159711155450     
  0.12239999999999999          1.1262298630348582     
  0.12270000000000002          1.4365024620272919     
  0.12300000000000001          1.6465042606889995     
  0.12330000000000001          1.7387095955945000     
  0.12360000000000000          1.7034442196474018     
  0.12390000000000000          1.5395557861504727     
  0.12419999999999999          1.2543841010543559     
  0.12450000000000001         0.86304716755246247     
  0.12480000000000001         0.38744533168874185     
  0.12509999999999999        -0.14529580338719583     
  0.12540000000000001        -0.70449228178988577     
  0.12570000000000003         -1.2573788301247113     
  0.12600000000000000         -1.7711534647961997     
  0.12630000000000002         -2.2142481018650599     
  0.12659999999999999         -2.5580983485172979     
  0.12690000000000001         -2.7786922668801282     
  0.12719999999999998         -2.8575160513540823     
  0.12750000000000000         -2.7830882074811853     
  0.12780000000000002         -2.5516367231824404     
  0.12809999999999999         -2.1678662848727441     
  0.12840000000000001         -1.6455067469873299     
  0.12869999999999998         -1.0069016647797540     
  0.12900000000000000        -0.28282118972769066     
  0.12930000000000003         0.48877656599070107     
  0.12959999999999999          1.2647973468500515     
  0.12990000000000002          1.9987892444161481     
  0.13019999999999998          2.6440938617916530     
  0.13050000000000000          3.1566466613326014     
  0.13080000000000003          3.4980141715676609     
  0.13109999999999999          3.6389093088832567     
  0.13140000000000002          3.5608792061598820     
  0.13169999999999998          3.2587146355449050     
  0.13200000000000001          2.7413214264845180     
  0.13229999999999997          2.0315714547073469     
  0.13260000000000000          1.1657587882909581     
  0.13290000000000002         0.19117329460164356     
  0.13319999999999999        -0.83639065991302886     
  0.13350000000000001         -1.8560889670473344     
  0.13380000000000003         -2.8062378291258376     
  0.13410000000000000         -3.6278590216036690     
  0.13440000000000002         -4.2690624198323945     
  0.13469999999999999         -4.6881018060016970     
  0.13500000000000001         -4.8564628586492518     
  0.13529999999999998         -4.7609105903341060     
  0.13560000000000000         -4.4042150276557095     
  0.13590000000000002         -3.8052029857237102     
  0.13619999999999999         -2.9976156449269951     
  0.13650000000000001         -2.0283189282066161     
  0.13680000000000003        -0.95384903844491475     
  0.13710000000000000         0.16251953088591620     
  0.13740000000000002          1.2553230489431293     
  0.13769999999999999          2.2609035982959478     
  0.13800000000000001          3.1213569585990797     
  0.13829999999999998          3.7887261113643547     
  0.13860000000000000          4.2275269924114696     
  0.13890000000000002          4.4175154187415870     
  0.13919999999999999          4.3546281168708276     
  0.13950000000000001          4.0512632833640794     
  0.13979999999999998          3.5355551748523766     
  0.14010000000000000          2.8487398753222379     
  0.14040000000000002          2.0426204343300256     
  0.14069999999999999          1.1752543087458065     
  0.14100000000000001         0.30661787883279246     
  0.14130000000000004        -0.50535329381348149     
  0.14160000000000000         -1.2096704695230311     
  0.14189999999999997         -1.7654964463596698     
  0.14219999999999999         -2.1451027720229305     
  0.14250000000000002         -2.3357804846137640     
  0.14279999999999998         -2.3397591987784807     
  0.14310000000000000         -2.1740550659598341     
  0.14339999999999997         -1.8675720199645838     
  0.14369999999999999         -1.4583990928693495     
  0.14400000000000002        -0.99012476628071866     
  0.14429999999999998        -0.50707702857412507     
  0.14460000000000001         -5.0998323299432879E-002
  0.14490000000000003         0.34329174482062719     
  0.14520000000000000         0.65061356208669174     
  0.14550000000000002         0.85697145113755369     
  0.14579999999999999         0.96075737472781597     
  0.14610000000000001         0.97149655461911522     
  0.14640000000000003         0.90860496983685479     
  0.14670000000000000         0.79839182549805798     
  0.14699999999999996         0.67031768238917877     
  0.14729999999999999         0.55412837077194155     
  0.14760000000000001         0.47513014301281764     
  0.14789999999999998         0.45183476022569735     
  0.14820000000000000         0.49363522371632129     