  -1.4999999999999999E-002     0.0000000000000000     
  -1.4700000000000000E-002     0.0000000000000000     
  -1.4400000000000000E-002     0.0000000000000000     
  -1.4100000000000000E-002     0.0000000000000000     
  -1.3800000000000000E-002     0.0000000000000000     
  -1.3500000000000000E-002     0.0000000000000000     
  -1.3200000000000000E-002     0.0000000000000000     
  -1.2899999999999998E-002     0.0000000000000000     
  -1.2600000000000000E-002     0.0000000000000000     
  -1.2299999999999998E-002     0.0000000000000000     
  -1.2000000000000000E-002     0.0000000000000000     
  -1.1699999999999999E-002     0.0000000000000000     
  -1.1399999999999999E-002     0.0000000000000000     
  -1.1099999999999999E-002     0.0000000000000000     
  -1.0799999999999999E-002     0.0000000000000000     
  -1.0499999999999999E-002    -3.6615233828769165E-038
  -1.0199999999999999E-002     1.4599395899176141E-035
  -9.8999999999999991E-003    -4.7906583501541142E-034
  -9.5999999999999992E-003     9.4688795636261228E-033
  -9.2999999999999992E-003    -1.0029428297684734E-031
  -8.9999999999999993E-003     7.2780840876642207E-031
  -8.6999999999999994E-003    -3.5088261869220311E-030
  -8.3999999999999995E-003     9.5424818317266592E-030
  -8.0999999999999996E-003    -1.3316000006114873E-032
  -7.7999999999999988E-003    -1.2370303403285117E-028
  -7.4999999999999997E-003     6.1217455137897128E-028
  -7.1999999999999998E-003    -1.8984419166629746E-027
  -6.8999999999999981E-003     5.2069700051065856E-027
  -6.5999999999999982E-003    -1.7761153977244504E-026
  -6.3000000000000000E-003     7.8968643583237395E-026
  -6.0000000000000001E-003    -3.6190142805707145E-025
  -5.6999999999999985E-003     1.4975822199415262E-024
  -5.3999999999999986E-003    -5.4524330274884850E-024
  -5.1000000000000004E-003     1.7557732387767425E-023
  -4.7999999999999987E-003    -5.0201883696140288E-023
  -4.5000000000000005E-003     1.2529823594246179E-022
  -4.1999999999999989E-003    -2.5491587030513038E-022
  -3.8999999999999990E-003     3.2286377959850529E-022
  -3.5999999999999990E-003     3.3068150476521587E-022
  -3.2999999999999991E-003    -3.9742066205727108E-021
  -2.9999999999999992E-003     1.6560281879108058E-020
  -2.6999999999999993E-003    -5.0579338265967221E-020
  -2.3999999999999994E-003     1.2633031894685153E-019
  -2.0999999999999977E-003    -2.6413492545952066E-019
  -1.7999999999999995E-003     4.5212963329233680E-019
  -1.4999999999999979E-003    -5.7351528625719654E-019
  -1.1999999999999997E-003     3.1571162705555089E-019
  -8.9999999999999976E-004     7.8750324011069660E-019
  -5.9999999999999810E-004    -2.8085085494181250E-018
  -2.9999999999999992E-004     3.8979083112826064E-018
   0.0000000000000000          2.0998215596133185E-018
   3.0000000000000165E-004    -2.6755587046946208E-017
   5.9999999999999984E-004     8.1650614453305137E-017
   9.0000000000000149E-004    -1.5998729190981663E-016
   1.2000000000000031E-003     2.0499962857853501E-016
   1.5000000000000013E-003    -8.2077836696076525E-017
   1.8000000000000030E-003    -4.0834299010783265E-016
   2.1000000000000012E-003     1.4376150230243365E-015
   2.3999999999999994E-003    -2.9524411225974019E-015
   2.7000000000000010E-003     4.2772004403448909E-015
   2.9999999999999992E-003    -2.9233533759139788E-015
   3.3000000000000008E-003    -9.1858876597903857E-015
   3.6000000000000025E-003     5.4291088362164522E-014
   3.9000000000000007E-003    -1.7643757277679278E-013
   4.2000000000000023E-003     4.1018376846155280E-013
   4.5000000000000005E-003    -6.1479082458584799E-013
   4.7999999999999987E-003     9.1956688574520995E-014
   5.1000000000000004E-003     2.7598895391278688E-012
   5.4000000000000020E-003    -9.9660271354884422E-012
   5.7000000000000037E-003     2.3743163685141511E-011
   5.9999999999999984E-003    -5.8535495894851408E-011
   6.3000000000000000E-003     1.9171446374866008E-010
   6.6000000000000017E-003    -6.0846938598757561E-010
   6.9000000000000034E-003     1.2095799917233307E-009
   7.2000000000000015E-003     1.4012885296565969E-010
   7.5000000000000032E-003    -9.3824841229661615E-009
   7.8000000000000014E-003     2.7089722465234445E-008
   8.0999999999999996E-003    -1.4741687870412079E-008
   8.4000000000000012E-003    -1.0381245374446735E-007
   8.7000000000000029E-003     2.2479738959191309E-007
   9.0000000000000011E-003     1.5851865953209199E-007
   9.2999999999999992E-003    -9.5259389354396262E-007
   9.6000000000000009E-003    -3.1603866545992787E-007
   9.8999999999999991E-003     2.8641277367569273E-006
   1.0200000000000001E-002     1.7214506442542188E-006
   1.0500000000000002E-002    -7.2157081376644783E-006
   1.0800000000000004E-002    -7.9615010690758936E-006
   1.1099999999999999E-002     1.9266186427557841E-005
   1.1400000000000000E-002     6.0093676438555121E-005
   1.1700000000000002E-002     8.0324767623096704E-005
   1.2000000000000004E-002     8.7804924987722188E-005
   1.2300000000000002E-002     1.3570775627158582E-004
   1.2600000000000000E-002     2.5410545640625060E-004
   1.2900000000000002E-002     4.1780431638471782E-004
   1.3200000000000000E-002     6.1058980645611882E-004
   1.3500000000000002E-002     8.9303747517988086E-004
   1.3800000000000003E-002     1.3582825195044279E-003
   1.4100000000000001E-002     2.0528077147901058E-003
   1.4400000000000000E-002     3.0031874775886536E-003
   1.4700000000000001E-002     4.3057193979620934E-003
   1.4999999999999999E-002     6.1353398486971855E-003
   1.5300000000000001E-002     8.6547564715147018E-003
   1.5600000000000003E-002     1.1983885429799557E-002
   1.5899999999999997E-002     1.6298078000545502E-002
   1.6199999999999999E-002     2.1863071247935295E-002
   1.6500000000000001E-002     2.8920151293277740E-002
   1.6800000000000002E-002     3.7607897073030472E-002
   1.7100000000000004E-002     4.8020225018262863E-002
   1.7400000000000006E-002     6.0255974531173706E-002
   1.7700000000000000E-002     7.4298754334449768E-002
   1.8000000000000002E-002     8.9850082993507385E-002
   1.8300000000000004E-002    0.10634317249059677     
   1.8600000000000005E-002    0.12300501018762589     
   1.8900000000000000E-002    0.13880571722984314     
   1.9200000000000002E-002    0.15230561792850494     
   1.9500000000000003E-002    0.16165822744369507     
   1.9799999999999998E-002    0.16478620469570160     
   2.0100000000000000E-002    0.15950855612754822     
   2.0400000000000001E-002    0.14355811476707458     
   2.0700000000000003E-002    0.11470844596624374     
   2.0999999999999998E-002     7.1138069033622742E-002
   2.1299999999999999E-002     1.1746047995984554E-002
   2.1600000000000001E-002    -6.3724771142005920E-002
   2.1900000000000003E-002   -0.15451402962207794     
   2.2200000000000004E-002   -0.25857737660408020     
   2.2500000000000006E-002   -0.37239161133766174     
   2.2800000000000001E-002   -0.49102941155433655     
   2.3100000000000002E-002   -0.60846996307373047     
   2.3400000000000004E-002   -0.71780657768249512     
   2.3699999999999999E-002   -0.81158375740051270     
   2.4000000000000000E-002   -0.88235712051391602     
   2.4300000000000002E-002   -0.92339187860488892     
   2.4599999999999997E-002   -0.92926645278930664     
   2.4900000000000005E-002   -0.89629560708999634     
   2.5200000000000000E-002   -0.82304185628890991     
   2.5499999999999995E-002   -0.71078598499298096     
   2.5800000000000003E-002   -0.56342512369155884     
   2.6099999999999998E-002   -0.38727667927742004     
   2.6400000000000007E-002   -0.19072097539901733     
   2.6700000000000002E-002     1.6276475042104721E-002
   2.6999999999999996E-002    0.22291454672813416     
   2.7300000000000005E-002    0.41846826672554016     
   2.7600000000000000E-002    0.59313035011291504     
   2.7900000000000008E-002    0.73873025178909302     
   2.8200000000000003E-002    0.84915298223495483     
   2.8499999999999998E-002    0.92099809646606445     
   2.8800000000000006E-002    0.95360457897186279     
   2.9100000000000001E-002    0.94907140731811523     
   2.9400000000000003E-002    0.91209119558334351     
   2.9700000000000004E-002    0.84920430183410645     
   3.0000000000000006E-002    0.76833117008209229     
   3.0300000000000001E-002    0.67818582057952881     
   3.0600000000000002E-002    0.58743774890899658     
   3.0900000000000004E-002    0.50411230325698853     
   3.1199999999999999E-002    0.43468707799911499     
   3.1500000000000007E-002    0.38368582725524902     
   3.1800000000000002E-002    0.35348552465438843     
   3.2099999999999997E-002    0.34391191601753235     
   3.2400000000000005E-002    0.35221433639526367     
   3.2700000000000000E-002    0.37327536940574646     
   3.3000000000000002E-002    0.39979714155197144     
   3.3300000000000003E-002    0.42348948121070862     
   3.3599999999999998E-002    0.43540459871292114     
   3.3900000000000000E-002    0.42668199539184570     
   3.4200000000000001E-002    0.39032196998596191     
   3.4500000000000003E-002    0.32154047489166260     
   3.4799999999999998E-002    0.21863302588462830     
   3.5099999999999999E-002     8.4065206348896027E-002
   3.5400000000000001E-002    -7.5822338461875916E-002
   3.5699999999999996E-002   -0.25046995282173157     
   3.6000000000000004E-002   -0.42559167742729187     
   3.6299999999999999E-002   -0.58486229181289673     
   3.6600000000000008E-002   -0.71064889430999756     
   3.6900000000000002E-002   -0.78562319278717041     
   3.7199999999999997E-002   -0.79501229524612427     
   3.7500000000000006E-002   -0.72778475284576416     
   3.7800000000000000E-002   -0.57844525575637817     
   3.8100000000000009E-002   -0.34836483001708984     
   3.8400000000000004E-002    -4.5597657561302185E-002
   3.8699999999999998E-002    0.31425714492797852     
   3.9000000000000007E-002    0.70910620689392090     
   3.9300000000000002E-002     1.1120039224624634     
   3.9600000000000003E-002     1.4919775724411011     
   3.9900000000000005E-002     1.8171162605285645     
   4.0200000000000000E-002     2.0563256740570068     
   4.0500000000000001E-002     2.1817450523376465     
   4.0800000000000003E-002     2.1714770793914795     
   4.1100000000000005E-002     2.0107994079589844     
   4.1399999999999999E-002     1.6942741870880127     
   4.1700000000000008E-002     1.2263792753219604     
   4.2000000000000003E-002    0.62199008464813232     
   4.2299999999999997E-002    -9.3984484672546387E-002
   4.2600000000000006E-002   -0.88789111375808716     
   4.2900000000000001E-002    -1.7182265520095825     
   4.3200000000000002E-002    -2.5388429164886475     
   4.3500000000000004E-002    -3.3013095855712891     
   4.3799999999999999E-002    -3.9575839042663574     
   4.4100000000000000E-002    -4.4635620117187500     
   4.4400000000000002E-002    -4.7819170951843262     
   4.4700000000000004E-002    -4.8849973678588867     
   4.4999999999999998E-002    -4.7565598487854004     
   4.5300000000000000E-002    -4.3935017585754395     
   4.5600000000000002E-002    -3.8065505027770996     
   4.5899999999999996E-002    -3.0191900730133057     
   4.6200000000000005E-002    -2.0668642520904541     
   4.6500000000000000E-002   -0.99480205774307251     
   4.6799999999999994E-002    0.14452566206455231     
   4.7100000000000003E-002     1.2945950031280518     
   4.7399999999999998E-002     2.3983900547027588     
   4.7700000000000006E-002     3.4009671211242676     
   4.8000000000000001E-002     4.2522335052490234     
   4.8300000000000010E-002     4.9099416732788086     
   4.8600000000000004E-002     5.3406386375427246     
   4.8899999999999999E-002     5.5211777687072754     
   4.9200000000000008E-002     5.4396615028381348     
   4.9500000000000002E-002     5.0955042839050293     
   4.9800000000000011E-002     4.4995608329772949     
   5.0100000000000006E-002     3.6734166145324707     
   5.0400000000000000E-002     2.6481924057006836     
   5.0700000000000009E-002     1.4639612436294556     
   5.1000000000000004E-002    0.16859069466590881     
   5.1299999999999998E-002    -1.1849347352981567     
   5.1600000000000007E-002    -2.5404818058013916     
   5.1900000000000002E-002    -3.8408038616180420     
   5.2200000000000010E-002    -5.0305428504943848     
   5.2500000000000005E-002    -6.0589189529418945     
   5.2800000000000000E-002    -6.8829550743103027     
   5.3099999999999994E-002    -7.4696683883666992     
   5.3400000000000003E-002    -7.7971410751342773     
   5.3699999999999998E-002    -7.8566665649414062     
   5.4000000000000006E-002    -7.6518597602844238     
   5.4300000000000001E-002    -7.1986832618713379     
   5.4599999999999996E-002    -6.5236492156982422     
   5.4900000000000004E-002    -5.6600346565246582     
   5.5199999999999999E-002    -4.6465859413146973     
   5.5499999999999994E-002    -3.5241913795471191     
   5.5800000000000002E-002    -2.3323905467987061     
   5.6099999999999997E-002    -1.1070325374603271     
   5.6400000000000006E-002    0.12248110771179199     
   5.6700000000000000E-002     1.3324003219604492     
   5.6999999999999995E-002     2.5054237842559814     
   5.7300000000000004E-002     3.6320192813873291     
   5.7599999999999998E-002     4.7073650360107422     
   5.7900000000000007E-002     5.7287259101867676     
   5.8200000000000002E-002     6.6953325271606445     
   5.8499999999999996E-002     7.6060762405395508     
   5.8800000000000005E-002     8.4566249847412109     
   5.9100000000000000E-002     9.2388753890991211     
   5.9400000000000008E-002     9.9401121139526367     
   5.9700000000000003E-002     10.542713165283203     
   6.0000000000000012E-002     11.024551391601562     
   6.0300000000000006E-002     11.360278129577637     
   6.0600000000000001E-002     11.522271156311035     
   6.0900000000000010E-002     11.482172966003418     
   6.1200000000000004E-002     11.213063240051270     
   6.1500000000000013E-002     10.691703796386719     
   6.1800000000000008E-002     9.8994188308715820     
   6.2100000000000002E-002     8.8235893249511719     
   6.2399999999999997E-002     7.4609899520874023     
   6.2700000000000006E-002     5.8174390792846680     
   6.3000000000000000E-002     3.9092977046966553     
   6.3300000000000009E-002     1.7653852701187134     
   6.3600000000000004E-002   -0.57240760326385498     
   6.3899999999999998E-002    -3.0490379333496094     
   6.4199999999999993E-002    -5.5970101356506348     
   6.4500000000000002E-002    -8.1362972259521484     
   6.4800000000000010E-002    -10.576103210449219     
   6.5100000000000005E-002    -12.820116043090820     
   6.5400000000000000E-002    -14.769064903259277     
   6.5700000000000008E-002    -16.324357986450195     
   6.5999999999999989E-002    -17.397830963134766     
   6.6299999999999998E-002    -17.916807174682617     
   6.6600000000000006E-002    -17.827770233154297     
   6.6900000000000001E-002    -17.105426788330078     
   6.7199999999999996E-002    -15.756316184997559     
   6.7500000000000004E-002    -13.819646835327148     
   6.7800000000000013E-002    -11.368683815002441     
   6.8099999999999994E-002    -8.5073814392089844     
   6.8400000000000002E-002    -5.3660721778869629     
   6.8700000000000011E-002    -2.0939886569976807     
   6.8999999999999992E-002     1.1506118774414062     
   6.9300000000000000E-002     4.2088127136230469     
   6.9600000000000009E-002     6.9333815574645996     
   6.9900000000000004E-002     9.1971473693847656     
   7.0199999999999999E-002     10.900643348693848     
   7.0500000000000007E-002     11.979602813720703     
   7.0800000000000016E-002     12.407167434692383     
   7.1099999999999997E-002     12.194607734680176     
   7.1400000000000005E-002     11.389643669128418     
   7.1700000000000000E-002     10.071750640869141     
   7.1999999999999995E-002     8.3461341857910156     
   7.2300000000000003E-002     6.3347239494323730     
   7.2600000000000012E-002     4.1687130928039551     
   7.2900000000000006E-002     1.9808948040008545     
   7.3200000000000001E-002   -0.10396204888820648     
   7.3499999999999996E-002    -1.9760290384292603     
   7.3800000000000004E-002    -3.5450093746185303     
   7.4099999999999999E-002    -4.7439599037170410     
   7.4400000000000008E-002    -5.5342302322387695     
   7.4700000000000003E-002    -5.9051141738891602     
   7.5000000000000011E-002    -5.8704767227172852     
   7.5299999999999992E-002    -5.4689741134643555     
   7.5600000000000001E-002    -4.7613420486450195     
   7.5900000000000009E-002    -3.8226635456085205     
   7.6200000000000004E-002    -2.7372720241546631     
   7.6499999999999999E-002    -1.5938768386840820     
   7.6800000000000007E-002   -0.47891372442245483     
   7.7099999999999988E-002    0.53038763999938965     
   7.7399999999999997E-002     1.3704825639724731     
   7.7700000000000005E-002     1.9947769641876221     
   7.8000000000000014E-002     2.3771226406097412     
   7.8299999999999995E-002     2.5133502483367920     
   7.8600000000000003E-002     2.4178183078765869     
   7.8900000000000012E-002     2.1228289604187012     
   7.9199999999999993E-002     1.6766099929809570     
   7.9500000000000001E-002     1.1345807313919067     
   7.9800000000000010E-002    0.55622363090515137     
   8.0100000000000018E-002     7.1830302476882935E-004
   8.0399999999999999E-002   -0.48015320301055908     
   8.0700000000000008E-002   -0.84454631805419922     
   8.1000000000000003E-002    -1.0643445253372192     
   8.1299999999999997E-002    -1.1264693737030029     
   8.1600000000000006E-002    -1.0317038297653198     
   8.1900000000000014E-002   -0.79560661315917969     
   8.2199999999999995E-002   -0.44405668973922729     
   8.2500000000000004E-002    -1.0361626744270325E-002
   8.2799999999999999E-002    0.46697959303855896     
   8.3100000000000007E-002    0.95034712553024292     
   8.3400000000000002E-002     1.4053659439086914     
   8.3700000000000011E-002     1.8028105497360229     
   8.4000000000000005E-002     2.1226742267608643     
   8.4300000000000000E-002     2.3539690971374512     
   8.4599999999999995E-002     2.4941847324371338     
   8.4900000000000003E-002     2.5505774021148682     
   8.5199999999999998E-002     2.5359830856323242     
   8.5500000000000007E-002     2.4676425457000732     
   8.5800000000000001E-002     2.3663420677185059     
   8.6100000000000010E-002     2.2512598037719727     
   8.6399999999999991E-002     2.1397027969360352     
   8.6699999999999999E-002     2.0448155403137207     
   8.7000000000000008E-002     1.9729070663452148     
   8.7300000000000003E-002     1.9271329641342163     
   8.7599999999999997E-002     1.9043352603912354     
   8.7900000000000006E-002     1.8959056138992310     
   8.8200000000000014E-002     1.8925400972366333     
   8.8499999999999995E-002     1.8823556900024414     
   8.8800000000000004E-002     1.8544172048568726     
   8.9100000000000013E-002     1.8002177476882935     
   8.9399999999999993E-002     1.7120332717895508     
   8.9700000000000002E-002     1.5869355201721191     
   9.0000000000000011E-002     1.4249762296676636     
   9.0299999999999991E-002     1.2259765863418579     
   9.0600000000000000E-002    0.99360251426696777     
   9.0900000000000009E-002    0.73077023029327393     
   9.1200000000000017E-002    0.43906611204147339     
   9.1499999999999998E-002    0.12206776440143585     
   9.1800000000000007E-002   -0.21945436298847198     
   9.2100000000000001E-002   -0.58437955379486084     
   9.2399999999999996E-002   -0.96874827146530151     
   9.2700000000000005E-002    -1.3699356317520142     
   9.3000000000000013E-002    -1.7818646430969238     
   9.3300000000000008E-002    -2.1960766315460205     
   9.3600000000000003E-002    -2.6058928966522217     
   9.3899999999999997E-002    -3.0021762847900391     
   9.4200000000000006E-002    -3.3788566589355469     
   9.4500000000000001E-002    -3.7343676090240479     
   9.4800000000000009E-002    -4.0689439773559570     
   9.5100000000000004E-002    -4.3906049728393555     
   9.5399999999999999E-002    -4.7102909088134766     
   9.5699999999999993E-002    -5.0377669334411621     
   9.6000000000000002E-002    -5.3860726356506348     
   9.6300000000000011E-002    -5.7614588737487793     
   9.6600000000000005E-002    -6.1616101264953613     
   9.6900000000000000E-002    -6.5757060050964355     
   9.7200000000000009E-002    -6.9797253608703613     
   9.7499999999999989E-002    -7.3420686721801758     
   9.7799999999999998E-002    -7.6237030029296875     
   9.8100000000000007E-002    -7.7815403938293457     
   9.8400000000000015E-002    -7.7805333137512207     
   9.8699999999999996E-002    -7.5931291580200195     
   9.9000000000000005E-002    -7.2061429023742676     
   9.9300000000000013E-002    -6.6283473968505859     
   9.9599999999999994E-002    -5.8836693763732910     
   9.9900000000000003E-002    -5.0116443634033203     
  0.10020000000000001         -4.0631437301635742     
  0.10049999999999999         -3.0882608890533447     
  0.10080000000000000         -2.1290650367736816     
  0.10110000000000001         -1.2089791297912598     
  0.10140000000000000        -0.32598927617073059     
  0.10170000000000000         0.54969596862792969     
  0.10200000000000001          1.4797679185867310     
  0.10230000000000002          2.5501575469970703     
  0.10260000000000000          3.8568396568298340     
  0.10290000000000001          5.5004749298095703     
  0.10320000000000000          7.5643334388732910     
  0.10350000000000001          10.093935966491699     
  0.10380000000000000          13.089300155639648     
  0.10410000000000001          16.486984252929688     
  0.10440000000000001          20.154399871826172     
  0.10470000000000000          23.892318725585938     
  0.10500000000000000          27.441129684448242     
  0.10530000000000000          30.500949859619141     
  0.10560000000000000          32.749412536621094     
  0.10590000000000001          33.871093750000000     
  0.10620000000000000          33.594562530517578     
  0.10650000000000001          31.712045669555664     
  0.10679999999999999          28.112422943115234     
  0.10710000000000000          22.801179885864258     
  0.10740000000000001          15.906434059143066     
  0.10770000000000000          7.6843647956848145     
  0.10800000000000000         -1.4963563680648804     
  0.10830000000000001         -11.174400329589844     
  0.10859999999999999         -20.826005935668945     
  0.10890000000000000         -29.907289505004883     
  0.10920000000000001         -37.890651702880859     
  0.10950000000000001         -44.305488586425781     
  0.10979999999999999         -48.775497436523438     
  0.11009999999999999         -51.045726776123047     
  0.11040000000000001         -51.001667022705078     
  0.11070000000000001         -48.672042846679688     
  0.11100000000000000         -44.227184295654297     
  0.11130000000000000         -37.962997436523438     
  0.11160000000000002         -30.271173477172852     
  0.11190000000000001         -21.612373352050781     
  0.11220000000000001         -12.480999946594238     
  0.11250000000000000         -3.3678300380706787     
  0.11280000000000000          5.2707781791687012     
  0.11309999999999999          13.035454750061035     
  0.11340000000000001          19.609933853149414     
  0.11369999999999998          24.773342132568359     
  0.11400000000000000          28.397323608398438     
  0.11430000000000000          30.451019287109375     
  0.11460000000000002          30.992750167846680     
  0.11489999999999999          30.155508041381836     
  0.11520000000000001          28.128324508666992     
  0.11550000000000001          25.142982482910156     
  0.11580000000000000          21.459316253662109     
  0.11609999999999999          17.339117050170898     
  0.11640000000000002          13.035737991333008     
  0.11670000000000001          8.7854490280151367     
  0.11700000000000001          4.7882356643676758     
  0.11730000000000000          1.2052787542343140     
  0.11760000000000000         -1.8454209566116333     
  0.11789999999999999         -4.2916254997253418     
  0.11820000000000001         -6.1052894592285156     
  0.11850000000000001         -7.3014369010925293     
  0.11880000000000000         -7.9232554435729980     
  0.11910000000000000         -8.0415182113647461     
  0.11940000000000002         -7.7489075660705566     
  0.11970000000000001         -7.1411809921264648     
  0.12000000000000001         -6.3145380020141602     
  0.12030000000000000         -5.3629870414733887     
  0.12060000000000000         -4.3671789169311523     
  0.12089999999999999         -3.3911147117614746     
  0.12119999999999999         -2.4846878051757812     
  0.12150000000000001         -1.6843508481979370     
  0.12180000000000001         -1.0086622238159180     
  0.12210000000000000        -0.46494549512863159     
  0.12239999999999999         -5.3932752460241318E-002
  0.12270000000000002         0.23152860999107361     
  0.12300000000000001         0.40556994080543518     
  0.12330000000000001         0.48314979672431946     
  0.12360000000000000         0.47849115729331970     
  0.12390000000000000         0.41110128164291382     
  0.12419999999999999         0.29927465319633484     
  0.12450000000000001         0.15868473052978516     
  0.12480000000000001          7.3938411660492420E-003
  0.12509999999999999        -0.14004011452198029     
  0.12540000000000001        -0.27113091945648193     
  0.12570000000000003        -0.37555113434791565     
  0.12600000000000000        -0.44790121912956238     
  0.12630000000000002        -0.48453563451766968     
  0.12659999999999999        -0.48830956220626831     
  0.12690000000000001        -0.46293669939041138     
  0.12719999999999998        -0.41374212503433228     
  0.12750000000000000        -0.35021486878395081     
  0.12780000000000002        -0.27972090244293213     
  0.12809999999999999        -0.20832064747810364     
  0.12840000000000001        -0.14182642102241516     
  0.12869999999999998         -8.3094544708728790E-002
  0.12900000000000000         -3.3696576952934265E-002
  0.12930000000000003          7.8667970374226570E-003
  0.12959999999999999          4.2726848274469376E-002
  0.12990000000000002          7.2579354047775269E-002
  0.13019999999999998          9.9284604191780090E-002
  0.13050000000000000         0.12372221797704697     
  0.13080000000000003         0.14575147628784180     
  0.13109999999999999         0.16531348228454590     
  0.13140000000000002         0.18041656911373138     
  0.13169999999999998         0.18942569196224213     
  0.13200000000000001         0.19216407835483551     
  0.13229999999999997         0.18764422833919525     
  0.13260000000000000         0.17583613097667694     
  0.13290000000000002         0.15873898565769196     
  0.13319999999999999         0.13755644857883453     
  0.13350000000000001         0.11462879180908203     
  0.13380000000000003          9.2437170445919037E-002
  0.13410000000000000          7.2659514844417572E-002
  0.13440000000000002          5.7844314724206924E-002
  0.13469999999999999          4.7200489789247513E-002
  0.13500000000000001          4.2292412370443344E-002
  0.13529999999999998          4.3474558740854263E-002
  0.13560000000000000          4.7867886722087860E-002
  0.13590000000000002          5.5099591612815857E-002
  0.13619999999999999          6.4044818282127380E-002
  0.13650000000000001          7.2603121399879456E-002
  0.13680000000000003          7.9880885779857635E-002
  0.13710000000000000          8.3574891090393066E-002
  0.13740000000000002          8.4418885409832001E-002
  0.13769999999999999          8.1592388451099396E-002
  0.13800000000000001          7.4552498757839203E-002
  0.13829999999999998          6.6093243658542633E-002
  0.13860000000000000          5.7068873196840286E-002
  0.13890000000000002          4.8778019845485687E-002
  0.13919999999999999          4.3767988681793213E-002
  0.13950000000000001          4.2955555021762848E-002
  0.13979999999999998          4.6815738081932068E-002
  0.14010000000000000          5.5220905691385269E-002
  0.14040000000000002          6.6465489566326141E-002
  0.14069999999999999          7.7553316950798035E-002
  0.14100000000000001          8.5497342050075531E-002
  0.14130000000000004          8.5707299411296844E-002
  0.14160000000000000          7.6035581529140472E-002
  0.14189999999999997          5.5225275456905365E-002
  0.14219999999999999          2.1364569664001465E-002
  0.14250000000000002         -2.1381940692663193E-002
  0.14279999999999998         -6.9714523851871490E-002
  0.14310000000000000        -0.11733836680650711     
  0.14339999999999997        -0.15502265095710754     
  0.14369999999999999        -0.17812573909759521     
  0.14400000000000002        -0.17955833673477173     
  0.14429999999999998        -0.15506760776042938     
  0.14460000000000001        -0.10684613883495331     
  0.14490000000000003         -3.6717582494020462E-002
  0.14520000000000000          4.4708497822284698E-002
  0.14550000000000002         0.12756209075450897     
  0.14579999999999999         0.20075727999210358     
  0.14610000000000001         0.24914029240608215     
  0.14640000000000003         0.26433408260345459     
  0.14670000000000000         0.24121299386024475     
  0.14699999999999996         0.17777578532695770     
  0.14729999999999999          8.0985374748706818E-002
  0.14760000000000001         -3.7245262414216995E-002
  0.14789999999999998        -0.16179417073726654     
  0.14820000000000000        -0.27462947368621826     