  -1.4999999999999999E-002     0.0000000000000000     
  -1.4700000000000000E-002     0.0000000000000000     
  -1.4400000000000000E-002     0.0000000000000000     
  -1.4100000000000000E-002    -2.2490672616549342E-036
  -1.3800000000000000E-002    -8.6784114040638302E-033
  -1.3500000000000000E-002    -3.1105192137106512E-030
  -1.3200000000000000E-002     4.7274382054121262E-029
  -1.2899999999999998E-002     4.9919661259619428E-027
  -1.2600000000000000E-002    -2.3191055210409699E-026
  -1.2299999999999998E-002    -4.6929548778569232E-025
  -1.2000000000000000E-002    -5.2192247849505230E-025
  -1.1699999999999999E-002     3.7935422498837140E-023
  -1.1399999999999999E-002    -1.2855060075989811E-022
  -1.1099999999999999E-002     1.2415596049822064E-022
  -1.0799999999999999E-002     4.1722097276225606E-021
  -1.0499999999999999E-002    -8.0996784474593677E-020
  -1.0199999999999999E-002     4.5461672786171126E-019
  -9.8999999999999991E-003    -3.2791739039714218E-019
  -9.5999999999999992E-003    -6.7999658635751273E-018
  -9.2999999999999992E-003     3.5129046665141444E-017
  -8.9999999999999993E-003    -9.1917330663201980E-017
  -8.6999999999999994E-003     1.4248143404130803E-016
  -8.3999999999999995E-003     2.0031365809287870E-018
  -8.0999999999999996E-003    -8.3253904746514309E-016
  -7.7999999999999988E-003     2.6420168589314387E-015
  -7.4999999999999997E-003    -4.6321467072675136E-015
  -7.1999999999999998E-003     6.0968724579452843E-015
  -6.8999999999999981E-003    -5.2524573635965264E-015
  -6.5999999999999982E-003    -8.4684843372946227E-015
  -6.3000000000000000E-003     3.2707449599540516E-014
  -6.0000000000000001E-003     9.0999361610985922E-015
  -5.6999999999999985E-003    -2.1460657004026268E-013
  -5.3999999999999986E-003     4.1961503127641843E-013
  -5.1000000000000004E-003     6.7493963760989198E-014
  -4.7999999999999987E-003    -2.1232066667183359E-012
  -4.5000000000000005E-003     5.0318966126399341E-012
  -4.1999999999999989E-003    -4.1177761726702144E-012
  -3.8999999999999990E-003    -7.0067132385120684E-012
  -3.5999999999999990E-003     2.5932209759024184E-011
  -3.2999999999999991E-003    -3.2232806548499205E-011
  -2.9999999999999992E-003    -4.2067812279312727E-013
  -2.6999999999999993E-003     6.5406202930368694E-011
  -2.3999999999999994E-003    -9.9603303345739884E-011
  -2.0999999999999977E-003     3.5199214710000879E-011
  -1.7999999999999995E-003     1.0891706675705138E-010
  -1.4999999999999979E-003    -2.1429753391411824E-010
  -1.1999999999999997E-003     1.5203615415740070E-010
  -8.9999999999999976E-004     1.0065172263895955E-010
  -5.9999999999999810E-004    -4.0222843682019845E-010
  -2.9999999999999992E-004     5.5239667057552904E-010
   0.0000000000000000         -5.1312729220808708E-010
   3.0000000000000165E-004     3.7121689242926763E-010
   5.9999999999999984E-004     5.1719422010978603E-010
   9.0000000000000149E-004    -4.4207631825142896E-009
   1.2000000000000031E-003     1.1557906134878462E-008
   1.5000000000000013E-003    -9.1183010118228687E-009
   1.8000000000000030E-003    -3.0693087281897429E-008
   2.1000000000000012E-003     1.0394842054515534E-007
   2.3999999999999994E-003    -7.0348030178738502E-008
   2.7000000000000010E-003    -3.1030603798606494E-007
   2.9999999999999992E-003     7.3434811150326255E-007
   3.3000000000000008E-003     3.4160711671898382E-007
   3.6000000000000025E-003    -3.0676373892806543E-006
   3.9000000000000007E-003     2.7097228712239836E-007
   4.2000000000000023E-003     9.3826882495720115E-006
   4.5000000000000005E-003    -5.2179605706994397E-007
   4.7999999999999987E-003    -2.4953742076366125E-005
   5.1000000000000004E-003    -5.8783229764754934E-006
   5.4000000000000020E-003     8.3647945432420131E-005
   5.7000000000000037E-003     1.8022781570965806E-004
   5.9999999999999984E-003     2.2651327080748952E-004
   6.3000000000000000E-003     2.8550032534831356E-004
   6.6000000000000017E-003     4.7228095870470617E-004
   6.9000000000000034E-003     8.1108490618375662E-004
   7.2000000000000015E-003     1.2607233191698000E-003
   7.5000000000000032E-003     1.8680988321516968E-003
   7.8000000000000014E-003     2.8051392739831815E-003
   8.0999999999999996E-003     4.2378059435385917E-003
   8.4000000000000012E-003     6.2806513736169689E-003
   8.7000000000000029E-003     9.1364455367561048E-003
   9.0000000000000011E-003     1.3144336663518441E-002
   9.2999999999999992E-003     1.8661662194122575E-002
   9.6000000000000009E-003     2.6051459025404122E-002
   9.8999999999999991E-003     3.5808703929219199E-002
   1.0200000000000001E-002     4.8541304855376000E-002
   1.0500000000000002E-002     6.4786813058778314E-002
   1.0800000000000004E-002     8.4985569617560985E-002
   1.1099999999999999E-002    0.10959793315941369     
   1.1400000000000000E-002    0.13899219272199348     
   1.1700000000000002E-002    0.17312423444181402     
   1.2000000000000004E-002    0.21143261042423855     
   1.2300000000000002E-002    0.25293062083719509     
   1.2600000000000000E-002    0.29603794470508848     
   1.2900000000000002E-002    0.33820982768718366     
   1.3200000000000000E-002    0.37589006880326004     
   1.3500000000000002E-002    0.40473744346794938     
   1.3800000000000003E-002    0.41967195813175806     
   1.4100000000000001E-002    0.41488702243797171     
   1.4400000000000000E-002    0.38421412376720809     
   1.4700000000000001E-002    0.32169501047881965     
   1.4999999999999999E-002    0.22210296896625970     
   1.5300000000000001E-002     8.1536748092490008E-002
   1.5600000000000003E-002   -0.10179433754303879     
   1.5899999999999997E-002   -0.32674105966699624     
   1.6199999999999999E-002   -0.58873025175094273     
   1.6500000000000001E-002   -0.87949007575063654     
   1.6800000000000002E-002    -1.1868582111051467     
   1.7100000000000004E-002    -1.4949591239453106     
   1.7400000000000006E-002    -1.7848271996986398     
   1.7700000000000000E-002    -2.0355430875711562     
   1.8000000000000002E-002    -2.2257849112590904     
   1.8300000000000004E-002    -2.3353462162902190     
   1.8600000000000005E-002    -2.3469262046901918     
   1.8900000000000000E-002    -2.2481996753840576     
   1.9200000000000002E-002    -2.0332485731480574     
   1.9500000000000003E-002    -1.7035203875556064     
   1.9799999999999998E-002    -1.2688909568619948     
   2.0100000000000000E-002   -0.74763029056702379     
   2.0400000000000001E-002   -0.16557936006841878     
   2.0700000000000003E-002    0.44549715652039801     
   2.0999999999999998E-002     1.0496897014281137     
   2.1299999999999999E-002     1.6091304105249868     
   2.1600000000000001E-002     2.0872019985652557     
   2.1900000000000003E-002     2.4512047475322802     
   2.2200000000000004E-002     2.6746839815871510     
   2.2500000000000006E-002     2.7399190331548198     
   2.2800000000000001E-002     2.6393791969097009     
   2.3100000000000002E-002     2.3767531903725541     
   2.3400000000000004E-002     1.9670633763422032     
   2.3699999999999999E-002     1.4363338096254736     
   2.4000000000000000E-002    0.82020426832380622     
   2.4300000000000002E-002    0.16185132842291772     
   2.4599999999999997E-002   -0.49002077947246292     
   2.4900000000000005E-002    -1.0844798733851793     
   2.5200000000000000E-002    -1.5714377840332645     
   2.5499999999999995E-002    -1.9046702894869441     
   2.5800000000000003E-002    -2.0450935627304574     
   2.6099999999999998E-002    -1.9636197500375800     
   2.6400000000000007E-002    -1.6437109264360927     
   2.6700000000000002E-002    -1.0825703405411709     
   2.6999999999999996E-002   -0.29231358587278145     
   2.7300000000000005E-002    0.69953912026568332     
   2.7600000000000000E-002     1.8518055167774747     
   2.7900000000000008E-002     3.1114988917244002     
   2.8200000000000003E-002     4.4160712234851474     
   2.8499999999999998E-002     5.6967336702698361     
   2.8800000000000006E-002     6.8824271295850394     
   2.9100000000000001E-002     7.9036619044440215     
   2.9400000000000003E-002     8.6956638995706896     
   2.9700000000000004E-002     9.2022409178170790     
   3.0000000000000006E-002     9.3790100173460189     
   3.0300000000000001E-002     9.1947484899023948     
   3.0600000000000002E-002     8.6329540599147094     
   3.0900000000000004E-002     7.6924957892366876     
   3.1199999999999999E-002     6.3880250217995638     
   3.1500000000000007E-002     4.7493998182846440     
   3.1800000000000002E-002     2.8198846005506510     
   3.2099999999999997E-002    0.65449849220237866     
   3.2400000000000005E-002    -1.6814179517914738     
   3.2700000000000000E-002    -4.1145349848008834     
   3.3000000000000002E-002    -6.5667169282444799     
   3.3300000000000003E-002    -8.9574948994534225     
   3.3599999999999998E-002    -11.206587069601397     
   3.3900000000000000E-002    -13.236897374809587     
   3.4200000000000001E-002    -14.976929387237647     
   3.4500000000000003E-002    -16.364113900902396     
   3.4799999999999998E-002    -17.346286309582183     
   3.5099999999999999E-002    -17.882959990683275     
   3.5400000000000001E-002    -17.947429132998423     
   3.5699999999999996E-002    -17.527215222655173     
   3.6000000000000004E-002    -16.624729831240984     
   3.6299999999999999E-002    -15.257071186956239     
   3.6600000000000008E-002    -13.455415977042435     
   3.6900000000000002E-002    -11.265258152053718     
   3.7199999999999997E-002    -8.7454163688799156     
   3.7500000000000006E-002    -5.9663370491821581     
   3.7800000000000000E-002    -3.0088593453548285     
   3.8100000000000009E-002     3.6979865837260206E-002
   3.8400000000000004E-002     3.0749213618106808     
   3.8699999999999998E-002     6.0050921979184579     
   3.9000000000000007E-002     8.7281292920941524     
   3.9300000000000002E-002     11.149206764682269     
   3.9600000000000003E-002     13.181088459891654     
   3.9900000000000005E-002     14.750231383657820     
   4.0200000000000000E-002     15.801195339151946     
   4.0500000000000001E-002     16.299153755840166     
   4.0800000000000003E-002     16.233918328612731     
   4.1100000000000005E-002     15.620606383544668     
   4.1399999999999999E-002     14.500346909125312     
   4.1700000000000008E-002     12.939793438277775     
   4.2000000000000003E-002     11.025548114885510     
   4.2299999999999997E-002     8.8617441350104400     
   4.2600000000000006E-002     6.5643348025933790     
   4.2900000000000001E-002     4.2519829844126207     
   4.3200000000000002E-002     2.0418140403160727     
   4.3500000000000004E-002     4.1239112344285900E-002
   4.3799999999999999E-002    -1.6594986844008588     
   4.4100000000000000E-002    -2.9907320266449489     
   4.4400000000000002E-002    -3.9085915465970658     
   4.4700000000000004E-002    -4.3964126346559418     
   4.4999999999999998E-002    -4.4647622997465035     
   4.5300000000000000E-002    -4.1504191197245603     
   4.5600000000000002E-002    -3.5110371281231352     
   4.5899999999999996E-002    -2.6214455790371360     
   4.6200000000000005E-002    -1.5678347464413100     
   4.6500000000000000E-002   -0.43864529293660048     
   4.6799999999999994E-002    0.68013821746476566     
   4.7100000000000003E-002     1.7101385389597539     
   4.7399999999999998E-002     2.5884577318254287     
   4.7700000000000006E-002     3.2699737238364577     
   4.8000000000000001E-002     3.7284207229043602     
   4.8300000000000010E-002     3.9579862299328994     
   4.8600000000000004E-002     3.9706385362526362     
   4.8899999999999999E-002     3.7941200056336868     
   4.9200000000000008E-002     3.4677109026123816     
   4.9500000000000002E-002     3.0354928294078150     
   4.9800000000000011E-002     2.5442738323809664     
   5.0100000000000006E-002     2.0367604776806729     
   5.0400000000000000E-002     1.5463178567082210     
   5.0700000000000009E-002     1.0970435244158026     
   5.1000000000000004E-002    0.70009576241802662     
   5.1299999999999998E-002    0.35425423624773700     
   5.1600000000000007E-002     4.8452817711284291E-002
   5.1900000000000002E-002   -0.23733080182913824     
   5.2200000000000010E-002   -0.52615307950085732     
   5.2500000000000005E-002   -0.84151136098701151     
   5.2800000000000000E-002    -1.2049048164415410     
   5.3099999999999994E-002    -1.6308673624942109     
   5.3400000000000003E-002    -2.1285052519356142     
   5.3699999999999998E-002    -2.7017004750727835     
   5.4000000000000006E-002    -3.3492449050885966     
   5.4300000000000001E-002    -4.0705911732340567     
   5.4599999999999996E-002    -4.8688309753901322     
   5.4900000000000004E-002    -5.7515071615268454     
   5.5199999999999999E-002    -6.7342698204154203     
   5.5499999999999994E-002    -7.8394162735832253     
   5.5800000000000002E-002    -9.0921245317363599     
   5.6099999999999997E-002    -10.513695549503836     
   5.6400000000000006E-002    -12.111960112479750     
   5.6700000000000000E-002    -13.874679461047180     
   5.6999999999999995E-002    -15.757529411747726     
   5.7300000000000004E-002    -17.674411696002636     
   5.7599999999999998E-002    -19.498676424313487     
   5.7900000000000007E-002    -21.062742974376931     
   5.8200000000000002E-002    -22.163139259087359     
   5.8499999999999996E-002    -22.577780598520803     
   5.8800000000000005E-002    -22.084949625360935     
   5.9100000000000000E-002    -20.486628978030922     
   5.9400000000000008E-002    -17.633871045100250     
   5.9700000000000003E-002    -13.450245928706465     
   6.0000000000000012E-002    -7.9534275708227824     
   6.0300000000000006E-002    -1.2668382946930592     
   6.0600000000000001E-002     6.3781156318006538     
   6.0900000000000010E-002     14.644558298398124     
   6.1200000000000004E-002     23.111338829223428     
   6.1500000000000013E-002     31.300406329629482     
   6.1800000000000008E-002     38.707428782505247     
   6.2100000000000002E-002     44.844342106593388     
   6.2399999999999997E-002     49.278497257792139     
   6.2700000000000006E-002     51.667748828423044     
   6.3000000000000000E-002     51.792337060629507     
   6.3300000000000009E-002     49.574206372811432     
   6.3600000000000004E-002     45.086984412674610     
   6.3899999999999998E-002     38.551848478903366     
   6.4199999999999993E-002     30.320299741311374     
   6.4500000000000002E-002     20.850931891928838     
   6.4800000000000010E-002     10.673106474815711     
   6.5100000000000005E-002    0.34532702932426673     
   6.5400000000000000E-002    -9.5798598718060930     
   6.5700000000000008E-002    -18.598213902576390     
   6.5999999999999989E-002    -26.287751249412395     
   6.6299999999999998E-002    -32.328119019453993     
   6.6600000000000006E-002    -36.520381844482017     
   6.6900000000000001E-002    -38.791858201112575     
   6.7199999999999996E-002    -39.187275623250372     
   6.7500000000000004E-002    -37.859787039367404     
   6.7800000000000013E-002    -35.046567532383392     
   6.8099999999999994E-002    -31.046676519436573     
   6.8400000000000002E-002    -26.196092870660664     
   6.8700000000000011E-002    -20.836743510006215     
   6.8999999999999992E-002    -15.298552930996379     
   6.9300000000000000E-002    -9.8783764319347540     
   6.9600000000000009E-002    -4.8231687035750141     
   6.9900000000000004E-002   -0.32714619913672038     
   7.0199999999999999E-002     3.4750346433415871     
   7.0500000000000007E-002     6.5094590307112412     
   7.0800000000000016E-002     8.7527252088370346     
   7.1099999999999997E-002     10.228067197938060     
   7.1400000000000005E-002     10.996190429495641     
   7.1700000000000000E-002     11.143737229420481     
   7.1999999999999995E-002     10.776359126866396     
   7.2300000000000003E-002     10.007785331134755     
   7.2600000000000012E-002     8.9513880582454703     
   7.2900000000000006E-002     7.7179358565845746     
   7.3200000000000001E-002     6.4067009751287856     
   7.3499999999999996E-002     5.1015094685694038     
   7.3800000000000004E-002     3.8718675785231937     
   7.4099999999999999E-002     2.7673501460138539     
   7.4400000000000008E-002     1.8218330247571117     
   7.4700000000000003E-002     1.0535310916822915     
   7.5000000000000011E-002    0.46280487090666345     
   7.5299999999999992E-002     4.1780656723672038E-002
   7.5600000000000001E-002   -0.22736054355650559     
   7.5900000000000009E-002   -0.36955911016155341     
   7.6200000000000004E-002   -0.40882144044467239     
   7.6499999999999999E-002   -0.37250246318978242     
   7.6800000000000007E-002   -0.28477924303942892     
   7.7099999999999988E-002   -0.16405025441794319     
   7.7399999999999997E-002    -2.8167844564353395E-002
   7.7700000000000005E-002    0.11041645052446469     
   7.8000000000000014E-002    0.24268459041320867     
   7.8299999999999995E-002    0.36117535897745334     
   7.8600000000000003E-002    0.46111795549317591     
   7.8900000000000012E-002    0.53757197815050972     
   7.9199999999999993E-002    0.58619449138990021     
   7.9500000000000001E-002    0.60509341867077993     
   7.9800000000000010E-002    0.59132245109885728     
   8.0100000000000018E-002    0.54382754794034871     
   8.0399999999999999E-002    0.46613652381325998     
   8.0700000000000008E-002    0.36093388754010824     
   8.1000000000000003E-002    0.23458190236981480     
   8.1299999999999997E-002     9.7581041138101510E-002
   8.1600000000000006E-002    -4.1162343959640246E-002
   8.1900000000000014E-002   -0.17080522233562512     
   8.2199999999999995E-002   -0.28205046165497549     
   8.2500000000000004E-002   -0.36803316539796871     
   8.2799999999999999E-002   -0.42245857309834012     
   8.3100000000000007E-002   -0.44601389182486351     
   8.3400000000000002E-002   -0.44115956294303427     
   8.3700000000000011E-002   -0.41119146669037576     
   8.4000000000000005E-002   -0.36456162078475174     
   8.4300000000000000E-002   -0.30871145007618317     
   8.4599999999999995E-002   -0.25110893872103457     
   8.4900000000000003E-002   -0.19899955368819189     
   8.5199999999999998E-002   -0.15540826012514408     
   8.5500000000000007E-002   -0.12297502697210350     
   8.5800000000000001E-002   -0.10254814306201210     
   8.6100000000000010E-002    -9.1848586078259409E-002
   8.6399999999999991E-002    -8.9196913155384028E-002
   8.6699999999999999E-002    -9.1993101621258511E-002
   8.7000000000000008E-002    -9.7216293649610375E-002
   8.7300000000000003E-002   -0.10440831492696434     
   8.7599999999999997E-002   -0.11278558349827117     
   8.7900000000000006E-002   -0.12189139451141706     
   8.8200000000000014E-002   -0.13302670625439994     
   8.8499999999999995E-002   -0.14602132535338086     
   8.8800000000000004E-002   -0.16098545412091436     
   8.9100000000000013E-002   -0.17762894798883089     
   8.9399999999999993E-002   -0.19294392694431206     
   8.9700000000000002E-002   -0.20516822660941170     
   9.0000000000000011E-002   -0.21228618676017952     
   9.0299999999999991E-002   -0.21075054209938227     
   9.0600000000000000E-002   -0.19968715458459307     
   9.0900000000000009E-002   -0.17837403536022123     
   9.1200000000000017E-002   -0.14738243685563468     
   9.1499999999999998E-002   -0.11016987280828250     
   9.1800000000000007E-002    -6.9757126093437316E-002
   9.2100000000000001E-002    -3.0762871675368508E-002
   9.2399999999999996E-002     2.3204094324957847E-003
   9.2700000000000005E-002     2.6587695600364003E-002
   9.3000000000000013E-002     3.8567075590787647E-002
   9.3300000000000008E-002     3.8158610308931751E-002
   9.3600000000000003E-002     2.8000523078727302E-002
   9.3899999999999997E-002     9.6164374009802128E-003
   9.4200000000000006E-002    -1.2950382808030070E-002
   9.4500000000000001E-002    -3.3037454438651206E-002
   9.4800000000000009E-002    -4.6234740254659568E-002
   9.5100000000000004E-002    -4.9847098260469180E-002
   9.5399999999999999E-002    -4.1551446176546603E-002
   9.5699999999999993E-002    -2.1255647809147238E-002
   9.6000000000000002E-002     8.9669162103389599E-003
   9.6300000000000011E-002     4.3967207921503770E-002
   9.6600000000000005E-002     7.8472581587610779E-002
   9.6900000000000000E-002    0.10770424015815278     
   9.7200000000000009E-002    0.12470040680426281     
   9.7499999999999989E-002    0.12611222867477312     
   9.7799999999999998E-002    0.11182274435394746     
   9.8100000000000007E-002     8.1825314883325562E-002
   9.8400000000000015E-002     4.0400058919661586E-002
   9.8699999999999996E-002    -5.7614126554976774E-003
   9.9000000000000005E-002    -4.9172109130960262E-002
   9.9300000000000013E-002    -8.2030250345763722E-002
   9.9599999999999994E-002    -9.8161434850561058E-002
   9.9900000000000003E-002    -9.2857288085459899E-002
  0.10020000000000001         -6.4229224883127878E-002
  0.10049999999999999         -1.5618549503127577E-002
  0.10080000000000000          4.7055242394085567E-002
  0.10110000000000001         0.11581799663933134     
  0.10140000000000000         0.17978037325702578     
  0.10170000000000000         0.22855281296340646     
  0.10200000000000001         0.25372307053639798     
  0.10230000000000002         0.24859888243868955     
  0.10260000000000000         0.21189556284886901     
  0.10290000000000001         0.14724730389946084     
  0.10320000000000000          6.2422321131585135E-002
  0.10350000000000001         -3.0465344584643450E-002
  0.10380000000000000        -0.11822609098407977     
  0.10410000000000001        -0.18582275054311204     
  0.10440000000000001        -0.22000086438366662     
  0.10470000000000000        -0.21363914908048187     
  0.10500000000000000        -0.16366694729735398     
  0.10530000000000000         -7.3592000373530642E-002
  0.10560000000000000          4.5074049416682804E-002
  0.10590000000000001         0.17564008431005473     
  0.10620000000000000         0.29727857859855300     
  0.10650000000000001         0.38790730580450816     
  0.10679999999999999         0.42749831938427452     
  0.10710000000000000         0.40009344288255111     
  0.10740000000000001         0.29808980407797669     
  0.10770000000000000         0.12363363000051164     
  0.10800000000000000        -0.11148281782579650     
  0.10830000000000001        -0.38519511316581490     
  0.10859999999999999        -0.66666534465126581     
  0.10890000000000000        -0.92159955300800078     
  0.10920000000000001         -1.1147769776768524     
  0.10950000000000001         -1.2138469580031970     
  0.10979999999999999         -1.1948555161363981     
  0.11009999999999999         -1.0457456692115106     
  0.11040000000000001        -0.76851238437147273     
  0.11070000000000001        -0.37888999903416876     
  0.11100000000000000          9.4385052417127469E-002
  0.11130000000000000         0.60948415414852519     
  0.11160000000000002          1.1187533233199645     
  0.11190000000000001          1.5742530058832855     
  0.11220000000000001          1.9292906046606930     
  0.11250000000000000          2.1465086738382908     
  0.11280000000000000          2.2017001580476219     
  0.11309999999999999          2.0843234577609242     
  0.11340000000000001          1.8007011005034492     
  0.11369999999999998          1.3722385312868788     
  0.11400000000000000         0.83323986912994030     
  0.11430000000000000         0.22747239979867118     
  0.11460000000000002        -0.39763723860627564     
  0.11489999999999999        -0.99359281398839983     
  0.11520000000000001         -1.5156664630475234     
  0.11550000000000001         -1.9291283077171428     
  0.11580000000000000         -2.2084557634731112     
  0.11609999999999999         -2.3396835491401653     
  0.11640000000000002         -2.3221729213297682     
  0.11670000000000001         -2.1652658692941422     
  0.11700000000000001         -1.8886142500311962     
  0.11730000000000000         -1.5182180019023761     
  0.11760000000000000         -1.0830382960291765     
  0.11789999999999999        -0.61579751173784558     
  0.11820000000000001        -0.14659022255565191     
  0.11850000000000001         0.29764243182699701     
  0.11880000000000000         0.69250042628588204     
  0.11910000000000000          1.0202945805313703     
  0.11940000000000002          1.2689055284694106     
  0.11970000000000001          1.4314958027472002     
  0.12000000000000001          1.5067756031294550     
  0.12030000000000000          1.4982276458448514     
  0.12060000000000000          1.4147866813726662     
  0.12089999999999999          1.2678448616324403     
  0.12119999999999999          1.0709930005586550     
  0.12150000000000001         0.84042110966479200     
  0.12180000000000001         0.59297267665781206     
  0.12210000000000000         0.34423031910896729     
  0.12239999999999999         0.10849051434003032     
  0.12270000000000002        -0.10126574460368332     
  0.12300000000000001        -0.27627490896682971     
  0.12330000000000001        -0.41060965699641372     
  0.12360000000000000        -0.50145490779825508     
  0.12390000000000000        -0.55065153160403923     
  0.12419999999999999        -0.56189181720133696     
  0.12450000000000001        -0.54142491013683913     
  0.12480000000000001        -0.49715813687846211     
  0.12509999999999999        -0.43639789347599489     
  0.12540000000000001        -0.36779869067375692     
  0.12570000000000003        -0.29741116426837255     
  0.12600000000000000        -0.22977336807157833     
  0.12630000000000002        -0.16898406605932559     
  0.12659999999999999        -0.11610773447819023     
  0.12690000000000001         -7.1574223543492188E-002
  0.12719999999999998         -3.4767073995937869E-002
  0.12750000000000000         -3.9253785921367079E-003
  0.12780000000000002          2.1693560219814279E-002
  0.12809999999999999          4.2959694034268248E-002
  0.12840000000000001          6.0647871898835026E-002
  0.12869999999999998          7.4229360647855236E-002
  0.12900000000000000          8.3406051573732043E-002
  0.12930000000000003          8.7657474431850957E-002
  0.12959999999999999          8.6405534804291806E-002
  0.12990000000000002          7.9533853212680361E-002
  0.13019999999999998          6.7738524449059589E-002
  0.13050000000000000          5.2006627476937739E-002
  0.13080000000000003          3.4063906873886607E-002
  0.13109999999999999          1.5629451877845812E-002
  0.13140000000000002         -1.2816123791685174E-003
  0.13169999999999998         -1.4131836304292406E-002
  0.13200000000000001         -2.2617480234553455E-002
  0.13229999999999997         -2.6245906536129016E-002
  0.13260000000000000         -2.4364718816879516E-002
  0.13290000000000002         -1.8545596617787485E-002
  0.13319999999999999         -1.0157809154691194E-002
  0.13350000000000001         -4.6327282550079341E-004
  0.13380000000000003          8.8628767264647412E-003
  0.13410000000000000          1.6711670849777260E-002
  0.13440000000000002          2.1872902909877978E-002
  0.13469999999999999          2.4987126527233894E-002
  0.13500000000000001          2.6294401612219298E-002
  0.13529999999999998          2.5759353942543917E-002
  0.13560000000000000          2.5131417453086780E-002
  0.13590000000000002          2.5720763258310075E-002
  0.13619999999999999          2.7373013435054272E-002
  0.13650000000000001          3.0343438770806586E-002
  0.13680000000000003          3.4745383624172455E-002
  0.13710000000000000          3.9534128670494106E-002
  0.13740000000000002          4.3235465056261801E-002
  0.13769999999999999          4.4843197630393433E-002
  0.13800000000000001          4.3057075590298588E-002
  0.13829999999999998          3.7448463389601394E-002
  0.13860000000000000          2.7886992315569681E-002
  0.13890000000000002          1.4442014107627577E-002
  0.13919999999999999         -1.3453124408418504E-003
  0.13950000000000001         -1.7696261114532319E-002
  0.13979999999999998         -3.2732133260298113E-002
  0.14010000000000000         -4.4648163081939307E-002
  0.14040000000000002         -5.2154748241927451E-002
  0.14069999999999999         -5.4110799777761898E-002
  0.14100000000000001         -5.0460262887386587E-002
  0.14130000000000004         -4.2113451207981711E-002
  0.14160000000000000         -3.0011159539960808E-002
  0.14189999999999997         -1.6368681665360041E-002
  0.14219999999999999         -3.4031140707759949E-003
  0.14250000000000002          8.0164800863895547E-003
  0.14279999999999998          1.6416292038194891E-002
  0.14310000000000000          2.0362785894406599E-002
  0.14339999999999997          2.0752530847484518E-002
  0.14369999999999999          1.8445177064383728E-002
  0.14400000000000002          1.4274771249407486E-002
  0.14429999999999998          9.8737049817170658E-003
  0.14460000000000001          6.0519879513457192E-003
  0.14490000000000003          4.1010770141304415E-003
  0.14520000000000000          3.7533863838974113E-003
  0.14550000000000002          4.5122860868623826E-003
  0.14579999999999999          6.5036455619124078E-003
  0.14610000000000001          7.6374324485014577E-003
  0.14640000000000003          6.5364800150410352E-003
  0.14670000000000000          3.2920502163054088E-003
  0.14699999999999996         -2.9454030873546366E-003
  0.14729999999999999         -1.1734029722883482E-002
  0.14760000000000001         -2.2164947178818672E-002
  0.14789999999999998         -3.2409733372547933E-002
  0.14820000000000000         -4.0376679375369082E-002