  -1.4999999999999999E-002     0.0000000000000000     
  -1.4700000000000000E-002     0.0000000000000000     
  -1.4400000000000000E-002     5.4236551153084065E-032
  -1.4100000000000000E-002     3.0174630181720972E-028
  -1.3800000000000000E-002     1.2431736042575701E-026
  -1.3500000000000000E-002    -3.4018569464043138E-024
  -1.3200000000000000E-002    -7.2603930439057614E-023
  -1.2899999999999998E-002     4.2657947537171680E-022
  -1.2600000000000000E-002     1.0138801235676477E-020
  -1.2299999999999998E-002    -3.1547569963521429E-020
  -1.2000000000000000E-002    -3.2110587862516233E-019
  -1.1699999999999999E-002     9.4574640680969414E-019
  -1.1399999999999999E-002     4.1642174551328285E-018
  -1.1099999999999999E-002    -3.5449771445580762E-017
  -1.0799999999999999E-002     1.4686333695527890E-016
  -1.0499999999999999E-002     2.2341444248919872E-016
  -1.0199999999999999E-002    -4.6990423298353193E-015
  -9.8999999999999991E-003     1.2814961358785862E-014
  -9.5999999999999992E-003     1.4322947667309849E-014
  -9.2999999999999992E-003    -1.3377274006402817E-013
  -8.9999999999999993E-003     2.4189035648623791E-013
  -8.6999999999999994E-003    -6.4558201720663760E-014
  -8.3999999999999995E-003    -4.8984026470438868E-013
  -8.0999999999999996E-003     1.3421487228895690E-012
  -7.7999999999999988E-003    -1.9696653162648570E-012
  -7.4999999999999997E-003     1.2276241221492734E-012
  -7.1999999999999998E-003    -1.5490550465610542E-012
  -6.8999999999999981E-003     5.6549170728004139E-012
  -6.5999999999999982E-003     2.2804035135909340E-012
  -6.3000000000000000E-003    -3.4202165405394780E-011
  -6.0000000000000001E-003     3.7972604227665130E-011
  -5.6999999999999985E-003     4.8455808809855228E-011
  -5.3999999999999986E-003    -1.5228099337072365E-010
  -5.1000000000000004E-003     5.2904926967078936E-011
  -4.7999999999999987E-003     3.7033437427780314E-010
  -4.5000000000000005E-003    -6.6218308614196530E-010
  -4.1999999999999989E-003     7.7561568279094217E-012
  -3.8999999999999990E-003     1.2616161448875118E-009
  -3.5999999999999990E-003    -1.3379822805248409E-009
  -3.2999999999999991E-003    -6.3499494551422231E-010
  -2.9999999999999992E-003     2.2016861667140120E-009
  -2.6999999999999993E-003     5.6067839260265373E-010
  -2.3999999999999994E-003    -4.7019677040793795E-009
  -2.0999999999999977E-003    -3.3660724207962289E-010
  -1.7999999999999995E-003     1.1646065445347631E-008
  -1.4999999999999979E-003    -7.9517530338080178E-009
  -1.1999999999999997E-003    -1.6413036263429603E-008
  -8.9999999999999976E-004     3.9251375483217998E-008
  -5.9999999999999810E-004    -1.9294816411274951E-008
  -2.9999999999999992E-004    -9.8430497530443972E-008
   0.0000000000000000          2.3253750214280444E-007
   3.0000000000000165E-004     4.2825547552638454E-009
   5.9999999999999984E-004    -7.2313531518375385E-007
   9.0000000000000149E-004     6.9866075591562549E-007
   1.2000000000000031E-003     1.3549674804380629E-006
   1.5000000000000013E-003    -2.7091568881587591E-006
   1.8000000000000030E-003    -2.2864105631015263E-006
   2.1000000000000012E-003     7.9577794167562388E-006
   2.3999999999999994E-003     5.2498676268442068E-006
   2.7000000000000010E-003    -2.1393361748778261E-005
   2.9999999999999992E-003    -2.1752748580183834E-005
   3.3000000000000008E-003     6.0528509493451566E-005
   3.6000000000000025E-003     2.2175844060257077E-004
   3.9000000000000007E-003     4.3239927617833018E-004
   4.2000000000000023E-003     6.7531567765399814E-004
   4.5000000000000005E-003     9.5757190138101578E-004
   4.7999999999999987E-003     1.3608627486974001E-003
   5.1000000000000004E-003     2.0475168712437153E-003
   5.4000000000000020E-003     3.1843048054724932E-003
   5.7000000000000037E-003     4.9134199507534504E-003
   5.9999999999999984E-003     7.4071926064789295E-003
   6.3000000000000000E-003     1.0944600217044353E-002
   6.6000000000000017E-003     1.5944406390190125E-002
   6.9000000000000034E-003     2.2934416308999062E-002
   7.2000000000000015E-003     3.2531131058931351E-002
   7.5000000000000032E-003     4.5445524156093597E-002
   7.8000000000000014E-003     6.2473751604557037E-002
   8.0999999999999996E-003     8.4466569125652313E-002
   8.4000000000000012E-003    0.11224928498268127     
   8.7000000000000029E-003    0.14653567969799042     
   9.0000000000000011E-003    0.18780086934566498     
   9.2999999999999992E-003    0.23604030907154083     
   9.6000000000000009E-003    0.29049596190452576     
   9.8999999999999991E-003    0.34939983487129211     
   1.0200000000000001E-002    0.40965589880943298     
   1.0500000000000002E-002    0.46665593981742859     
   1.0800000000000004E-002    0.51410436630249023     
   1.1099999999999999E-002    0.54383361339569092     
   1.1400000000000000E-002    0.54574894905090332     
   1.1700000000000002E-002    0.50811308622360229     
   1.2000000000000004E-002    0.41838926076889038     
   1.2300000000000002E-002    0.26402682065963745     
   1.2600000000000000E-002     3.3641051501035690E-002
   1.2900000000000002E-002   -0.28166922926902771     
   1.3200000000000000E-002   -0.68635272979736328     
   1.3500000000000002E-002    -1.1785038709640503     
   1.3800000000000003E-002    -1.7484294176101685     
   1.4100000000000001E-002    -2.3772819042205811     
   1.4400000000000000E-002    -3.0365393161773682     
   1.4700000000000001E-002    -3.6878271102905273     
   1.4999999999999999E-002    -4.2840967178344727     
   1.5300000000000001E-002    -4.7719869613647461     
   1.5600000000000003E-002    -5.0952110290527344     
   1.5899999999999997E-002    -5.1990785598754883     
   1.6199999999999999E-002    -5.0351066589355469     
   1.6500000000000001E-002    -4.5667643547058105     
   1.6800000000000002E-002    -3.7740931510925293     
   1.7100000000000004E-002    -2.6583549976348877     
   1.7400000000000006E-002    -1.2445720434188843     
   1.7700000000000000E-002    0.41770398616790771     
   1.8000000000000002E-002     2.2554085254669189     
   1.8300000000000004E-002     4.1755299568176270     
   1.8600000000000005E-002     6.0709857940673828     
   1.8900000000000000E-002     7.8284697532653809     
   1.9200000000000002E-002     9.3366575241088867     
   1.9500000000000003E-002     10.495867729187012     
   1.9799999999999998E-002     11.225978851318359     
   2.0100000000000000E-002     11.473919868469238     
   2.0400000000000001E-002     11.218979835510254     
   2.0700000000000003E-002     10.474788665771484     
   2.0999999999999998E-002     9.2887725830078125     
   2.1299999999999999E-002     7.7381210327148438     
   2.1600000000000001E-002     5.9233317375183105     
   2.1900000000000003E-002     3.9604301452636719     
   2.2200000000000004E-002     1.9705240726470947     
   2.2500000000000006E-002     7.0144310593605042E-002
   2.2800000000000001E-002    -1.6387290954589844     
   2.3100000000000002E-002    -3.0767703056335449     
   2.3400000000000004E-002    -4.1922473907470703     
   2.3699999999999999E-002    -4.9644150733947754     
   2.4000000000000000E-002    -5.4033694267272949     
   2.4300000000000002E-002    -5.5484085083007812     
   2.4599999999999997E-002    -5.4621129035949707     
   2.4900000000000005E-002    -5.2227897644042969     
   2.5200000000000000E-002    -4.9164729118347168     
   2.5499999999999995E-002    -4.6282844543457031     
   2.5800000000000003E-002    -4.4356431961059570     
   2.6099999999999998E-002    -4.3987464904785156     
   2.6400000000000007E-002    -4.5574393272399902     
   2.6700000000000002E-002    -4.9261922836303711     
   2.6999999999999996E-002    -5.4937529563903809     
   2.7300000000000005E-002    -6.2248358726501465     
   2.7600000000000000E-002    -7.0607681274414062     
   2.7900000000000008E-002    -7.9264326095581055     
   2.8200000000000003E-002    -8.7340774536132812     
   2.8499999999999998E-002    -9.3914813995361328     
   2.8800000000000006E-002    -9.8089895248413086     
   2.9100000000000001E-002    -9.9032764434814453     
   2.9400000000000003E-002    -9.6063652038574219     
   2.9700000000000004E-002    -8.8701028823852539     
   3.0000000000000006E-002    -7.6700367927551270     
   3.0300000000000001E-002    -6.0097546577453613     
   3.0600000000000002E-002    -3.9203863143920898     
   3.0900000000000004E-002    -1.4621698856353760     
   3.1199999999999999E-002     1.2787921428680420     
   3.1500000000000007E-002     4.1923508644104004     
   3.1800000000000002E-002     7.1496238708496094     
   3.2099999999999997E-002     10.009875297546387     
   3.2400000000000005E-002     12.627770423889160     
   3.2700000000000000E-002     14.863096237182617     
   3.3000000000000002E-002     16.588066101074219     
   3.3300000000000003E-002     17.697721481323242     
   3.3599999999999998E-002     18.115320205688477     
   3.3900000000000000E-002     17.801532745361328     
   3.4200000000000001E-002     16.758169174194336     
   3.4500000000000003E-002     15.028467178344727     
   3.4799999999999998E-002     12.698150634765625     
   3.5099999999999999E-002     9.8877363204956055     
   3.5400000000000001E-002     6.7493791580200195     
   3.5699999999999996E-002     3.4542233943939209     
   3.6000000000000004E-002    0.18060669302940369     
   3.6299999999999999E-002    -2.8968365192413330     
   3.6600000000000008E-002    -5.6218166351318359     
   3.6900000000000002E-002    -7.8666129112243652     
   3.7199999999999997E-002    -9.5424022674560547     
   3.7500000000000006E-002    -10.605287551879883     
   3.7800000000000000E-002    -11.058064460754395     
   3.8100000000000009E-002    -10.949359893798828     
   3.8400000000000004E-002    -10.368356704711914     
   3.8699999999999998E-002    -9.4334526062011719     
   3.9000000000000007E-002    -8.2836551666259766     
   3.9300000000000002E-002    -7.0631165504455566     
   3.9600000000000003E-002    -5.9059357643127441     
   3.9900000000000005E-002    -4.9280428886413574     
   4.0200000000000000E-002    -4.2131400108337402     
   4.0500000000000001E-002    -3.8082237243652344     
   4.0800000000000003E-002    -3.7218422889709473     
   4.1100000000000005E-002    -3.9242961406707764     
   4.1399999999999999E-002    -4.3566446304321289     
   4.1700000000000008E-002    -4.9360213279724121     
   4.2000000000000003E-002    -5.5686111450195312     
   4.2299999999999997E-002    -6.1612110137939453     
   4.2600000000000006E-002    -6.6264810562133789     
   4.2900000000000001E-002    -6.8945984840393066     
   4.3200000000000002E-002    -6.9133310317993164     
   4.3500000000000004E-002    -6.6462850570678711     
   4.3799999999999999E-002    -6.0744576454162598     
   4.4100000000000000E-002    -5.1825242042541504     
   4.4400000000000002E-002    -3.9567792415618896     
   4.4700000000000004E-002    -2.3792750835418701     
   4.4999999999999998E-002   -0.41995739936828613     
   4.5300000000000000E-002     1.9538143873214722     
   4.5600000000000002E-002     4.7795152664184570     
   4.5899999999999996E-002     8.0832157135009766     
   4.6200000000000005E-002     11.863354682922363     
   4.6500000000000000E-002     16.079946517944336     
   4.6799999999999994E-002     20.629970550537109     
   4.7100000000000003E-002     25.344917297363281     
   4.7399999999999998E-002     29.980093002319336     
   4.7700000000000006E-002     34.218414306640625     
   4.8000000000000001E-002     37.692268371582031     
   4.8300000000000010E-002     40.000843048095703     
   4.8600000000000004E-002     40.750934600830078     
   4.8899999999999999E-002     39.593746185302734     
   4.9200000000000008E-002     36.267616271972656     
   4.9500000000000002E-002     30.640056610107422     
   4.9800000000000011E-002     22.734142303466797     
   5.0100000000000006E-002     12.749843597412109     
   5.0400000000000000E-002     1.0686485767364502     
   5.0700000000000009E-002    -11.766971588134766     
   5.1000000000000004E-002    -25.075523376464844     
   5.1299999999999998E-002    -38.088668823242188     
   5.1600000000000007E-002    -50.007408142089844     
   5.1900000000000002E-002    -60.060352325439453     
   5.2200000000000010E-002    -67.571815490722656     
   5.2500000000000005E-002    -72.013557434082031     
   5.2800000000000000E-002    -73.049667358398438     
   5.3099999999999994E-002    -70.568824768066406     
   5.3400000000000003E-002    -64.686256408691406     
   5.3699999999999998E-002    -55.745742797851562     
   5.4000000000000006E-002    -44.282089233398438     
   5.4300000000000001E-002    -30.982046127319336     
   5.4599999999999996E-002    -16.633335113525391     
   5.4900000000000004E-002    -2.0578680038452148     
   5.5199999999999999E-002     11.941088676452637     
   5.5499999999999994E-002     24.642396926879883     
   5.5800000000000002E-002     35.442470550537109     
   5.6099999999999997E-002     43.901145935058594     
   5.6400000000000006E-002     49.751583099365234     
   5.6700000000000000E-002     52.904293060302734     
   5.6999999999999995E-002     53.446144104003906     
   5.7300000000000004E-002     51.603069305419922     
   5.7599999999999998E-002     47.723068237304688     
   5.7900000000000007E-002     42.230491638183594     
   5.8200000000000002E-002     35.593090057373047     
   5.8499999999999996E-002     28.287698745727539     
   5.8800000000000005E-002     20.761007308959961     
   5.9100000000000000E-002     13.414739608764648     
   5.9400000000000008E-002     6.5800909996032715     
   5.9700000000000003E-002    0.50933909416198730     
   6.0000000000000012E-002    -4.6226024627685547     
   6.0300000000000006E-002    -8.7225437164306641     
   6.0600000000000001E-002    -11.766015052795410     
   6.0900000000000010E-002    -13.788888931274414     
   6.1200000000000004E-002    -14.874895095825195     
   6.1500000000000013E-002    -15.141647338867188     
   6.1800000000000008E-002    -14.731347084045410     
   6.2100000000000002E-002    -13.794338226318359     
   6.2399999999999997E-002    -12.481680870056152     
   6.2700000000000006E-002    -10.938428878784180     
   6.3000000000000000E-002    -9.2939329147338867     
   6.3300000000000009E-002    -7.6581912040710449     
   6.3600000000000004E-002    -6.1190237998962402     
   6.3899999999999998E-002    -4.7387771606445312     
   6.4199999999999993E-002    -3.5571014881134033     
   6.4500000000000002E-002    -2.5926682949066162     
   6.4800000000000010E-002    -1.8411641120910645     
   6.5100000000000005E-002    -1.2875695228576660     
   6.5400000000000000E-002   -0.90299731492996216     
   6.5700000000000008E-002   -0.65390771627426147     
   6.5999999999999989E-002   -0.50686800479888916     
   6.6299999999999998E-002   -0.42717552185058594     
   6.6600000000000006E-002   -0.39101296663284302     
   6.6900000000000001E-002   -0.37518575787544250     
   6.7199999999999996E-002   -0.36672061681747437     
   6.7500000000000004E-002   -0.35996487736701965     
   6.7800000000000013E-002   -0.34867763519287109     
   6.8099999999999994E-002   -0.33651128411293030     
   6.8400000000000002E-002   -0.32160523533821106     
   6.8700000000000011E-002   -0.30427899956703186     
   6.8999999999999992E-002   -0.28367879986763000     
   6.9300000000000000E-002   -0.25622916221618652     
   6.9600000000000009E-002   -0.22132517397403717     
   6.9900000000000004E-002   -0.17271012067794800     
   7.0199999999999999E-002   -0.10863155126571655     
   7.0500000000000007E-002    -2.9947014525532722E-002
   7.0800000000000016E-002     6.1934929341077805E-002
   7.1099999999999997E-002    0.16060671210289001     
   7.1400000000000005E-002    0.26050019264221191     
   7.1700000000000000E-002    0.35288694500923157     
   7.1999999999999995E-002    0.43168810009956360     
   7.2300000000000003E-002    0.49085351824760437     
   7.2600000000000012E-002    0.52671957015991211     
   7.2900000000000006E-002    0.54082584381103516     
   7.3200000000000001E-002    0.53566622734069824     
   7.3499999999999996E-002    0.51776701211929321     
   7.3800000000000004E-002    0.49231237173080444     
   7.4099999999999999E-002    0.46721935272216797     
   7.4400000000000008E-002    0.44780951738357544     
   7.4700000000000003E-002    0.43637967109680176     
   7.5000000000000011E-002    0.43534171581268311     
   7.5299999999999992E-002    0.44068169593811035     
   7.5600000000000001E-002    0.45066237449645996     
   7.5900000000000009E-002    0.45951661467552185     
   7.6200000000000004E-002    0.46368673443794250     
   7.6499999999999999E-002    0.46058681607246399     
   7.6800000000000007E-002    0.44707691669464111     
   7.7099999999999988E-002    0.42549443244934082     
   7.7399999999999997E-002    0.39655920863151550     
   7.7700000000000005E-002    0.36554676294326782     
   7.8000000000000014E-002    0.33509913086891174     
   7.8299999999999995E-002    0.30801919102668762     
   7.8600000000000003E-002    0.28714337944984436     
   7.8900000000000012E-002    0.26997527480125427     
   7.9199999999999993E-002    0.25695300102233887     
   7.9500000000000001E-002    0.24294139444828033     
   7.9800000000000010E-002    0.22577403485774994     
   8.0100000000000018E-002    0.20221097767353058     
   8.0399999999999999E-002    0.16847170889377594     
   8.0700000000000008E-002    0.12769909203052521     
   8.1000000000000003E-002     7.9385735094547272E-002
   8.1299999999999997E-002     3.0628319829702377E-002
   8.1600000000000006E-002    -1.3902802020311356E-002
   8.1900000000000014E-002    -4.9073986709117889E-002
   8.2199999999999995E-002    -6.7683584988117218E-002
   8.2500000000000004E-002    -6.9212265312671661E-002
   8.2799999999999999E-002    -4.9417190253734589E-002
   8.3100000000000007E-002    -1.3666460290551186E-002
   8.3400000000000002E-002     3.3286567777395248E-002
   8.3700000000000011E-002     8.4874622523784637E-002
   8.4000000000000005E-002    0.13040368258953094     
   8.4300000000000000E-002    0.16339604556560516     
   8.4599999999999995E-002    0.17440198361873627     
   8.4900000000000003E-002    0.16121265292167664     
   8.5199999999999998E-002    0.12201471626758575     
   8.5500000000000007E-002     6.0342423617839813E-002
   8.5800000000000001E-002    -1.5910459682345390E-002
   8.6100000000000010E-002    -9.8824322223663330E-002
   8.6399999999999991E-002   -0.17582312226295471     
   8.6699999999999999E-002   -0.23757542669773102     
   8.7000000000000008E-002   -0.27295294404029846     
   8.7300000000000003E-002   -0.27789956331253052     
   8.7599999999999997E-002   -0.25149574875831604     
   8.7900000000000006E-002   -0.19568498432636261     
   8.8200000000000014E-002   -0.12100029736757278     
   8.8499999999999995E-002    -3.5567335784435272E-002
   8.8800000000000004E-002     4.5012116432189941E-002
   8.9100000000000013E-002    0.10900384932756424     
   8.9399999999999993E-002    0.14572080969810486     
   8.9700000000000002E-002    0.14608436822891235     
   9.0000000000000011E-002    0.11231625825166702     
   9.0299999999999991E-002     4.4234696775674820E-002
   9.0600000000000000E-002    -4.5486971735954285E-002
   9.0900000000000009E-002   -0.14391967654228210     
   9.1200000000000017E-002   -0.23734314739704132     
   9.1499999999999998E-002   -0.30687314271926880     
   9.1800000000000007E-002   -0.34419992566108704     
   9.2100000000000001E-002   -0.33770748972892761     
   9.2399999999999996E-002   -0.28883233666419983     
   9.2700000000000005E-002   -0.20430195331573486     
   9.3000000000000013E-002    -9.5101237297058105E-002
   9.3300000000000008E-002     1.6972940415143967E-002
   9.3600000000000003E-002    0.11398928612470627     
   9.3899999999999997E-002    0.17341895401477814     
   9.4200000000000006E-002    0.18084697425365448     
   9.4500000000000001E-002    0.12763872742652893     
   9.4800000000000009E-002     1.3146718963980675E-002
   9.5100000000000004E-002   -0.14935663342475891     
   9.5399999999999999E-002   -0.34043616056442261     
   9.5699999999999993E-002   -0.52929675579071045     
   9.6000000000000002E-002   -0.68334877490997314     
   9.6300000000000011E-002   -0.76799654960632324     
   9.6600000000000005E-002   -0.75521665811538696     
   9.6900000000000000E-002   -0.62644445896148682     
   9.7200000000000009E-002   -0.37568882107734680     
   9.7499999999999989E-002    -1.5850590541958809E-002
   9.7799999999999998E-002    0.42840033769607544     
   9.8100000000000007E-002    0.91253870725631714     
   9.8400000000000015E-002     1.3860452175140381     
   9.8699999999999996E-002     1.7907645702362061     
   9.9000000000000005E-002     2.0693721771240234     
   9.9300000000000013E-002     2.1779453754425049     
   9.9599999999999994E-002     2.0800874233245850     
   9.9900000000000003E-002     1.7678633928298950     
  0.10020000000000001          1.2493933439254761     
  0.10049999999999999         0.55916279554367065     
  0.10080000000000000        -0.24619628489017487     
  0.10110000000000001         -1.1028262376785278     
  0.10140000000000000         -1.9274784326553345     
  0.10170000000000000         -2.6465594768524170     
  0.10200000000000001         -3.1884865760803223     
  0.10230000000000002         -3.4985013008117676     
  0.10260000000000000         -3.5469543933868408     
  0.10290000000000001         -3.3204050064086914     
  0.10320000000000000         -2.8403415679931641     
  0.10350000000000001         -2.1422162055969238     
  0.10380000000000000         -1.2846637964248657     
  0.10410000000000001        -0.33921781182289124     
  0.10440000000000001         0.62318718433380127     
  0.10470000000000000          1.5253338813781738     
  0.10500000000000000          2.3065710067749023     
  0.10530000000000000          2.9136543273925781     
  0.10560000000000000          3.3126485347747803     
  0.10590000000000001          3.4899346828460693     
  0.10620000000000000          3.4454150199890137     
  0.10650000000000001          3.1995787620544434     
  0.10679999999999999          2.7808072566986084     
  0.10710000000000000          2.2301213741302490     
  0.10740000000000001          1.5921700000762939     
  0.10770000000000000         0.91217750310897827     
  0.10800000000000000         0.23501728475093842     
  0.10830000000000001        -0.40190273523330688     
  0.10859999999999999        -0.96456623077392578     
  0.10890000000000000         -1.4297368526458740     
  0.10920000000000001         -1.7787082195281982     
  0.10950000000000001         -2.0041944980621338     
  0.10979999999999999         -2.1048350334167480     
  0.11009999999999999         -2.0854797363281250     
  0.11040000000000001         -1.9602982997894287     
  0.11070000000000001         -1.7436524629592896     
  0.11100000000000000         -1.4595113992691040     
  0.11130000000000000         -1.1281131505966187     
  0.11160000000000002        -0.77475881576538086     
  0.11190000000000001        -0.42417147755622864     
  0.11220000000000001         -9.3138873577117920E-002
  0.11250000000000000         0.19543716311454773     
  0.11280000000000000         0.43316078186035156     
  0.11309999999999999         0.60950618982315063     
  0.11340000000000001         0.72274750471115112     
  0.11369999999999998         0.77814066410064697     
  0.11400000000000000         0.77744144201278687     
  0.11430000000000000         0.73561882972717285     
  0.11460000000000002         0.66017800569534302     
  0.11489999999999999         0.56475698947906494     
  0.11520000000000001         0.46131175756454468     
  0.11550000000000001         0.35598337650299072     
  0.11580000000000000         0.25957721471786499     
  0.11609999999999999         0.17191897332668304     
  0.11640000000000002          9.8146513104438782E-002
  0.11670000000000001          3.7039276212453842E-002
  0.11700000000000001         -1.2428273446857929E-002
  0.11730000000000000         -5.0507593899965286E-002
  0.11760000000000000         -8.1534981727600098E-002
  0.11789999999999999        -0.10342676192522049     
  0.11820000000000001        -0.11902919411659241     
  0.11850000000000001        -0.12578643858432770     
  0.11880000000000000        -0.12518587708473206     
  0.11910000000000000        -0.11712510138750076     
  0.11940000000000002         -9.9800996482372284E-002
  0.11970000000000001         -7.7799342572689056E-002
  0.12000000000000001         -4.8571456223726273E-002
  0.12030000000000000         -1.9120544195175171E-002
  0.12060000000000000          9.7926063463091850E-003
  0.12089999999999999          3.4788738936185837E-002
  0.12119999999999999          5.0601311028003693E-002
  0.12150000000000001          5.9292096644639969E-002
  0.12180000000000001          5.5215071886777878E-002
  0.12210000000000000          4.2691357433795929E-002
  0.12239999999999999          2.1532762795686722E-002
  0.12270000000000002         -5.6265844032168388E-003
  0.12300000000000001         -3.2506521791219711E-002
  0.12330000000000001         -6.0080543160438538E-002
  0.12360000000000000         -8.1010900437831879E-002
  0.12390000000000000         -9.6205785870552063E-002
  0.12419999999999999        -0.10286159813404083     
  0.12450000000000001        -0.10078825801610947     
  0.12480000000000001         -9.3305811285972595E-002
  0.12509999999999999         -7.9402461647987366E-002
  0.12540000000000001         -6.5108291804790497E-002
  0.12570000000000003         -4.9418549984693527E-002
  0.12600000000000000         -3.5903710871934891E-002
  0.12630000000000002         -2.5064300745725632E-002
  0.12659999999999999         -1.6142707318067551E-002
  0.12690000000000001         -1.1111143045127392E-002
  0.12719999999999998         -5.1724072545766830E-003
  0.12750000000000000         -1.0558830108493567E-003
  0.12780000000000002          6.2643983401358128E-003
  0.12809999999999999          1.5515676699578762E-002
  0.12840000000000001          2.5872087106108665E-002
  0.12869999999999998          3.9321783930063248E-002
  0.12900000000000000          4.9921765923500061E-002
  0.12930000000000003          6.0812678188085556E-002
  0.12959999999999999          6.5552622079849243E-002
  0.12990000000000002          6.4539574086666107E-002
  0.13019999999999998          5.8008551597595215E-002
  0.13050000000000000          4.2588796466588974E-002
  0.13080000000000003          2.4413837119936943E-002
  0.13109999999999999          6.9763744249939919E-004
  0.13140000000000002         -2.2220158949494362E-002
  0.13169999999999998         -4.2466260492801666E-002
  0.13200000000000001         -5.8063253760337830E-002
  0.13229999999999997         -6.4161203801631927E-002
  0.13260000000000000         -6.3473679125308990E-002
  0.13290000000000002         -5.3085748106241226E-002
  0.13319999999999999         -3.7410005927085876E-002
  0.13350000000000001         -1.6535375267267227E-002
  0.13380000000000003          5.7355733588337898E-003
  0.13410000000000000          2.5566812604665756E-002
  0.13440000000000002          4.2956892400979996E-002
  0.13469999999999999          5.2537433803081512E-002
  0.13500000000000001          5.7850126177072525E-002
  0.13529999999999998          5.6020278483629227E-002
  0.13560000000000000          5.0855871289968491E-002
  0.13590000000000002          4.4435504823923111E-002
  0.13619999999999999          3.6083437502384186E-002
  0.13650000000000001          3.1944736838340759E-002
  0.13680000000000003          2.7285220101475716E-002
  0.13710000000000000          2.6489285752177238E-002
  0.13740000000000002          2.6884034276008606E-002
  0.13769999999999999          2.5803323835134506E-002
  0.13800000000000001          2.5119289755821228E-002
  0.13829999999999998          1.8151011317968369E-002
  0.13860000000000000          8.9128036051988602E-003
  0.13890000000000002         -5.4330951534211636E-003
  0.13919999999999999         -2.3346295580267906E-002
  0.13950000000000001         -4.0522638708353043E-002
  0.13979999999999998         -5.7453416287899017E-002
  0.14010000000000000         -6.8154253065586090E-002
  0.14040000000000002         -7.3126792907714844E-002
  0.14069999999999999         -6.9683864712715149E-002
  0.14100000000000001         -5.7851403951644897E-002
  0.14130000000000004         -3.8887694478034973E-002
  0.14160000000000000         -1.4701000414788723E-002
  0.14189999999999997          1.0492379777133465E-002
  0.14219999999999999          3.4876044839620590E-002
  0.14250000000000002          5.2474617958068848E-002
  0.14279999999999998          6.4378589391708374E-002
  0.14310000000000000          6.7240610718727112E-002
  0.14339999999999997          6.2387261539697647E-002
  0.14369999999999999          5.2260510623455048E-002
  0.14400000000000002          3.5258911550045013E-002
  0.14429999999999998          2.0056271925568581E-002
  0.14460000000000001          3.1506926752626896E-003
  0.14490000000000003         -9.2585738748311996E-003
  0.14520000000000000         -1.6104059293866158E-002
  0.14550000000000002         -2.1559605374932289E-002
  0.14579999999999999         -2.0154692232608795E-002
  0.14610000000000001         -2.1101040765643120E-002
  0.14640000000000003         -2.0073698833584785E-002
  0.14670000000000000         -2.0464513450860977E-002
  0.14699999999999996         -2.5966081768274307E-002
  0.14729999999999999         -3.0384609475731850E-002
  0.14760000000000001         -3.9850085973739624E-002
  0.14789999999999998         -4.7123853117227554E-002
  0.14820000000000000         -5.2328672260046005E-002