  -1.4999999999999999E-002     0.0000000000000000     
  -1.4700000000000000E-002     0.0000000000000000     
  -1.4400000000000000E-002     0.0000000000000000     
  -1.4100000000000000E-002     0.0000000000000000     
  -1.3800000000000000E-002     0.0000000000000000     
  -1.3500000000000000E-002     0.0000000000000000     
  -1.3200000000000000E-002     0.0000000000000000     
  -1.2899999999999998E-002     0.0000000000000000     
  -1.2600000000000000E-002     0.0000000000000000     
  -1.2299999999999998E-002     0.0000000000000000     
  -1.2000000000000000E-002     0.0000000000000000     
  -1.1699999999999999E-002     0.0000000000000000     
  -1.1399999999999999E-002     0.0000000000000000     
  -1.1099999999999999E-002     0.0000000000000000     
  -1.0799999999999999E-002     0.0000000000000000     
  -1.0499999999999999E-002     0.0000000000000000     
  -1.0199999999999999E-002     0.0000000000000000     
  -9.8999999999999991E-003     0.0000000000000000     
  -9.5999999999999992E-003     0.0000000000000000     
  -9.2999999999999992E-003     0.0000000000000000     
  -8.9999999999999993E-003     0.0000000000000000     
  -8.6999999999999994E-003     0.0000000000000000     
  -8.3999999999999995E-003     0.0000000000000000     
  -8.0999999999999996E-003     0.0000000000000000     
  -7.7999999999999988E-003     0.0000000000000000     
  -7.4999999999999997E-003     0.0000000000000000     
  -7.1999999999999998E-003     0.0000000000000000     
  -6.8999999999999981E-003     0.0000000000000000     
  -6.5999999999999982E-003     0.0000000000000000     
  -6.3000000000000000E-003     0.0000000000000000     
  -6.0000000000000001E-003     0.0000000000000000     
  -5.6999999999999985E-003     0.0000000000000000     
  -5.3999999999999986E-003     0.0000000000000000     
  -5.1000000000000004E-003     0.0000000000000000     
  -4.7999999999999987E-003     0.0000000000000000     
  -4.5000000000000005E-003     0.0000000000000000     
  -4.1999999999999989E-003     0.0000000000000000     
  -3.8999999999999990E-003     0.0000000000000000     
  -3.5999999999999990E-003     0.0000000000000000     
  -3.2999999999999991E-003     0.0000000000000000     
  -2.9999999999999992E-003     0.0000000000000000     
  -2.6999999999999993E-003     1.8331464211650462E-038
  -2.3999999999999994E-003    -8.9429704915484436E-038
  -2.0999999999999977E-003    -8.4441894794852102E-037
  -1.7999999999999995E-003    -4.2581600418580047E-037
  -1.4999999999999979E-003     8.7014335312024322E-036
  -1.1999999999999997E-003    -6.2569918245955021E-035
  -8.9999999999999976E-004     1.6409866270575739E-034
  -5.9999999999999810E-004     8.4678922865136618E-034
  -2.9999999999999992E-004    -7.8302157210391512E-033
   0.0000000000000000          1.3055786830545905E-032
   3.0000000000000165E-004     4.3500874268836182E-032
   5.9999999999999984E-004    -2.0280837209055261E-031
   9.0000000000000149E-004     1.4807976006130380E-031
   1.2000000000000031E-003     1.0503731090213308E-030
   1.5000000000000013E-003    -3.9538556748573565E-030
   1.8000000000000030E-003     4.2207940263795730E-030
   2.1000000000000012E-003     1.1982702550761717E-029
   2.3999999999999994E-003    -4.8854409762096360E-029
   2.7000000000000010E-003     5.3332545153202038E-029
   2.9999999999999992E-003     8.8564924510997922E-029
   3.3000000000000008E-003    -4.7113773379410653E-028
   3.6000000000000025E-003     3.5909031541665931E-028
   3.9000000000000007E-003     9.1615513003221383E-027
   4.2000000000000023E-003    -7.6505886044216436E-026
   4.5000000000000005E-003     3.2407910511515923E-025
   4.7999999999999987E-003    -5.4885177798194011E-025
   5.1000000000000004E-003    -2.6568957751509536E-024
   5.4000000000000020E-003     2.5770858141413068E-023
   5.7000000000000037E-003    -1.1306899549705004E-022
   5.9999999999999984E-003     3.0345820946143015E-022
   6.3000000000000000E-003    -3.5697089071527107E-022
   6.6000000000000017E-003    -1.0783401284320932E-021
   6.9000000000000034E-003     7.6350218362183187E-021
   7.2000000000000015E-003    -2.3656408122907425E-020
   7.5000000000000032E-003     3.9535494494130352E-020
   7.8000000000000014E-003     1.8670547794914710E-020
   8.0999999999999996E-003    -4.1582737267269629E-019
   8.4000000000000012E-003     1.9076487971719295E-018
   8.7000000000000029E-003    -6.6356795030579200E-018
   9.0000000000000011E-003     2.1670152392037371E-017
   9.2999999999999992E-003    -7.4013581064514879E-017
   9.6000000000000009E-003     2.6931760311493862E-016
   9.8999999999999991E-003    -9.8927595210042431E-016
   1.0200000000000001E-002     3.3909308288381813E-015
   1.0500000000000002E-002    -9.7780459982174602E-015
   1.0800000000000004E-002     1.7885044755811088E-014
   1.1099999999999999E-002     2.5569632917190047E-014
   1.1400000000000000E-002    -4.4760051919621257E-013
   1.1700000000000002E-002     2.5789991993148842E-012
   1.2000000000000004E-002    -1.0068001351169060E-011
   1.2300000000000002E-002     2.7281190486633156E-011
   1.2600000000000000E-002    -3.8849265160004708E-011
   1.2900000000000002E-002    -5.5820571587954106E-011
   1.3200000000000000E-002     4.8777328504993763E-010
   1.3500000000000002E-002    -1.2057849366725994E-009
   1.3800000000000003E-002     4.4082703331746515E-010
   1.4100000000000001E-002     5.5443776629967796E-009
   1.4400000000000000E-002    -1.2731478737478020E-008
   1.4700000000000001E-002    -6.7129319089115394E-009
   1.4999999999999999E-002     6.2162096991486954E-008
   1.5300000000000001E-002    -2.0558609824787695E-008
   1.5600000000000003E-002    -2.3924076137834307E-007
   1.5899999999999997E-002     6.2819456606422559E-008
   1.6199999999999999E-002     7.5759006853733920E-007
   1.6500000000000001E-002     8.8261724922577412E-008
   1.6800000000000002E-002    -2.0194006618078376E-006
   1.7100000000000004E-002    -1.1279665461761757E-006
   1.7400000000000006E-002     6.7254457886752755E-006
   1.7700000000000000E-002     1.8041279251252980E-005
   1.8000000000000002E-002     2.6346820472994891E-005
   1.8300000000000004E-002     3.4615019733836737E-005
   1.8600000000000005E-002     5.5525299629046029E-005
   1.8900000000000000E-002     9.6940595666001120E-005
   1.9200000000000002E-002     1.5622244693552084E-004
   1.9500000000000003E-002     2.3486282105589663E-004
   1.9799999999999998E-002     3.5183510061597909E-004
   2.0100000000000000E-002     5.3509862127215993E-004
   2.0400000000000001E-002     8.0641211383258166E-004
   2.0700000000000003E-002     1.1874263537557175E-003
   2.0999999999999998E-002     1.7200708924676456E-003
   2.1299999999999999E-002     2.4685645952985114E-003
   2.1600000000000001E-002     3.5019640229665971E-003
   2.1900000000000003E-002     4.8902555774625045E-003
   2.2200000000000004E-002     6.7225106142457525E-003
   2.2500000000000006E-002     9.1140246691905347E-003
   2.2800000000000001E-002     1.2185185432173007E-002
   2.3100000000000002E-002     1.6042608729216312E-002
   2.3400000000000004E-002     2.0785341838232774E-002
   2.3699999999999999E-002     2.6506373805230687E-002
   2.4000000000000000E-002     3.3262479120458099E-002
   2.4300000000000002E-002     4.1035757405334161E-002
   2.4599999999999997E-002     4.9720432488697064E-002
   2.4900000000000005E-002     5.9119647241421935E-002
   2.5200000000000000E-002     6.8915722225351139E-002
   2.5499999999999995E-002     7.8633987959427110E-002
   2.5800000000000003E-002     8.7636904429170492E-002
   2.6099999999999998E-002     9.5146570910963568E-002
   2.6400000000000007E-002    0.10026940546783569     
   2.6700000000000002E-002    0.10201123659779432     
   2.6999999999999996E-002     9.9325360974625188E-002
   2.7300000000000005E-002     9.1216048381526083E-002
   2.7600000000000000E-002     7.6841824952791127E-002
   2.7900000000000008E-002     5.5597540937640355E-002
   2.8200000000000003E-002     2.7200819604375218E-002
   2.8499999999999998E-002    -8.1962869721763643E-003
   2.8800000000000006E-002    -4.9916978131841594E-002
   2.9100000000000001E-002    -9.6722315993654551E-002
   2.9400000000000003E-002   -0.14684966346554784     
   2.9700000000000004E-002   -0.19805589909990839     
   3.0000000000000006E-002   -0.24770631569091250     
   3.0300000000000001E-002   -0.29294152794100725     
   3.0600000000000002E-002   -0.33090333512160264     
   3.0900000000000004E-002   -0.35895245821702026     
   3.1199999999999999E-002   -0.37489989537348833     
   3.1500000000000007E-002   -0.37721080401646923     
   3.1800000000000002E-002   -0.36520375967200991     
   3.2099999999999997E-002   -0.33917626767427045     
   3.2400000000000005E-002   -0.30040957093947540     
   3.2700000000000000E-002   -0.25113396080904327     
   3.3000000000000002E-002   -0.19441242248284318     
   3.3300000000000003E-002   -0.13395155853807816     
   3.3599999999999998E-002    -7.3775728617550218E-002
   3.3900000000000000E-002    -1.7927703234315473E-002
   3.4200000000000001E-002     2.9791364436827394E-002
   3.4500000000000003E-002     6.6110899029386161E-002
   3.4799999999999998E-002     8.8601837697208197E-002
   3.5099999999999999E-002     9.5893463457914052E-002
   3.5400000000000001E-002     8.7721640391834832E-002
   3.5699999999999996E-002     6.4980748967692792E-002
   3.6000000000000004E-002     2.9690950413518102E-002
   3.6299999999999999E-002    -1.5154409203675057E-002
   3.6600000000000008E-002    -6.5716915373685181E-002
   3.6900000000000002E-002   -0.11757360175927500     
   3.7199999999999997E-002   -0.16602768309563576     
   3.7500000000000006E-002   -0.20633808343947102     
   3.7800000000000000E-002   -0.23402273141089047     
   3.8100000000000009E-002   -0.24514806781965781     
   3.8400000000000004E-002   -0.23658802065688178     
   3.8699999999999998E-002   -0.20618565727666915     
   3.9000000000000007E-002   -0.15285899715992723     
   3.9300000000000002E-002    -7.6834493404394022E-002
   3.9600000000000003E-002     2.0365243503961655E-002
   3.9900000000000005E-002    0.13606630651045970     
   4.0200000000000000E-002    0.26657857694416087     
   4.0500000000000001E-002    0.40724329292813621     
   4.0800000000000003E-002    0.55268693696721982     
   4.1100000000000005E-002    0.69719628034540548     
   4.1399999999999999E-002    0.83493974358971101     
   4.1700000000000008E-002    0.96016455797027334     
   4.2000000000000003E-002     1.0675045260397127     
   4.2299999999999997E-002     1.1522125935990886     
   4.2600000000000006E-002     1.2102983015866613     
   4.2900000000000001E-002     1.2385513350194373     
   4.3200000000000002E-002     1.2346127207697748     
   4.3500000000000004E-002     1.1971127625884819     
   4.3799999999999999E-002     1.1256310696452658     
   4.4100000000000000E-002     1.0206624017275381     
   4.4400000000000002E-002    0.88367283805229491     
   4.4700000000000004E-002    0.71715324488529575     
   4.4999999999999998E-002    0.52473283487664091     
   4.5300000000000000E-002    0.31116576336516255     
   4.5600000000000002E-002     8.2356238927569603E-002
   4.5899999999999996E-002   -0.15469833887906370     
   4.6200000000000005E-002   -0.39192165722937844     
   4.6500000000000000E-002   -0.62033317479819416     
   4.6799999999999994E-002   -0.83061751041939758     
   4.7100000000000003E-002    -1.0134466713785351     
   4.7399999999999998E-002    -1.1598925742082002     
   4.7700000000000006E-002    -1.2620896494888072     
   4.8000000000000001E-002    -1.3138968747190205     
   4.8300000000000010E-002    -1.3115330537390406     
   4.8600000000000004E-002    -1.2538791721467675     
   4.8899999999999999E-002    -1.1426747044328955     
   4.9200000000000008E-002   -0.98273512653489803     
   4.9500000000000002E-002   -0.78182520768381636     
   4.9800000000000011E-002   -0.55024967192989749     
   5.0100000000000006E-002   -0.30021864199440723     
   5.0400000000000000E-002    -4.5159428838375870E-002
   5.0700000000000009E-002    0.20106959515170963     
   5.1000000000000004E-002    0.42501819743277913     
   5.1299999999999998E-002    0.61446488124440179     
   5.1600000000000007E-002    0.75915719050529162     
   5.1900000000000002E-002    0.85140102389905081     
   5.2200000000000010E-002    0.88643563401786096     
   5.2500000000000005E-002    0.86259503300365381     
   5.2800000000000000E-002    0.78147525216079572     
   5.3099999999999994E-002    0.64773550789511880     
   5.3400000000000003E-002    0.46870837707900925     
   5.3699999999999998E-002    0.25403863103973223     
   5.4000000000000006E-002     1.5162502755343255E-002
   5.4300000000000001E-002   -0.23547966612891003     
   5.4599999999999996E-002   -0.48509773932142863     
   5.4900000000000004E-002   -0.72137452275213576     
   5.5199999999999999E-002   -0.93306864651644617     
   5.5499999999999994E-002    -1.1107708622107921     
   5.5800000000000002E-002    -1.2475642618060903     
   5.6099999999999997E-002    -1.3393789320637453     
   5.6400000000000006E-002    -1.3852231293124788     
   5.6700000000000000E-002    -1.3869419773731906     
   5.6999999999999995E-002    -1.3490116736902351     
   5.7300000000000004E-002    -1.2782139093320453     
   5.7599999999999998E-002    -1.1825944632137393     
   5.7900000000000007E-002    -1.0705639619150418     
   5.8200000000000002E-002   -0.95008124093399360     
   5.8499999999999996E-002   -0.82785515873822391     
   5.8800000000000005E-002   -0.70847335946869805     
   5.9100000000000000E-002   -0.59381312621694526     
   5.9400000000000008E-002   -0.48313907340590134     
   5.9700000000000003E-002   -0.37341003021200336     
   6.0000000000000012E-002   -0.25955909621242701     
   6.0300000000000006E-002   -0.13500447724500653     
   6.0600000000000001E-002     7.0192584756448850E-003
   6.0900000000000010E-002    0.17212113040565846     
   6.1200000000000004E-002    0.36415490745799239     
   6.1500000000000013E-002    0.58456504383473984     
   6.1800000000000008E-002    0.83136853544656120     
   6.2100000000000002E-002     1.0985244826557263     
   6.2399999999999997E-002     1.3762834536749935     
   6.2700000000000006E-002     1.6518534565277108     
   6.3000000000000000E-002     1.9096619641857728     
   6.3300000000000009E-002     2.1320820117081212     
   6.3600000000000004E-002     2.3008416678623860     
   6.3899999999999998E-002     2.3985690758525635     
   6.4199999999999993E-002     2.4100912220384743     
   6.4500000000000002E-002     2.3233115901117216     
   6.4800000000000010E-002     2.1307051946062998     
   6.5100000000000005E-002     1.8305388158889215     
   6.5400000000000000E-002     1.4273811027537953     
   6.5700000000000008E-002    0.93218451826454207     
   6.5999999999999989E-002    0.36248336326535124     
   6.6299999999999998E-002   -0.25813607648167158     
   6.6600000000000006E-002   -0.90115916707425114     
   6.6900000000000001E-002    -1.5345628193704286     
   6.7199999999999996E-002    -2.1247283399697494     
   6.7500000000000004E-002    -2.6382618522491725     
   6.7800000000000013E-002    -3.0441062165624544     
   6.8099999999999994E-002    -3.3158131563841522     
   6.8400000000000002E-002    -3.4333466880856776     
   6.8700000000000011E-002    -3.3845976349177249     
   6.8999999999999992E-002    -3.1662360021414884     
   6.9300000000000000E-002    -2.7840833821729731     
   6.9600000000000009E-002    -2.2534233443056024     
   6.9900000000000004E-002    -1.5978936011594946     
   7.0199999999999999E-002   -0.84788025152586499     
   7.0500000000000007E-002    -3.9298670179015005E-002
   7.0800000000000016E-002    0.78870947026814520     
   7.1099999999999997E-002     1.5959243407833483     
   7.1400000000000005E-002     2.3430405990916370     
   7.1700000000000000E-002     2.9940613087271686     
   7.1999999999999995E-002     3.5177435191573636     
   7.2300000000000003E-002     3.8890639133266376     
   7.2600000000000012E-002     4.0903957879486654     
   7.2900000000000006E-002     4.1121077968749518     
   7.3200000000000001E-002     3.9529882829088052     
   7.3499999999999996E-002     3.6197706488786991     
   7.3800000000000004E-002     3.1267366074666114     
   7.4099999999999999E-002     2.4955247370502462     
   7.4400000000000008E-002     1.7537823068860687     
   7.4700000000000003E-002    0.93370690928443167     
   7.5000000000000011E-002     7.1330316333440891E-002
   7.5299999999999992E-002   -0.79518712737054642     
   7.5600000000000001E-002    -1.6275370594325196     
   7.5900000000000009E-002    -2.3883754885586086     
   7.6200000000000004E-002    -3.0431144907410896     
   7.6499999999999999E-002    -3.5615968953664918     
   7.6800000000000007E-002    -3.9196517471890502     
   7.7099999999999988E-002    -4.1003824386170749     
   7.7399999999999997E-002    -4.0947329313354857     
   7.7700000000000005E-002    -3.9025670240668831     
   7.8000000000000014E-002    -3.5328943567885744     
   7.8299999999999995E-002    -3.0029430972628788     
   7.8600000000000003E-002    -2.3378195379863627     
   7.8900000000000012E-002    -1.5692026500438685     
   7.9199999999999993E-002   -0.73354642038293250     
   7.9500000000000001E-002    0.12967102011221021     
   7.9800000000000010E-002    0.98044749810304310     
   8.0100000000000018E-002     1.7800640519061304     
   8.0399999999999999E-002     2.4929656715048907     
   8.0700000000000008E-002     3.0888598535166523     
   8.1000000000000003E-002     3.5439802926131421     
   8.1299999999999997E-002     3.8419675337140404     
   8.1600000000000006E-002     3.9743229114622807     
   8.1900000000000014E-002     3.9404497415626736     
   8.2199999999999995E-002     3.7472033038851436     
   8.2500000000000004E-002     3.4082190636338794     
   8.2799999999999999E-002     2.9424540772144709     
   8.3100000000000007E-002     2.3729724306653353     
   8.3400000000000002E-002     1.7260348795050788     
   8.3700000000000011E-002     1.0295445815715478     
   8.4000000000000005E-002    0.31163006848050578     
   8.4300000000000000E-002   -0.40033966208498217     
   8.4599999999999995E-002    -1.0803304650722687     
   8.4900000000000003E-002    -1.7040343565181999     
   8.5199999999999998E-002    -2.2500937239312009     
   8.5500000000000007E-002    -2.7003788385894723     
   8.5800000000000001E-002    -3.0392967363680725     
   8.6100000000000010E-002    -3.2547889294865229     
   8.6399999999999991E-002    -3.3390563581942132     
   8.6699999999999999E-002    -3.2884364642119976     
   8.7000000000000008E-002    -3.1032672331709392     
   8.7300000000000003E-002    -2.7886425484332804     
   8.7599999999999997E-002    -2.3552725755943982     
   8.7900000000000006E-002    -1.8190742659702437     
   8.8200000000000014E-002    -1.2006033023934766     
   8.8499999999999995E-002   -0.52519175750732927     
   8.8800000000000004E-002    0.17774333979226320     
   8.9100000000000013E-002    0.87629384851861758     
   8.9399999999999993E-002     1.5376944793070351     
   8.9700000000000002E-002     2.1295736643977321     
   9.0000000000000011E-002     2.6219043437973255     
   9.0299999999999991E-002     2.9891512083552101     
   9.0600000000000000E-002     3.2114056231251737     
   9.0900000000000009E-002     3.2756392223952844     
   9.1200000000000017E-002     3.1763255607856564     
   9.1499999999999998E-002     2.9158663305966002     
   9.1800000000000007E-002     2.5041475714313179     
   9.2100000000000001E-002     1.9573405509548230     
   9.2399999999999996E-002     1.2972309123407086     
   9.2700000000000005E-002    0.55001323661621626     
   9.3000000000000013E-002   -0.25521084670930638     
   9.3300000000000008E-002    -1.0878717193227203     
   9.3600000000000003E-002    -1.9173957624839204     
   9.3899999999999997E-002    -2.7136105264373924     
   9.4200000000000006E-002    -3.4477724369482843     
   9.4500000000000001E-002    -4.0941112163215791     
   9.4800000000000009E-002    -4.6303229768669496     
   9.5100000000000004E-002    -5.0375689474894614     
   9.5399999999999999E-002    -5.3018320397617344     
   9.5699999999999993E-002    -5.4153506582532884     
   9.6000000000000002E-002    -5.3763251061133417     
   9.6300000000000011E-002    -5.1890813731667436     
   9.6600000000000005E-002    -4.8643724916808395     
   9.6900000000000000E-002    -4.4188022986793811     
   9.7200000000000009E-002    -3.8737743527132693     
   9.7499999999999989E-002    -3.2533153706791822     
   9.7799999999999998E-002    -2.5824127213376133     
   9.8100000000000007E-002    -1.8849604151710260     
   9.8400000000000015E-002    -1.1807663521778622     
   9.8699999999999996E-002   -0.48445345847511589     
   9.9000000000000005E-002    0.19652893559292117     
   9.9300000000000013E-002    0.86248056559017883     
   9.9599999999999994E-002     1.5201321109634165     
   9.9900000000000003E-002     2.1818336288087039     
  0.10020000000000001          2.8634268151856759     
  0.10049999999999999          3.5804382524046190     
  0.10080000000000000          4.3448031251318326     
  0.10110000000000001          5.1614724034316737     
  0.10140000000000000          6.0255744908060649     
  0.10170000000000000          6.9207204814912586     
  0.10200000000000001          7.8179796794812830     
  0.10230000000000002          8.6764182390095925     
  0.10260000000000000          9.4452556300611263     
  0.10290000000000001          10.067488735911581     
  0.10320000000000000          10.484095370835234     
  0.10350000000000001          10.638768625524904     
  0.10380000000000000          10.482831146309849     
  0.10410000000000001          9.9802188901964541     
  0.10440000000000001          9.1110041029627240     
  0.10470000000000000          7.8739521598833981     
  0.10500000000000000          6.2877581049446860     
  0.10530000000000000          4.3908106900499888     
  0.10560000000000000          2.2388900370929434     
  0.10590000000000001         -9.7079355863414207E-002
  0.10620000000000000         -2.5351041749831182     
  0.10650000000000001         -4.9873520922168666     
  0.10679999999999999         -7.3643147211385838     
  0.10710000000000000         -9.5787826104951250     
  0.10740000000000001         -11.549963967543533     
  0.10770000000000000         -13.207596282187467     
  0.10800000000000000         -14.493690509980581     
  0.10830000000000001         -15.363846079739460     
  0.10859999999999999         -15.787946870539827     
  0.10890000000000000         -15.751198818966600     
  0.10920000000000001         -15.253451606538079     
  0.10950000000000001         -14.307895055922756     
  0.10979999999999999         -12.940627868600870     
  0.11009999999999999         -11.190309939524752     
  0.11040000000000001         -9.1074340115563714     
  0.11070000000000001         -6.7528925425639983     
  0.11100000000000000         -4.1965220339631628     
  0.11130000000000000         -1.5171403254665989     
  0.11160000000000002          1.1996409251057889     
  0.11190000000000001          3.8646692071984177     
  0.11220000000000001          6.3865526283438783     
  0.11250000000000000          8.6755616185222664     
  0.11280000000000000          10.647853254314668     
  0.11309999999999999          12.229273267200199     
  0.11340000000000001          13.359317345568627     
  0.11369999999999998          13.994484986910322     
  0.11400000000000000          14.111934686493953     
  0.11430000000000000          13.711335437095869     
  0.11460000000000002          12.814755700645321     
  0.11489999999999999          11.467220363717360     
  0.11520000000000001          9.7353863162580794     
  0.11550000000000001          7.7033684966831260     
  0.11580000000000000          5.4687712261919614     
  0.11609999999999999          3.1385149583083773     
  0.11640000000000002         0.82278147118597644     
  0.11670000000000001         -1.3705458112166156     
  0.11700000000000001         -3.3411187030771003     
  0.11730000000000000         -5.0023172892153980     
  0.11760000000000000         -6.2847277216717998     
  0.11789999999999999         -7.1404168870395495     
  0.11820000000000001         -7.5451741966532495     
  0.11850000000000001         -7.4996309886592627     
  0.11880000000000000         -7.0303036393688956     
  0.11910000000000000         -6.1862237125021142     
  0.11940000000000002         -5.0364648863948318     
  0.11970000000000001         -3.6672532309450929     
  0.12000000000000001         -2.1750218943586077     
  0.12030000000000000        -0.66106182022599569     
  0.12060000000000000         0.77460887483169349     
  0.12089999999999999          2.0405496364190512     
  0.12119999999999999          3.0583687848295824     
  0.12150000000000001          3.7680793606037071     
  0.12180000000000001          4.1322706960293090     
  0.12210000000000000          4.1370834412256663     
  0.12239999999999999          3.7929134586374502     
  0.12270000000000002          3.1333242060342243     
  0.12300000000000001          2.2116855285273971     
  0.12330000000000001          1.0976976858402168     
  0.12360000000000000        -0.12882568234788039     
  0.12390000000000000         -1.3831554217478015     
  0.12419999999999999         -2.5806226761544977     
  0.12450000000000001         -3.6441235074652525     
  0.12480000000000001         -4.5080564271962373     
  0.12509999999999999         -5.1212621097162980     
  0.12540000000000001         -5.4523001487785621     
  0.12570000000000003         -5.4898479327821406     
  0.12600000000000000         -5.2423189808242086     
  0.12630000000000002         -4.7373957073225732     
  0.12659999999999999         -4.0187037053316663     
  0.12690000000000001         -3.1434653394523799     
  0.12719999999999998         -2.1772650921418730     
  0.12750000000000000         -1.1879556816836327     
  0.12780000000000002        -0.24268466847757253     
  0.12809999999999999         0.59837074649067112     
  0.12840000000000001          1.2863381075298399     
  0.12869999999999998          1.7859571560332128     
  0.12900000000000000          2.0793360531241234     
  0.12930000000000003          2.1655881867169224     
  0.12959999999999999          2.0600633146618477     
  0.12990000000000002          1.7937786983032549     
  0.13019999999999998          1.4092792885957977     
  0.13050000000000000         0.95649701930052089     
  0.13080000000000003         0.48897628943391780     
  0.13109999999999999          5.8237556327254580E-002
  0.13140000000000002        -0.28974273291037678     
  0.13169999999999998        -0.51870820973087817     
  0.13200000000000001        -0.60577902653602322     
  0.13229999999999997        -0.54156210058486920     
  0.13260000000000000        -0.33099006373168294     
  0.13290000000000002          6.7637811238610013E-003
  0.13319999999999999         0.44228652541915459     
  0.13350000000000001         0.93792630901626950     
  0.13380000000000003          1.4515063592061566     
  0.13410000000000000          1.9411988128438793     
  0.13440000000000002          2.3685013299246975     
  0.13469999999999999          2.7027703900428293     
  0.13500000000000001          2.9224826540249751     
  0.13529999999999998          3.0167677416550305     
  0.13560000000000000          2.9871828580435178     
  0.13590000000000002          2.8454246737252333     
  0.13619999999999999          2.6113390472324483     
  0.13650000000000001          2.3118019167885109     
  0.13680000000000003          1.9766450426157327     
  0.13710000000000000          1.6357036562408673     
  0.13740000000000002          1.3160410548234331     
  0.13769999999999999          1.0392568496332366     
  0.13800000000000001         0.82025825119583828     
  0.13829999999999998         0.66616104683150823     
  0.13860000000000000         0.57559406757087928     
  0.13890000000000002         0.54096673843345044     
  0.13919999999999999         0.54922100858292389     
  0.13950000000000001         0.58293962248765041     
  0.13979999999999998         0.62382690282864317     
  0.14010000000000000         0.65409719307958269     
  0.14040000000000002         0.65829909305641188     
  0.14069999999999999         0.62506267955334271     
  0.14100000000000001         0.54739768758433804     
  0.14130000000000004         0.42360232218088001     
  0.14160000000000000         0.25642261794770249     
  0.14189999999999997          5.2148912498553024E-002
  0.14219999999999999        -0.17929938905625065     
  0.14250000000000002        -0.42686897615535457     
  0.14279999999999998        -0.67953817304257669     
  0.14310000000000000        -0.92642482397356218     
  0.14339999999999997         -1.1588369187659922     
  0.14369999999999999         -1.3702195382526412     
  0.14400000000000002         -1.5564817321480433     
  0.14429999999999998         -1.7162380506492383     
  0.14460000000000001         -1.8499417800290985     
  0.14490000000000003         -1.9598954626488734     
  0.14520000000000000         -2.0494979840567282     
  0.14550000000000002         -2.1223840108563934     
  0.14579999999999999         -2.1822368701728436     
  0.14610000000000001         -2.2322375306139008     
  0.14640000000000003         -2.2748457889123586     
  0.14670000000000000         -2.3118160309504958     
  0.14699999999999996         -2.3435190933392391     
  0.14729999999999999         -2.3693828776526686     
  0.14760000000000001         -2.3887965496252264     
  0.14789999999999998         -2.4000501263188312     
  0.14820000000000000         -2.4005094698514995     