  -1.4999999999999999E-002     0.0000000000000000     
  -1.4700000000000000E-002     0.0000000000000000     
  -1.4400000000000000E-002     0.0000000000000000     
  -1.4100000000000000E-002     0.0000000000000000     
  -1.3800000000000000E-002     0.0000000000000000     
  -1.3500000000000000E-002     0.0000000000000000     
  -1.3200000000000000E-002     0.0000000000000000     
  -1.2899999999999998E-002    -4.0836719665314347E-035
  -1.2600000000000000E-002     2.3564999793577565E-034
  -1.2299999999999998E-002    -3.5279215636786813E-033
  -1.2000000000000000E-002     1.3924184326309413E-031
  -1.1699999999999999E-002     7.7454075092065050E-032
  -1.1399999999999999E-002    -3.0331458657092425E-029
  -1.1099999999999999E-002     2.2137098596561111E-028
  -1.0799999999999999E-002     2.3554250331232224E-027
  -1.0499999999999999E-002    -6.8962337430961471E-026
  -1.0199999999999999E-002     7.8635050330156566E-025
  -9.8999999999999991E-003    -5.3717538561288164E-024
  -9.5999999999999992E-003     2.3634981117514402E-023
  -9.2999999999999992E-003    -6.4381437586434514E-023
  -8.9999999999999993E-003     5.2315178952354961E-023
  -8.6999999999999994E-003     5.5006521187656831E-022
  -8.3999999999999995E-003    -3.8721818891706076E-021
  -8.0999999999999996E-003     1.5379930687911833E-020
  -7.7999999999999988E-003    -4.3894403828611769E-020
  -7.4999999999999997E-003     9.8571229726474430E-020
  -7.1999999999999998E-003    -1.9362010468484786E-019
  -6.8999999999999981E-003     4.1943245029842859E-019
  -6.5999999999999982E-003    -1.2692844549297038E-018
  -6.3000000000000000E-003     4.0497575786417221E-018
  -6.0000000000000001E-003    -8.2715629344301862E-018
  -5.6999999999999985E-003    -2.1088109449202385E-018
  -5.3999999999999986E-003     8.7401088044990080E-017
  -5.1000000000000004E-003    -3.6854490885307293E-016
  -4.7999999999999987E-003     9.3960020174115770E-016
  -4.5000000000000005E-003    -1.5227091175758060E-015
  -4.1999999999999989E-003     8.3408986030378100E-016
  -3.8999999999999990E-003     3.7858832144547702E-015
  -3.5999999999999990E-003    -1.5121418521632166E-014
  -3.2999999999999991E-003     3.1913131805141187E-014
  -2.9999999999999992E-003    -4.2553474985254983E-014
  -2.6999999999999993E-003     2.2295950215201962E-014
  -2.3999999999999994E-003     5.4822926797218341E-014
  -2.0999999999999977E-003    -1.8320872705208935E-013
  -1.7999999999999995E-003     2.9388801505228490E-013
  -1.4999999999999979E-003    -2.7776777189111868E-013
  -1.1999999999999997E-003     9.1741975886787397E-014
  -8.9999999999999976E-004     1.5647861695625154E-013
  -5.9999999999999810E-004    -3.6884536223913411E-013
  -2.9999999999999992E-004     8.6983865206155531E-013
   0.0000000000000000         -2.4433408855190075E-012
   3.0000000000000165E-004     5.1239273241021621E-012
   5.9999999999999984E-004    -6.2527327066019822E-012
   9.0000000000000149E-004     8.0196212084299168E-013
   1.2000000000000031E-003     1.3104194812596504E-011
   1.5000000000000013E-003    -2.6280897597041886E-011
   1.8000000000000030E-003     1.7838697533023584E-011
   2.1000000000000012E-003     2.7805542590630949E-011
   2.3999999999999994E-003    -7.4717065867702104E-011
   2.7000000000000010E-003    -4.6852771662386772E-011
   2.9999999999999992E-003     6.4165861513032496E-010
   3.3000000000000008E-003    -1.5713010892426382E-009
   3.6000000000000025E-003     5.4555981954251820E-010
   3.9000000000000007E-003     7.8298452166336574E-009
   4.2000000000000023E-003    -2.4354463334930188E-008
   4.5000000000000005E-003     2.2002611288485241E-008
   4.7999999999999987E-003     6.2371547926431958E-008
   5.1000000000000004E-003    -2.1555574392095878E-007
   5.4000000000000020E-003     1.0569730335419081E-007
   5.7000000000000037E-003     6.5163152385139256E-007
   5.9999999999999984E-003    -9.5739210337342229E-007
   6.3000000000000000E-003    -1.6885697959878598E-006
   6.6000000000000017E-003     2.9210370939836139E-006
   6.9000000000000034E-003     5.3945559557178058E-006
   7.2000000000000015E-003    -6.2025264924159274E-006
   7.5000000000000032E-003    -1.7636069969739765E-005
   7.8000000000000014E-003     1.1427314348111395E-005
   8.0999999999999996E-003     8.1705795309972018E-005
   8.4000000000000012E-003     1.3560065417550504E-004
   8.7000000000000029E-003     1.5389853797387332E-004
   9.0000000000000011E-003     2.0709363161586225E-004
   9.2999999999999992E-003     3.6907015601173043E-004
   9.6000000000000009E-003     6.2856037402525544E-004
   9.8999999999999991E-003     9.4704085495322943E-004
   1.0200000000000001E-002     1.3869222020730376E-003
   1.0500000000000002E-002     2.0897244103252888E-003
   1.0800000000000004E-002     3.1578387133777142E-003
   1.1099999999999999E-002     4.6568396501243114E-003
   1.1400000000000000E-002     6.7203305661678314E-003
   1.1700000000000002E-002     9.5992377027869225E-003
   1.2000000000000004E-002     1.3570914976298809E-002
   1.2300000000000002E-002     1.8865313380956650E-002
   1.2600000000000000E-002     2.5767296552658081E-002
   1.2900000000000002E-002     3.4685336053371429E-002
   1.3200000000000000E-002     4.6018283814191818E-002
   1.3500000000000002E-002     6.0021512210369110E-002
   1.3800000000000003E-002     7.6879553496837616E-002
   1.4100000000000001E-002     9.6778914332389832E-002
   1.4400000000000000E-002    0.11969030648469925     
   1.4700000000000001E-002    0.14510981738567352     
   1.4999999999999999E-002    0.17212659120559692     
   1.5300000000000001E-002    0.19953195750713348     
   1.5600000000000003E-002    0.22559733688831329     
   1.5899999999999997E-002    0.24784494936466217     
   1.6199999999999999E-002    0.26315850019454956     
   1.6500000000000001E-002    0.26808047294616699     
   1.6800000000000002E-002    0.25890842080116272     
   1.7100000000000004E-002    0.23166789114475250     
   1.7400000000000006E-002    0.18252499401569366     
   1.7700000000000000E-002    0.10839531570672989     
   1.8000000000000002E-002     7.2734467685222626E-003
   1.8300000000000004E-002   -0.12139691412448883     
   1.8600000000000005E-002   -0.27633190155029297     
   1.8900000000000000E-002   -0.45386520028114319     
   1.9200000000000002E-002   -0.64770662784576416     
   1.9500000000000003E-002   -0.84935182332992554     
   1.9799999999999998E-002    -1.0482673645019531     
   2.0100000000000000E-002    -1.2320053577423096     
   2.0400000000000001E-002    -1.3869904279708862     
   2.0700000000000003E-002    -1.4998224973678589     
   2.0999999999999998E-002    -1.5584642887115479     
   2.1299999999999999E-002    -1.5528872013092041     
   2.1600000000000001E-002    -1.4760186672210693     
   2.1900000000000003E-002    -1.3250479698181152     
   2.2200000000000004E-002    -1.1020387411117554     
   2.2500000000000006E-002   -0.81361740827560425     
   2.2800000000000001E-002   -0.47095596790313721     
   2.3100000000000002E-002    -8.9266985654830933E-002
   2.3400000000000004E-002    0.31320863962173462     
   2.3699999999999999E-002    0.71641623973846436     
   2.4000000000000000E-002     1.1002956628799438     
   2.4300000000000002E-002     1.4457514286041260     
   2.4599999999999997E-002     1.7357372045516968     
   2.4900000000000005E-002     1.9565249681472778     
   2.5200000000000000E-002     2.0984375476837158     
   2.5499999999999995E-002     2.1560549736022949     
   2.5800000000000003E-002     2.1279528141021729     
   2.6099999999999998E-002     2.0165119171142578     
   2.6400000000000007E-002     1.8274780511856079     
   2.6700000000000002E-002     1.5695254802703857     
   2.6999999999999996E-002     1.2530285120010376     
   2.7300000000000005E-002    0.88982671499252319     
   2.7600000000000000E-002    0.49353864789009094     
   2.7900000000000008E-002     7.8702926635742188E-002
   2.8200000000000003E-002   -0.33962985873222351     
   2.8499999999999998E-002   -0.74515789747238159     
   2.8800000000000006E-002    -1.1207495927810669     
   2.9100000000000001E-002    -1.4483181238174438     
   2.9400000000000003E-002    -1.7098184823989868     
   2.9700000000000004E-002    -1.8877793550491333     
   3.0000000000000006E-002    -1.9657515287399292     
   3.0300000000000001E-002    -1.9301447868347168     
   3.0600000000000002E-002    -1.7714799642562866     
   3.0900000000000004E-002    -1.4852300882339478     
   3.1199999999999999E-002    -1.0732818841934204     
   3.1500000000000007E-002   -0.54485768079757690     
   3.1800000000000002E-002     8.3207428455352783E-002
   3.2099999999999997E-002    0.78689199686050415     
   3.2400000000000005E-002     1.5355639457702637     
   3.2700000000000000E-002     2.2935693264007568     
   3.3000000000000002E-002     3.0219690799713135     
   3.3300000000000003E-002     3.6810572147369385     
   3.3599999999999998E-002     4.2330226898193359     
   3.3900000000000000E-002     4.6432867050170898     
   3.4200000000000001E-002     4.8840088844299316     
   3.4500000000000003E-002     4.9355301856994629     
   3.4799999999999998E-002     4.7874612808227539     
   3.5099999999999999E-002     4.4395470619201660     
   3.5400000000000001E-002     3.9014918804168701     
   3.5699999999999996E-002     3.1934432983398438     
   3.6000000000000004E-002     2.3445403575897217     
   3.6299999999999999E-002     1.3906614780426025     
   3.6600000000000008E-002    0.37402042746543884     
   3.6900000000000002E-002   -0.65980625152587891     
   3.7199999999999997E-002    -1.6638995409011841     
   3.7500000000000006E-002    -2.5926077365875244     
   3.7800000000000000E-002    -3.4046394824981689     
   3.8100000000000009E-002    -4.0643501281738281     
   3.8400000000000004E-002    -4.5455675125122070     
   3.8699999999999998E-002    -4.8334822654724121     
   3.9000000000000007E-002    -4.9259872436523438     
   3.9300000000000002E-002    -4.8357043266296387     
   3.9600000000000003E-002    -4.5892276763916016     
   3.9900000000000005E-002    -4.2271099090576172     
   4.0200000000000000E-002    -3.8019149303436279     
   4.0500000000000001E-002    -3.3735504150390625     
   4.0800000000000003E-002    -3.0062780380249023     
   4.1100000000000005E-002    -2.7626640796661377     
   4.1399999999999999E-002    -2.6969647407531738     
   4.1700000000000008E-002    -2.8491938114166260     
   4.2000000000000003E-002    -3.2400169372558594     
   4.2299999999999997E-002    -3.8658566474914551     
   4.2600000000000006E-002    -4.6958789825439453     
   4.2900000000000001E-002    -5.6725397109985352     
   4.3200000000000002E-002    -6.7133078575134277     
   4.3500000000000004E-002    -7.7159671783447266     
   4.3799999999999999E-002    -8.5655384063720703     
   4.4100000000000000E-002    -9.1438455581665039     
   4.4400000000000002E-002    -9.3406810760498047     
   4.4700000000000004E-002    -9.0632190704345703     
   4.4999999999999998E-002    -8.2469358444213867     
   4.5300000000000000E-002    -6.8631424903869629     
   4.5600000000000002E-002    -4.9235668182373047     
   4.5899999999999996E-002    -2.4838514328002930     
   4.6200000000000005E-002    0.36044025421142578     
   4.6500000000000000E-002     3.4791073799133301     
   4.6799999999999994E-002     6.7144422531127930     
   4.7100000000000003E-002     9.8944978713989258     
   4.7399999999999998E-002     12.844829559326172     
   4.7700000000000006E-002     15.401484489440918     
   4.8000000000000001E-002     17.422784805297852     
   4.8300000000000010E-002     18.798801422119141     
   4.8600000000000004E-002     19.458848953247070     
   4.8899999999999999E-002     19.375080108642578     
   4.9200000000000008E-002     18.562276840209961     
   4.9500000000000002E-002     17.075294494628906     
   4.9800000000000011E-002     15.003040313720703     
   5.0100000000000006E-002     12.461278915405273     
   5.0400000000000000E-002     9.5842809677124023     
   5.0700000000000009E-002     6.5144791603088379     
   5.1000000000000004E-002     3.3941402435302734     
   5.1299999999999998E-002    0.35964864492416382     
   5.1600000000000007E-002    -2.4662506580352783     
   5.1900000000000002E-002    -4.9804453849792480     
   5.2200000000000010E-002    -7.0999679565429688     
   5.2500000000000005E-002    -8.7643032073974609     
   5.2800000000000000E-002    -9.9374504089355469     
   5.3099999999999994E-002    -10.606879234313965     
   5.3400000000000003E-002    -10.781497001647949     
   5.3699999999999998E-002    -10.490545272827148     
   5.4000000000000006E-002    -9.7824983596801758     
   5.4300000000000001E-002    -8.7217531204223633     
   5.4599999999999996E-002    -7.3839502334594727     
   5.4900000000000004E-002    -5.8554587364196777     
   5.5199999999999999E-002    -4.2275638580322266     
   5.5499999999999994E-002    -2.5909490585327148     
   5.5800000000000002E-002    -1.0335437059402466     
   5.6099999999999997E-002    0.36501365900039673     
   5.6400000000000006E-002     1.5393790006637573     
   5.6700000000000000E-002     2.4408385753631592     
   5.6999999999999995E-002     3.0381550788879395     
   5.7300000000000004E-002     3.3215324878692627     
   5.7599999999999998E-002     3.3026146888732910     
   5.7900000000000007E-002     3.0109908580780029     
   5.8200000000000002E-002     2.4920470714569092     
   5.8499999999999996E-002     1.8040056228637695     
   5.8800000000000005E-002     1.0115842819213867     
   5.9100000000000000E-002    0.18043264746665955     
   5.9400000000000008E-002   -0.62727415561676025     
   5.9700000000000003E-002    -1.3563591241836548     
   6.0000000000000012E-002    -1.9649150371551514     
   6.0300000000000006E-002    -2.4260916709899902     
   6.0600000000000001E-002    -2.7270667552947998     
   6.0900000000000010E-002    -2.8703010082244873     
   6.1200000000000004E-002    -2.8733179569244385     
   6.1500000000000013E-002    -2.7634425163269043     
   6.1800000000000008E-002    -2.5746719837188721     
   6.2100000000000002E-002    -2.3456962108612061     
   6.2399999999999997E-002    -2.1142487525939941     
   6.2700000000000006E-002    -1.9139586687088013     
   6.3000000000000000E-002    -1.7714700698852539     
   6.3300000000000009E-002    -1.7044979333877563     
   6.3600000000000004E-002    -1.7214423418045044     
   6.3899999999999998E-002    -1.8195010423660278     
   6.4199999999999993E-002    -1.9868304729461670     
   6.4500000000000002E-002    -2.2059776782989502     
   6.4800000000000010E-002    -2.4522991180419922     
   6.5100000000000005E-002    -2.7008786201477051     
   6.5400000000000000E-002    -2.9286804199218750     
   6.5700000000000008E-002    -3.1142172813415527     
   6.5999999999999989E-002    -3.2431938648223877     
   6.6299999999999998E-002    -3.3081800937652588     
   6.6600000000000006E-002    -3.3074150085449219     
   6.6900000000000001E-002    -3.2465612888336182     
   6.7199999999999996E-002    -3.1332340240478516     
   6.7500000000000004E-002    -2.9766261577606201     
   6.7800000000000013E-002    -2.7852990627288818     
   6.8099999999999994E-002    -2.5615193843841553     
   6.8400000000000002E-002    -2.3044970035552979     
   6.8700000000000011E-002    -2.0071530342102051     
   6.8999999999999992E-002    -1.6550190448760986     
   6.9300000000000000E-002    -1.2347459793090820     
   6.9600000000000009E-002   -0.73294603824615479     
   6.9900000000000004E-002   -0.13815407454967499     
   7.0199999999999999E-002    0.55015629529953003     
   7.0500000000000007E-002     1.3251614570617676     
   7.0800000000000016E-002     2.1713178157806396     
   7.1099999999999997E-002     3.0641043186187744     
   7.1400000000000005E-002     3.9776654243469238     
   7.1700000000000000E-002     4.8861660957336426     
   7.1999999999999995E-002     5.7722320556640625     
   7.2300000000000003E-002     6.6334671974182129     
   7.2600000000000012E-002     7.4802966117858887     
   7.2900000000000006E-002     8.3422183990478516     
   7.3200000000000001E-002     9.2618427276611328     
   7.3499999999999996E-002     10.284990310668945     
   7.3800000000000004E-002     11.456712722778320     
   7.4099999999999999E-002     12.803037643432617     
   7.4400000000000008E-002     14.319751739501953     
   7.4700000000000003E-002     15.966121673583984     
   7.5000000000000011E-002     17.650592803955078     
   7.5299999999999992E-002     19.232452392578125     
   7.5600000000000001E-002     20.530775070190430     
   7.5900000000000009E-002     21.329063415527344     
   7.6200000000000004E-002     21.397085189819336     
   7.6499999999999999E-002     20.515003204345703     
   7.6800000000000007E-002     18.495786666870117     
   7.7099999999999988E-002     15.215160369873047     
   7.7399999999999997E-002     10.628875732421875     
   7.7700000000000005E-002     4.7905931472778320     
   7.8000000000000014E-002    -2.1332390308380127     
   7.8299999999999995E-002    -9.8740444183349609     
   7.8600000000000003E-002    -18.069274902343750     
   7.8900000000000012E-002    -26.277488708496094     
   7.9199999999999993E-002    -34.017372131347656     
   7.9500000000000001E-002    -40.799602508544922     
   7.9800000000000010E-002    -46.160728454589844     
   8.0100000000000018E-002    -49.707134246826172     
   8.0399999999999999E-002    -51.145370483398438     
   8.0700000000000008E-002    -50.308738708496094     
   8.1000000000000003E-002    -47.175662994384766     
   8.1299999999999997E-002    -41.868598937988281     
   8.1600000000000006E-002    -34.653579711914062     
   8.1900000000000014E-002    -25.919567108154297     
   8.2199999999999995E-002    -16.144868850708008     
   8.2500000000000004E-002    -5.8682351112365723     
   8.2799999999999999E-002     4.3512268066406250     
   8.3100000000000007E-002     13.980747222900391     
   8.3400000000000002E-002     22.541944503784180     
   8.3700000000000011E-002     29.644527435302734     
   8.4000000000000005E-002     35.010860443115234     
   8.4300000000000000E-002     38.482112884521484     
   8.4599999999999995E-002     40.025672912597656     
   8.4900000000000003E-002     39.721755981445312     
   8.5199999999999998E-002     37.750694274902344     
   8.5500000000000007E-002     34.373832702636719     
   8.5800000000000001E-002     29.900247573852539     
   8.6100000000000010E-002     24.667490005493164     
   8.6399999999999991E-002     19.018634796142578     
   8.6699999999999999E-002     13.272828102111816     
   8.7000000000000008E-002     7.7160902023315430     
   8.7300000000000003E-002     2.5857851505279541     
   8.7599999999999997E-002    -1.9349731206893921     
   8.7900000000000006E-002    -5.7191710472106934     
   8.8200000000000014E-002    -8.6967163085937500     
   8.8499999999999995E-002    -10.847632408142090     
   8.8800000000000004E-002    -12.194206237792969     
   8.9100000000000013E-002    -12.797835350036621     
   8.9399999999999993E-002    -12.748244285583496     
   8.9700000000000002E-002    -12.151573181152344     
   9.0000000000000011E-002    -11.129538536071777     
   9.0299999999999991E-002    -9.8067054748535156     
   9.0600000000000000E-002    -8.3024415969848633     
   9.0900000000000009E-002    -6.7296876907348633     
   9.1200000000000017E-002    -5.1849217414855957     
   9.1499999999999998E-002    -3.7460515499114990     
   9.1800000000000007E-002    -2.4726600646972656     
   9.2100000000000001E-002    -1.3995990753173828     
   9.2399999999999996E-002   -0.54519128799438477     
   9.2700000000000005E-002     9.2541970312595367E-002
   9.3000000000000013E-002    0.53053587675094604     
   9.3300000000000008E-002    0.79168605804443359     
   9.3600000000000003E-002    0.90934967994689941     
   9.3899999999999997E-002    0.91638725996017456     
   9.4200000000000006E-002    0.84151911735534668     
   9.4500000000000001E-002    0.71473890542984009     
   9.4800000000000009E-002    0.55754023790359497     
   9.5100000000000004E-002    0.38536471128463745     
   9.5399999999999999E-002    0.21272963285446167     
   9.5699999999999993E-002     4.8506334424018860E-002
   9.6000000000000002E-002   -0.10011097043752670     
   9.6300000000000011E-002   -0.22745658457279205     
   9.6600000000000005E-002   -0.32833197712898254     
   9.6900000000000000E-002   -0.39729914069175720     
   9.7200000000000009E-002   -0.43181163072586060     
   9.7499999999999989E-002   -0.43159908056259155     
   9.7799999999999998E-002   -0.39532843232154846     
   9.8100000000000007E-002   -0.32737931609153748     
   9.8400000000000015E-002   -0.23581397533416748     
   9.8699999999999996E-002   -0.12667812407016754     
   9.9000000000000005E-002    -1.0436709970235825E-002
   9.9300000000000013E-002    0.10177680104970932     
   9.9599999999999994E-002    0.20311810076236725     
   9.9900000000000003E-002    0.28632438182830811     
  0.10020000000000001         0.34845668077468872     
  0.10049999999999999         0.38856959342956543     
  0.10080000000000000         0.40799844264984131     
  0.10110000000000001         0.41310119628906250     
  0.10140000000000000         0.40606379508972168     
  0.10170000000000000         0.39158120751380920     
  0.10200000000000001         0.37576428055763245     
  0.10230000000000002         0.35697361826896667     
  0.10260000000000000         0.33670824766159058     
  0.10290000000000001         0.31570175290107727     
  0.10320000000000000         0.28969827294349670     
  0.10350000000000001         0.25855964422225952     
  0.10380000000000000         0.22217915952205658     
  0.10410000000000001         0.18053761124610901     
  0.10440000000000001         0.13676418364048004     
  0.10470000000000000          9.3015916645526886E-002
  0.10500000000000000          5.4558187723159790E-002
  0.10530000000000000          2.5801628828048706E-002
  0.10560000000000000          7.4751880019903183E-003
  0.10590000000000001          3.2621158752590418E-003
  0.10620000000000000          1.2796498835086823E-002
  0.10650000000000001          3.1134167686104774E-002
  0.10679999999999999          5.6602600961923599E-002
  0.10710000000000000          8.4740340709686279E-002
  0.10740000000000001         0.10886872559785843     
  0.10770000000000000         0.12618692219257355     
  0.10800000000000000         0.13371607661247253     
  0.10830000000000001         0.13068220019340515     
  0.10859999999999999         0.11765898019075394     
  0.10890000000000000          9.6088707447052002E-002
  0.10920000000000001          7.1216329932212830E-002
  0.10950000000000001          4.5909121632575989E-002
  0.10979999999999999          2.2156815975904465E-002
  0.11009999999999999          5.4870564490556717E-003
  0.11040000000000001         -4.2532617226243019E-003
  0.11070000000000001         -8.6707267910242081E-003
  0.11100000000000000         -5.8528166264295578E-003
  0.11130000000000000          4.2254570871591568E-005
  0.11160000000000002          5.0927819684147835E-003
  0.11190000000000001          7.9440996050834656E-003
  0.11220000000000001          5.4049124009907246E-003
  0.11250000000000000         -3.8789613172411919E-003
  0.11280000000000000         -2.1042410284280777E-002
  0.11309999999999999         -4.4936053454875946E-002
  0.11340000000000001         -7.1007497608661652E-002
  0.11369999999999998         -9.8575398325920105E-002
  0.11400000000000000        -0.12287505716085434     
  0.11430000000000000        -0.13747127354145050     
  0.11460000000000002        -0.14153134822845459     
  0.11489999999999999        -0.13198168575763702     
  0.11520000000000001        -0.10640846192836761     
  0.11550000000000001         -6.8045929074287415E-002
  0.11580000000000000         -1.9923582673072815E-002
  0.11609999999999999          3.2598979771137238E-002
  0.11640000000000002          8.3035692572593689E-002
  0.11670000000000001         0.12400402873754501     
  0.11700000000000001         0.14755620062351227     
  0.11730000000000000         0.14952327311038971     
  0.11760000000000000         0.12751124799251556     
  0.11789999999999999          8.0026529729366302E-002
  0.11820000000000001          1.2531274929642677E-002
  0.11850000000000001         -6.6969469189643860E-002
  0.11880000000000000        -0.15049694478511810     
  0.11910000000000000        -0.22499169409275055     
  0.11940000000000002        -0.27846965193748474     
  0.11970000000000001        -0.30395510792732239     
  0.12000000000000001        -0.29314485192298889     
  0.12030000000000000        -0.24489521980285645     
  0.12060000000000000        -0.16519317030906677     
  0.12089999999999999         -6.1820108443498611E-002
  0.12119999999999999          5.0158210098743439E-002
  0.12150000000000001         0.15510250627994537     
  0.12180000000000001         0.23591250181198120     
  0.12210000000000000         0.27681058645248413     
  0.12239999999999999         0.27164268493652344     
  0.12270000000000002         0.21515367925167084     
  0.12300000000000001         0.11174321174621582     
  0.12330000000000001         -2.1168235689401627E-002
  0.12360000000000000        -0.16634197533130646     
  0.12390000000000000        -0.30025774240493774     
  0.12419999999999999        -0.39608576893806458     
  0.12450000000000001        -0.43207931518554688     
  0.12480000000000001        -0.39286264777183533     
  0.12509999999999999        -0.27367642521858215     
  0.12540000000000001         -7.8891858458518982E-002
  0.12570000000000003         0.17514689266681671     
  0.12600000000000000         0.45839905738830566     
  0.12630000000000002         0.73727357387542725     
  0.12659999999999999         0.97556513547897339     
  0.12690000000000001          1.1344635486602783     
  0.12719999999999998          1.1849302053451538     
  0.12750000000000000          1.1107068061828613     
  0.12780000000000002         0.90467262268066406     
  0.12809999999999999         0.57650846242904663     
  0.12840000000000001         0.15248633921146393     
  0.12869999999999998        -0.33215436339378357     
  0.12900000000000000        -0.83275735378265381     
  0.12930000000000003         -1.3025389909744263     
  0.12959999999999999         -1.6945099830627441     
  0.12990000000000002         -1.9692509174346924     
  0.13019999999999998         -2.1009457111358643     
  0.13050000000000000         -2.0723750591278076     
  0.13080000000000003         -1.8817793130874634     
  0.13109999999999999         -1.5459644794464111     
  0.13140000000000002         -1.0884835720062256     
  0.13169999999999998        -0.54443675279617310     
  0.13200000000000001          4.3259218335151672E-002
  0.13229999999999997         0.63126903772354126     
  0.13260000000000000          1.1776725053787231     
  0.13290000000000002          1.6455636024475098     
  0.13319999999999999          2.0031661987304688     
  0.13350000000000001          2.2291104793548584     
  0.13380000000000003          2.3146183490753174     
  0.13410000000000000          2.2582929134368896     
  0.13440000000000002          2.0681624412536621     
  0.13469999999999999          1.7636739015579224     
  0.13500000000000001          1.3699628114700317     
  0.13529999999999998         0.91521573066711426     
  0.13560000000000000         0.43171152472496033     
  0.13590000000000002         -4.7441486269235611E-002
  0.13619999999999999        -0.49405783414840698     
  0.13650000000000001        -0.88229596614837646     
  0.13680000000000003         -1.1925930976867676     
  0.13710000000000000         -1.4119058847427368     
  0.13740000000000002         -1.5350413322448730     
  0.13769999999999999         -1.5645716190338135     
  0.13800000000000001         -1.5064613819122314     
  0.13829999999999998         -1.3745468854904175     
  0.13860000000000000         -1.1862961053848267     
  0.13890000000000002        -0.95808690786361694     
  0.13919999999999999        -0.70920097827911377     
  0.13950000000000001        -0.45676261186599731     
  0.13979999999999998        -0.21529203653335571     
  0.14010000000000000          3.5202773287892342E-003
  0.14040000000000002         0.19136156141757965     
  0.14069999999999999         0.34216800332069397     
  0.14100000000000001         0.45479229092597961     
  0.14130000000000004         0.52921187877655029     
  0.14160000000000000         0.56701916456222534     
  0.14189999999999997         0.57192373275756836     
  0.14219999999999999         0.54882717132568359     
  0.14250000000000002         0.50324428081512451     
  0.14279999999999998         0.43991783261299133     
  0.14310000000000000         0.36547845602035522     
  0.14339999999999997         0.28644943237304688     
  0.14369999999999999         0.20759354531764984     
  0.14400000000000002         0.13473229110240936     
  0.14429999999999998          7.1138970553874969E-002
  0.14460000000000001          2.0112672820687294E-002
  0.14490000000000003         -1.6673294827342033E-002
  0.14520000000000000         -4.0616635233163834E-002
  0.14550000000000002         -5.2366696298122406E-002
  0.14579999999999999         -5.4847765713930130E-002
  0.14610000000000001         -5.1949646323919296E-002
  0.14640000000000003         -4.6119008213281631E-002
  0.14670000000000000         -4.0195547044277191E-002
  0.14699999999999996         -3.6758363246917725E-002
  0.14729999999999999         -3.6607164889574051E-002
  0.14760000000000001         -3.8955483585596085E-002
  0.14789999999999998         -4.2985048145055771E-002
  0.14820000000000000         -4.7282461076974869E-002