  -1.4999999999999999E-002     0.0000000000000000     
  -1.4700000000000000E-002     0.0000000000000000     
  -1.4400000000000000E-002     0.0000000000000000     
  -1.4100000000000000E-002     0.0000000000000000     
  -1.3800000000000000E-002     0.0000000000000000     
  -1.3500000000000000E-002     0.0000000000000000     
  -1.3200000000000000E-002     0.0000000000000000     
  -1.2899999999999998E-002     0.0000000000000000     
  -1.2600000000000000E-002     0.0000000000000000     
  -1.2299999999999998E-002     0.0000000000000000     
  -1.2000000000000000E-002     0.0000000000000000     
  -1.1699999999999999E-002     0.0000000000000000     
  -1.1399999999999999E-002     0.0000000000000000     
  -1.1099999999999999E-002     0.0000000000000000     
  -1.0799999999999999E-002     0.0000000000000000     
  -1.0499999999999999E-002     0.0000000000000000     
  -1.0199999999999999E-002     0.0000000000000000     
  -9.8999999999999991E-003     0.0000000000000000     
  -9.5999999999999992E-003     0.0000000000000000     
  -9.2999999999999992E-003     0.0000000000000000     
  -8.9999999999999993E-003     0.0000000000000000     
  -8.6999999999999994E-003     0.0000000000000000     
  -8.3999999999999995E-003     0.0000000000000000     
  -8.0999999999999996E-003     0.0000000000000000     
  -7.7999999999999988E-003     0.0000000000000000     
  -7.4999999999999997E-003     0.0000000000000000     
  -7.1999999999999998E-003     0.0000000000000000     
  -6.8999999999999981E-003     0.0000000000000000     
  -6.5999999999999982E-003     0.0000000000000000     
  -6.3000000000000000E-003     0.0000000000000000     
  -6.0000000000000001E-003     0.0000000000000000     
  -5.6999999999999985E-003     0.0000000000000000     
  -5.3999999999999986E-003     0.0000000000000000     
  -5.1000000000000004E-003     0.0000000000000000     
  -4.7999999999999987E-003     0.0000000000000000     
  -4.5000000000000005E-003     0.0000000000000000     
  -4.1999999999999989E-003     0.0000000000000000     
  -3.8999999999999990E-003     0.0000000000000000     
  -3.5999999999999990E-003     0.0000000000000000     
  -3.2999999999999991E-003     0.0000000000000000     
  -2.9999999999999992E-003     0.0000000000000000     
  -2.6999999999999993E-003     0.0000000000000000     
  -2.3999999999999994E-003     0.0000000000000000     
  -2.0999999999999977E-003     0.0000000000000000     
  -1.7999999999999995E-003     0.0000000000000000     
  -1.4999999999999979E-003     0.0000000000000000     
  -1.1999999999999997E-003     0.0000000000000000     
  -8.9999999999999976E-004     0.0000000000000000     
  -5.9999999999999810E-004     0.0000000000000000     
  -2.9999999999999992E-004     0.0000000000000000     
   0.0000000000000000          0.0000000000000000     
   3.0000000000000165E-004     0.0000000000000000     
   5.9999999999999984E-004     0.0000000000000000     
   9.0000000000000149E-004     0.0000000000000000     
   1.2000000000000031E-003     0.0000000000000000     
   1.5000000000000013E-003     0.0000000000000000     
   1.8000000000000030E-003     0.0000000000000000     
   2.1000000000000012E-003     1.0609197042240046E-037
   2.3999999999999994E-003    -1.1487178465089095E-036
   2.7000000000000010E-003     5.9537521646921604E-037
   2.9999999999999992E-003    -1.4328080840144003E-036
   3.3000000000000008E-003    -2.6482237554954549E-035
   3.6000000000000025E-003     6.3115586294073284E-035
   3.9000000000000007E-003     2.1126503343531444E-034
   4.2000000000000023E-003    -1.3423510903112072E-033
   4.5000000000000005E-003     1.4245882159172536E-032
   4.7999999999999987E-003    -1.1615378239444096E-031
   5.1000000000000004E-003     2.1709716159686886E-031
   5.4000000000000020E-003     4.1134628651657895E-030
   5.7000000000000037E-003    -4.3851622283640035E-029
   5.9999999999999984E-003     1.7643132460621720E-028
   6.3000000000000000E-003     2.0861179638054290E-028
   6.6000000000000017E-003    -6.3843949803274998E-027
   6.9000000000000034E-003     3.4426678764750176E-026
   7.2000000000000015E-003    -6.7164067367751954E-026
   7.5000000000000032E-003    -2.5939028462637852E-025
   7.8000000000000014E-003     2.4975849018885627E-024
   8.0999999999999996E-003    -9.3088371495074823E-024
   8.4000000000000012E-003     1.5052998039494844E-023
   8.7000000000000029E-003     3.2229795807018285E-023
   9.0000000000000011E-003    -2.9995806094482245E-022
   9.2999999999999992E-003     1.0340051491822823E-021
   9.6000000000000009E-003    -1.9244890094800373E-021
   9.8999999999999991E-003     2.1455471716814736E-022
   1.0200000000000001E-002     1.0868285678655883E-020
   1.0500000000000002E-002    -3.1162103798071718E-020
   1.0800000000000004E-002    -1.0370066071544672E-020
   1.1099999999999999E-002     4.6015256145106519E-019
   1.1400000000000000E-002    -2.3900624861507717E-018
   1.1700000000000002E-002     8.1689635871521714E-018
   1.2000000000000004E-002    -2.0850329764679117E-017
   1.2300000000000002E-002     3.7016001539502967E-017
   1.2600000000000000E-002    -1.7425585307389094E-017
   1.2900000000000002E-002    -1.8956683386334947E-016
   1.3200000000000000E-002     8.8892349105635380E-016
   1.3500000000000002E-002    -1.4800367623634368E-015
   1.3800000000000003E-002    -8.1000422433872080E-015
   1.4100000000000001E-002     9.0937674057656182E-014
   1.4400000000000000E-002    -5.2520753588206071E-013
   1.4700000000000001E-002     2.2078187802282434E-012
   1.4999999999999999E-002    -6.9213025068182166E-012
   1.5300000000000001E-002     1.4206970669339292E-011
   1.5600000000000003E-002    -4.8310691384834126E-012
   1.5899999999999997E-002    -9.4897499580692823E-011
   1.6199999999999999E-002     3.8992389872483102E-010
   1.6500000000000001E-002    -6.4163691027019354E-010
   1.6800000000000002E-002    -5.5825932765429798E-010
   1.7100000000000004E-002     4.9625548115272977E-009
   1.7400000000000006E-002    -7.1628352138475293E-009
   1.7700000000000000E-002    -1.1608681127484033E-008
   1.8000000000000002E-002     4.4492825423958493E-008
   1.8300000000000004E-002     8.6014333433581669E-009
   1.8600000000000005E-002    -1.7449664824198408E-007
   1.8900000000000000E-002    -3.2439579911169858E-008
   1.9200000000000002E-002     5.3185391379884095E-007
   1.9500000000000003E-002     2.9241607535368530E-007
   1.9799999999999998E-002    -1.3348685570235830E-006
   2.0100000000000000E-002    -1.4214422208169708E-006
   2.0400000000000001E-002     3.7776626413688064E-006
   2.0700000000000003E-002     1.2590293408720754E-005
   2.0999999999999998E-002     1.9617456928244792E-005
   2.1299999999999999E-002     2.5429475499549881E-005
   2.1600000000000001E-002     3.9242419006768614E-005
   2.1900000000000003E-002     6.8906258093193173E-005
   2.2200000000000004E-002     1.1351135617587715E-004
   2.2500000000000006E-002     1.7237743304576725E-004
   2.2800000000000001E-002     2.5786916376091540E-004
   2.3100000000000002E-002     3.9187006768770516E-004
   2.3400000000000004E-002     5.9316423721611500E-004
   2.3699999999999999E-002     8.7840872583910823E-004
   2.4000000000000000E-002     1.2772061163559556E-003
   2.4300000000000002E-002     1.8381549743935466E-003
   2.4599999999999997E-002     2.6173144578933716E-003
   2.4900000000000005E-002     3.6716968752443790E-003
   2.5200000000000000E-002     5.0706719048321247E-003
   2.5499999999999995E-002     6.9045978598296642E-003
   2.5800000000000003E-002     9.2740477994084358E-003
   2.6099999999999998E-002     1.2274302542209625E-002
   2.6400000000000007E-002     1.5993406996130943E-002
   2.6700000000000002E-002     2.0515713840723038E-002
   2.6999999999999996E-002     2.5907667353749275E-002
   2.7300000000000005E-002     3.2188210636377335E-002
   2.7600000000000000E-002     3.9309840649366379E-002
   2.7900000000000008E-002     4.7151330858469009E-002
   2.8200000000000003E-002     5.5505879223346710E-002
   2.8499999999999998E-002     6.4054556190967560E-002
   2.8800000000000006E-002     7.2351887822151184E-002
   2.9100000000000001E-002     7.9829096794128418E-002
   2.9400000000000003E-002     8.5811309516429901E-002
   2.9700000000000004E-002     8.9537158608436584E-002
   3.0000000000000006E-002     9.0196989476680756E-002
   3.0300000000000001E-002     8.6993858218193054E-002
   3.0600000000000002E-002     7.9193115234375000E-002
   3.0900000000000004E-002     6.6214337944984436E-002
   3.1199999999999999E-002     4.7722671180963516E-002
   3.1500000000000007E-002     2.3677531629800797E-002
   3.1800000000000002E-002    -5.5923103354871273E-003
   3.2099999999999997E-002    -3.9326153695583344E-002
   3.2400000000000005E-002    -7.6359525322914124E-002
   3.2700000000000000E-002   -0.11513271182775497     
   3.3000000000000002E-002   -0.15376591682434082     
   3.3300000000000003E-002   -0.19016215205192566     
   3.3599999999999998E-002   -0.22214803099632263     
   3.3900000000000000E-002   -0.24766820669174194     
   3.4200000000000001E-002   -0.26492428779602051     
   3.4500000000000003E-002   -0.27257525920867920     
   3.4799999999999998E-002   -0.26988336443901062     
   3.5099999999999999E-002   -0.25678667426109314     
   3.5400000000000001E-002   -0.23398768901824951     
   3.5699999999999996E-002   -0.20291447639465332     
   3.6000000000000004E-002   -0.16569729149341583     
   3.6299999999999999E-002   -0.12495712190866470     
   3.6600000000000008E-002    -8.3641417324542999E-002
   3.6900000000000002E-002    -4.4836502522230148E-002
   3.7199999999999997E-002    -1.1525706388056278E-002
   3.7500000000000006E-002     1.3677980750799179E-002
   3.7800000000000000E-002     2.8715956956148148E-002
   3.8100000000000009E-002     3.2280862331390381E-002
   3.8400000000000004E-002     2.3858478292822838E-002
   3.8699999999999998E-002     3.7867636419832706E-003
   3.9000000000000007E-002    -2.6655243709683418E-002
   3.9300000000000002E-002    -6.5375752747058868E-002
   3.9600000000000003E-002   -0.10965976864099503     
   3.9900000000000005E-002   -0.15626181662082672     
   4.0200000000000000E-002   -0.20163311064243317     
   4.0500000000000001E-002   -0.24209046363830566     
   4.0800000000000003E-002   -0.27411827445030212     
   4.1100000000000005E-002   -0.29455482959747314     
   4.1399999999999999E-002   -0.30074024200439453     
   4.1700000000000008E-002   -0.29078060388565063     
   4.2000000000000003E-002   -0.26356258988380432     
   4.2299999999999997E-002   -0.21890126168727875     
   4.2600000000000006E-002   -0.15756385028362274     
   4.2900000000000001E-002    -8.1187121570110321E-002
   4.3200000000000002E-002     7.8603196889162064E-003
   4.3500000000000004E-002    0.10652647167444229     
   4.3799999999999999E-002    0.21131494641304016     
   4.4100000000000000E-002    0.31849354505538940     
   4.4400000000000002E-002    0.42440024018287659     
   4.4700000000000004E-002    0.52555191516876221     
   4.4999999999999998E-002    0.61878693103790283     
   4.5300000000000000E-002    0.70147693157196045     
   4.5600000000000002E-002    0.77159768342971802     
   4.5899999999999996E-002    0.82767415046691895     
   4.6200000000000005E-002    0.86879283189773560     
   4.6500000000000000E-002    0.89444041252136230     
   4.6799999999999994E-002    0.90443170070648193     
   4.7100000000000003E-002    0.89877110719680786     
   4.7399999999999998E-002    0.87752044200897217     
   4.7700000000000006E-002    0.84074252843856812     
   4.8000000000000001E-002    0.78843510150909424     
   4.8300000000000010E-002    0.72067230939865112     
   4.8600000000000004E-002    0.63758277893066406     
   4.8899999999999999E-002    0.53944849967956543     
   4.9200000000000008E-002    0.42697912454605103     
   4.9500000000000002E-002    0.30152913928031921     
   4.9800000000000011E-002    0.16517224907875061     
   5.0100000000000006E-002     2.0736640319228172E-002
   5.0400000000000000E-002   -0.12807126343250275     
   5.0700000000000009E-002   -0.27662345767021179     
   5.1000000000000004E-002   -0.41970556974411011     
   5.1299999999999998E-002   -0.55172693729400635     
   5.1600000000000007E-002   -0.66701030731201172     
   5.1900000000000002E-002   -0.76030695438385010     
   5.2200000000000010E-002   -0.82700705528259277     
   5.2500000000000005E-002   -0.86363744735717773     
   5.2800000000000000E-002   -0.86828422546386719     
   5.3099999999999994E-002   -0.84075653553009033     
   5.3400000000000003E-002   -0.78254663944244385     
   5.3699999999999998E-002   -0.69673216342926025     
   5.4000000000000006E-002   -0.58816617727279663     
   5.4300000000000001E-002   -0.46293410658836365     
   5.4599999999999996E-002   -0.32775121927261353     
   5.4900000000000004E-002   -0.18980361521244049     
   5.5199999999999999E-002    -5.6215848773717880E-002
   5.5499999999999994E-002     6.6388964653015137E-002
   5.5800000000000002E-002    0.17234088480472565     
   5.6099999999999997E-002    0.25703266263008118     
   5.6400000000000006E-002    0.31717523932456970     
   5.6700000000000000E-002    0.35087659955024719     
   5.6999999999999995E-002    0.35758903622627258     
   5.7300000000000004E-002    0.33817335963249207     
   5.7599999999999998E-002    0.29453858733177185     
   5.7900000000000007E-002    0.22969949245452881     
   5.8200000000000002E-002    0.14763361215591431     
   5.8499999999999996E-002     5.2968535572290421E-002
   5.8800000000000005E-002    -4.8991080373525620E-002
   5.9100000000000000E-002   -0.15276224911212921     
   5.9400000000000008E-002   -0.25269329547882080     
   5.9700000000000003E-002   -0.34319794178009033     
   6.0000000000000012E-002   -0.41938757896423340     
   6.0300000000000006E-002   -0.47717598080635071     
   6.0600000000000001E-002   -0.51362353563308716     
   6.0900000000000010E-002   -0.52738779783248901     
   6.1200000000000004E-002   -0.51884603500366211     
   6.1500000000000013E-002   -0.49025154113769531     
   6.1800000000000008E-002   -0.44560205936431885     
   6.2100000000000002E-002   -0.39045277237892151     
   6.2399999999999997E-002   -0.33163407444953918     
   6.2700000000000006E-002   -0.27660387754440308     
   6.3000000000000000E-002   -0.23258033394813538     
   6.3300000000000009E-002   -0.20613880455493927     
   6.3600000000000004E-002   -0.20233704149723053     
   6.3899999999999998E-002   -0.22396627068519592     
   6.4199999999999993E-002   -0.27137207984924316     
   6.4500000000000002E-002   -0.34189185500144958     
   6.4800000000000010E-002   -0.42988416552543640     
   6.5100000000000005E-002   -0.52737903594970703     
   6.5400000000000000E-002   -0.62421703338623047     
   6.5700000000000008E-002   -0.70894801616668701     
   6.5999999999999989E-002   -0.76985335350036621     
   6.6299999999999998E-002   -0.79565811157226562     
   6.6600000000000006E-002   -0.77695506811141968     
   6.6900000000000001E-002   -0.70663726329803467     
   6.7199999999999996E-002   -0.58093321323394775     
   6.7500000000000004E-002   -0.40016075968742371     
   6.7800000000000013E-002   -0.16816326975822449     
   6.8099999999999994E-002    0.10707300901412964     
   6.8400000000000002E-002    0.41367679834365845     
   6.8700000000000011E-002    0.73705679178237915     
   6.8999999999999992E-002     1.0602228641510010     
   6.9300000000000000E-002     1.3650500774383545     
   6.9600000000000009E-002     1.6334623098373413     
   6.9900000000000004E-002     1.8481433391571045     
   7.0199999999999999E-002     1.9940121173858643     
   7.0500000000000007E-002     2.0595092773437500     
   7.0800000000000016E-002     2.0368151664733887     
   7.1099999999999997E-002     1.9228395223617554     
   7.1400000000000005E-002     1.7197673320770264     
   7.1700000000000000E-002     1.4346902370452881     
   7.1999999999999995E-002     1.0798457860946655     
   7.2300000000000003E-002    0.67147529125213623     
   7.2600000000000012E-002    0.22901239991188049     
   7.2900000000000006E-002   -0.22533072531223297     
   7.3200000000000001E-002   -0.66900086402893066     
   7.3499999999999996E-002    -1.0799583196640015     
   7.3800000000000004E-002    -1.4376039505004883     
   7.4099999999999999E-002    -1.7250024080276489     
   7.4400000000000008E-002    -1.9289174079895020     
   7.4700000000000003E-002    -2.0406966209411621     
   7.5000000000000011E-002    -2.0570514202117920     
   7.5299999999999992E-002    -1.9791762828826904     
   7.5600000000000001E-002    -1.8130112886428833     
   7.5900000000000009E-002    -1.5681614875793457     
   7.6200000000000004E-002    -1.2569367885589600     
   7.6499999999999999E-002   -0.89407122135162354     
   7.6800000000000007E-002   -0.49519932270050049     
   7.7099999999999988E-002    -7.5760036706924438E-002
   7.7399999999999997E-002    0.34883034229278564     
   7.7700000000000005E-002    0.76407486200332642     
   7.8000000000000014E-002     1.1569433212280273     
   7.8299999999999995E-002     1.5156539678573608     
   7.8600000000000003E-002     1.8299133777618408     
   7.8900000000000012E-002     2.0907371044158936     
   7.9199999999999993E-002     2.2902219295501709     
   7.9500000000000001E-002     2.4219233989715576     
   7.9800000000000010E-002     2.4804568290710449     
   8.0100000000000018E-002     2.4616160392761230     
   8.0399999999999999E-002     2.3627371788024902     
   8.0700000000000008E-002     2.1826863288879395     
   8.1000000000000003E-002     1.9224210977554321     
   8.1299999999999997E-002     1.5851520299911499     
   8.1600000000000006E-002     1.1760922670364380     
   8.1900000000000014E-002    0.70385849475860596     
   8.2199999999999995E-002    0.18013189733028412     
   8.2500000000000004E-002   -0.38075086474418640     
   8.2799999999999999E-002   -0.96125119924545288     
   8.3100000000000007E-002    -1.5413032770156860     
   8.3400000000000002E-002    -2.0982728004455566     
   8.3700000000000011E-002    -2.6081473827362061     
   8.4000000000000005E-002    -3.0469551086425781     
   8.4300000000000000E-002    -3.3908944129943848     
   8.4599999999999995E-002    -3.6182680130004883     
   8.4900000000000003E-002    -3.7111063003540039     
   8.5199999999999998E-002    -3.6558260917663574     
   8.5500000000000007E-002    -3.4451727867126465     
   8.5800000000000001E-002    -3.0789217948913574     
   8.6100000000000010E-002    -2.5643081665039062     
   8.6399999999999991E-002    -1.9168235063552856     
   8.6699999999999999E-002    -1.1595267057418823     
   8.7000000000000008E-002   -0.32235565781593323     
   8.7300000000000003E-002    0.55887985229492188     
   8.7599999999999997E-002     1.4445357322692871     
   8.7900000000000006E-002     2.2927277088165283     
   8.8200000000000014E-002     3.0617456436157227     
   8.8499999999999995E-002     3.7129178047180176     
   8.8800000000000004E-002     4.2121376991271973     
   8.9100000000000013E-002     4.5323243141174316     
   8.9399999999999993E-002     4.6553235054016113     
   8.9700000000000002E-002     4.5726237297058105     
   9.0000000000000011E-002     4.2867250442504883     
   9.0299999999999991E-002     3.8105461597442627     
   9.0600000000000000E-002     3.1665377616882324     
   9.0900000000000009E-002     2.3866598606109619     
   9.1200000000000017E-002     1.5090365409851074     
   9.1499999999999998E-002    0.57626456022262573     
   9.1800000000000007E-002   -0.36654907464981079     
   9.2100000000000001E-002    -1.2755777835845947     
   9.2399999999999996E-002    -2.1096680164337158     
   9.2700000000000005E-002    -2.8328666687011719     
   9.3000000000000013E-002    -3.4170680046081543     
   9.3300000000000008E-002    -3.8420245647430420     
   9.3600000000000003E-002    -4.0966882705688477     
   9.3899999999999997E-002    -4.1792411804199219     
   9.4200000000000006E-002    -4.0961880683898926     
   9.4500000000000001E-002    -3.8620469570159912     
   9.4800000000000009E-002    -3.4967784881591797     
   9.5100000000000004E-002    -3.0245454311370850     
   9.5399999999999999E-002    -2.4730403423309326     
   9.5699999999999993E-002    -1.8701204061508179     
   9.6000000000000002E-002    -1.2428135871887207     
   9.6300000000000011E-002   -0.61663359403610229     
   9.6600000000000005E-002    -1.3558125123381615E-002
   9.6900000000000000E-002    0.54771602153778076     
   9.7200000000000009E-002     1.0521770715713501     
   9.7499999999999989E-002     1.4890801906585693     
   9.7799999999999998E-002     1.8506377935409546     
   9.8100000000000007E-002     2.1324620246887207     
   9.8400000000000015E-002     2.3326456546783447     
   9.8699999999999996E-002     2.4509959220886230     
   9.9000000000000005E-002     2.4894201755523682     
   9.9300000000000013E-002     2.4507026672363281     
   9.9599999999999994E-002     2.3384957313537598     
   9.9900000000000003E-002     2.1586084365844727     
  0.10020000000000001          1.9173854589462280     
  0.10049999999999999          1.6223568916320801     
  0.10080000000000000          1.2834781408309937     
  0.10110000000000001         0.91178321838378906     
  0.10140000000000000         0.52009916305541992     
  0.10170000000000000         0.12270840257406235     
  0.10200000000000001        -0.26581487059593201     
  0.10230000000000002        -0.63030952215194702     
  0.10260000000000000        -0.95644533634185791     
  0.10290000000000001         -1.2314304113388062     
  0.10320000000000000         -1.4446113109588623     
  0.10350000000000001         -1.5889234542846680     
  0.10380000000000000         -1.6600204706192017     
  0.10410000000000001         -1.6572152376174927     
  0.10440000000000001         -1.5843027830123901     
  0.10470000000000000         -1.4473811388015747     
  0.10500000000000000         -1.2550424337387085     
  0.10530000000000000         -1.0187319517135620     
  0.10560000000000000        -0.75059229135513306     
  0.10590000000000001        -0.46319708228111267     
  0.10620000000000000        -0.16954290866851807     
  0.10650000000000001         0.11784244328737259     
  0.10679999999999999         0.38645982742309570     
  0.10710000000000000         0.62477153539657593     
  0.10740000000000001         0.82186788320541382     
  0.10770000000000000         0.96670407056808472     
  0.10800000000000000          1.0496186017990112     
  0.10830000000000001          1.0619759559631348     
  0.10859999999999999         0.99646127223968506     
  0.10890000000000000         0.84920746088027954     
  0.10920000000000001         0.61927288770675659     
  0.10950000000000001         0.31006595492362976     
  0.10979999999999999         -6.8739861249923706E-002
  0.11009999999999999        -0.50205761194229126     
  0.11040000000000001        -0.96905761957168579     
  0.11070000000000001         -1.4431928396224976     
  0.11100000000000000         -1.8936673402786255     
  0.11130000000000000         -2.2869560718536377     
  0.11160000000000002         -2.5899560451507568     
  0.11190000000000001         -2.7718970775604248     
  0.11220000000000001         -2.8066697120666504     
  0.11250000000000000         -2.6767013072967529     
  0.11280000000000000         -2.3740668296813965     
  0.11309999999999999         -1.9017791748046875     
  0.11340000000000001         -1.2745368480682373     
  0.11369999999999998        -0.51794767379760742     
  0.11400000000000000         0.33251830935478210     
  0.11430000000000000          1.2340728044509888     
  0.11460000000000002          2.1401712894439697     
  0.11489999999999999          3.0031437873840332     
  0.11520000000000001          3.7775895595550537     
  0.11550000000000001          4.4240984916687012     
  0.11580000000000000          4.9114646911621094     
  0.11609999999999999          5.2184433937072754     
  0.11640000000000002          5.3353004455566406     
  0.11670000000000001          5.2636127471923828     
  0.11700000000000001          5.0158233642578125     
  0.11730000000000000          4.6132078170776367     
  0.11760000000000000          4.0842185020446777     
  0.11789999999999999          3.4625351428985596     
  0.11820000000000001          2.7829904556274414     
  0.11850000000000001          2.0801069736480713     
  0.11880000000000000          1.3863453865051270     
  0.11910000000000000         0.72832250595092773     
  0.11940000000000002         0.12621562182903290     
  0.11970000000000001        -0.40625140070915222     
  0.12000000000000001        -0.86350941658020020     
  0.12030000000000000         -1.2473806142807007     
  0.12060000000000000         -1.5663369894027710     
  0.12089999999999999         -1.8341802358627319     
  0.12119999999999999         -2.0687177181243896     
  0.12150000000000001         -2.2904827594757080     
  0.12180000000000001         -2.5197291374206543     
  0.12210000000000000         -2.7755963802337646     
  0.12239999999999999         -3.0746433734893799     
  0.12270000000000002         -3.4280521869659424     
  0.12300000000000001         -3.8408567905426025     
  0.12330000000000001         -4.3118557929992676     
  0.12360000000000000         -4.8313393592834473     
  0.12390000000000000         -5.3819403648376465     
  0.12419999999999999         -5.9385409355163574     
  0.12450000000000001         -6.4686532020568848     
  0.12480000000000001         -6.9348444938659668     
  0.12509999999999999         -7.2949757575988770     
  0.12540000000000001         -7.5050535202026367     
  0.12570000000000003         -7.5228652954101562     
  0.12600000000000000         -7.3089933395385742     
  0.12630000000000002         -6.8313078880310059     
  0.12659999999999999         -6.0683488845825195     
  0.12690000000000001         -5.0105328559875488     
  0.12719999999999998         -3.6631276607513428     
  0.12750000000000000         -2.0481035709381104     
  0.12780000000000002        -0.20440545678138733     
  0.12809999999999999          1.8137068748474121     
  0.12840000000000001          3.9380316734313965     
  0.12869999999999998          6.0874819755554199     
  0.12900000000000000          8.1743316650390625     
  0.12930000000000003          10.109391212463379     
  0.12959999999999999          11.804319381713867     
  0.12990000000000002          13.178771972656250     
  0.13019999999999998          14.165938377380371     
  0.13050000000000000          14.715106010437012     
  0.13080000000000003          14.796046257019043     
  0.13109999999999999          14.400910377502441     
  0.13140000000000002          13.543274879455566     
  0.13169999999999998          12.258272171020508     
  0.13200000000000001          10.600221633911133     
  0.13229999999999997          8.6372060775756836     
  0.13260000000000000          6.4478273391723633     
  0.13290000000000002          4.1155195236206055     
  0.13319999999999999          1.7239985466003418     
  0.13350000000000001        -0.64671593904495239     
  0.13380000000000003         -2.9261171817779541     
  0.13410000000000000         -5.0522484779357910     
  0.13440000000000002         -6.9739041328430176     
  0.13469999999999999         -8.6532068252563477     
  0.13500000000000001         -10.059210777282715     
  0.13529999999999998         -11.169923782348633     
  0.13560000000000000         -11.971325874328613     
  0.13590000000000002         -12.451799392700195     
  0.13619999999999999         -12.604276657104492     
  0.13650000000000001         -12.426197052001953     
  0.13680000000000003         -11.918849945068359     
  0.13710000000000000         -11.090395927429199     
  0.13740000000000002         -9.9567413330078125     
  0.13769999999999999         -8.5448493957519531     
  0.13800000000000001         -6.8951940536499023     
  0.13829999999999998         -5.0598101615905762     
  0.13860000000000000         -3.1048321723937988     
  0.13890000000000002         -1.1092469692230225     
  0.13919999999999999         0.84290808439254761     
  0.13950000000000001          2.6637339591979980     
  0.13979999999999998          4.2662186622619629     
  0.14010000000000000          5.5736417770385742     
  0.14040000000000002          6.5233550071716309     
  0.14069999999999999          7.0732154846191406     
  0.14100000000000001          7.2039256095886230     
  0.14130000000000004          6.9199590682983398     
  0.14160000000000000          6.2548975944519043     
  0.14189999999999997          5.2635879516601562     
  0.14219999999999999          4.0179691314697266     
  0.14250000000000002          2.6085474491119385     
  0.14279999999999998          1.1312342882156372     
  0.14310000000000000        -0.31733310222625732     
  0.14339999999999997         -1.6430131196975708     
  0.14369999999999999         -2.7654945850372314     
  0.14400000000000002         -3.6185357570648193     
  0.14429999999999998         -4.1549172401428223     
  0.14460000000000001         -4.3501505851745605     
  0.14490000000000003         -4.1990962028503418     
  0.14520000000000000         -3.7201268672943115     
  0.14550000000000002         -2.9507398605346680     
  0.14579999999999999         -1.9422105550765991     
  0.14610000000000001        -0.76234865188598633     
  0.14640000000000003         0.51409196853637695     
  0.14670000000000000          1.8101872205734253     
  0.14699999999999996          3.0456383228302002     
  0.14729999999999999          4.1476712226867676     
  0.14760000000000001          5.0534334182739258     
  0.14789999999999998          5.7106447219848633     
  0.14820000000000000          6.0849843025207520     