  -1.4999999999999999E-002     0.0000000000000000     
  -1.4700000000000000E-002     0.0000000000000000     
  -1.4400000000000000E-002     0.0000000000000000     
  -1.4100000000000000E-002     0.0000000000000000     
  -1.3800000000000000E-002     0.0000000000000000     
  -1.3500000000000000E-002     0.0000000000000000     
  -1.3200000000000000E-002     0.0000000000000000     
  -1.2899999999999998E-002     0.0000000000000000     
  -1.2600000000000000E-002     0.0000000000000000     
  -1.2299999999999998E-002     0.0000000000000000     
  -1.2000000000000000E-002     0.0000000000000000     
  -1.1699999999999999E-002     0.0000000000000000     
  -1.1399999999999999E-002     0.0000000000000000     
  -1.1099999999999999E-002     0.0000000000000000     
  -1.0799999999999999E-002     0.0000000000000000     
  -1.0499999999999999E-002     0.0000000000000000     
  -1.0199999999999999E-002     0.0000000000000000     
  -9.8999999999999991E-003     0.0000000000000000     
  -9.5999999999999992E-003     0.0000000000000000     
  -9.2999999999999992E-003     0.0000000000000000     
  -8.9999999999999993E-003     0.0000000000000000     
  -8.6999999999999994E-003     0.0000000000000000     
  -8.3999999999999995E-003     0.0000000000000000     
  -8.0999999999999996E-003     0.0000000000000000     
  -7.7999999999999988E-003     0.0000000000000000     
  -7.4999999999999997E-003     0.0000000000000000     
  -7.1999999999999998E-003     0.0000000000000000     
  -6.8999999999999981E-003     0.0000000000000000     
  -6.5999999999999982E-003     0.0000000000000000     
  -6.3000000000000000E-003     0.0000000000000000     
  -6.0000000000000001E-003     0.0000000000000000     
  -5.6999999999999985E-003     0.0000000000000000     
  -5.3999999999999986E-003     0.0000000000000000     
  -5.1000000000000004E-003     0.0000000000000000     
  -4.7999999999999987E-003     0.0000000000000000     
  -4.5000000000000005E-003     0.0000000000000000     
  -4.1999999999999989E-003     0.0000000000000000     
  -3.8999999999999990E-003     0.0000000000000000     
  -3.5999999999999990E-003     0.0000000000000000     
  -3.2999999999999991E-003     0.0000000000000000     
  -2.9999999999999992E-003     0.0000000000000000     
  -2.6999999999999993E-003     0.0000000000000000     
  -2.3999999999999994E-003     0.0000000000000000     
  -2.0999999999999977E-003     0.0000000000000000     
  -1.7999999999999995E-003     0.0000000000000000     
  -1.4999999999999979E-003     0.0000000000000000     
  -1.1999999999999997E-003     0.0000000000000000     
  -8.9999999999999976E-004     1.1828516834378277E-036
  -5.9999999999999810E-004    -2.3397355530270779E-035
  -2.9999999999999992E-004    -5.5244572548238213E-035
   0.0000000000000000          3.7050615369321439E-034
   3.0000000000000165E-004     4.6185402632548071E-034
   5.9999999999999984E-004    -4.6468794116722170E-033
   9.0000000000000149E-004     5.7656032628215421E-033
   1.2000000000000031E-003     2.1241116797801502E-032
   1.5000000000000013E-003    -9.3077940789564582E-032
   1.8000000000000030E-003     4.7291166291137596E-032
   2.1000000000000012E-003     4.6749128213558177E-031
   2.3999999999999994E-003    -9.0608298863642357E-031
   2.7000000000000010E-003    -2.0593596028524632E-031
   2.9999999999999992E-003     4.4363481236473958E-031
   3.3000000000000008E-003     2.6703733379494325E-031
   3.6000000000000025E-003     7.7174426302558101E-029
   3.9000000000000007E-003    -5.8914716999890529E-028
   4.2000000000000023E-003     1.4324007664882847E-027
   4.5000000000000005E-003     7.8595521619531589E-027
   4.7999999999999987E-003    -9.1610373782485347E-026
   5.1000000000000004E-003     4.2030277302284600E-025
   5.4000000000000020E-003    -8.1297534771368003E-025
   5.7000000000000037E-003    -2.3832692931759492E-024
   5.9999999999999984E-003     2.5864712243339696E-023
   6.3000000000000000E-003    -1.1033864376731055E-022
   6.6000000000000017E-003     2.7958510328965289E-022
   6.9000000000000034E-003    -2.8049106901853215E-022
   7.2000000000000015E-003    -1.1359475866147528E-021
   7.5000000000000032E-003     7.1153421979022214E-021
   7.8000000000000014E-003    -2.1117449287035700E-020
   8.0999999999999996E-003     3.4756100162038054E-020
   8.4000000000000012E-003     7.6812298643229589E-021
   8.7000000000000029E-003    -2.6125129629597838E-019
   9.0000000000000011E-003     9.2010029230294693E-019
   9.2999999999999992E-003    -1.4676988208967266E-018
   9.6000000000000009E-003    -2.7753510145639369E-018
   9.8999999999999991E-003     3.3440725099979319E-017
   1.0200000000000001E-002    -1.7366507406296066E-016
   1.0500000000000002E-002     7.2273160339856061E-016
   1.0800000000000004E-002    -2.7300322935050513E-015
   1.1099999999999999E-002     9.7425246784409690E-015
   1.1400000000000000E-002    -3.2722343037234689E-014
   1.1700000000000002E-002     9.9220660171057268E-014
   1.2000000000000004E-002    -2.4565389327747822E-013
   1.2300000000000002E-002     3.4892106023053093E-013
   1.2600000000000000E-002     7.3661150963577615E-013
   1.2900000000000002E-002    -7.7214068472386543E-012
   1.3200000000000000E-002     3.1528789995460826E-011
   1.3500000000000002E-002    -7.4823570950233176E-011
   1.3800000000000003E-002     5.1258566835521435E-011
   1.4100000000000001E-002     3.5931030373248518E-010
   1.4400000000000000E-002    -1.4650535229421280E-009
   1.4700000000000001E-002     1.8157858550083006E-009
   1.4999999999999999E-002     3.8916652123077711E-009
   1.5300000000000001E-002    -1.6361033416956161E-008
   1.5600000000000003E-002     6.1159259878706962E-009
   1.5899999999999997E-002     6.1931935135817184E-008
   1.6199999999999999E-002    -6.8597195479469519E-008
   1.6500000000000001E-002    -2.1688119034024567E-007
   1.6800000000000002E-002     2.0163062686151534E-007
   1.7100000000000004E-002     7.1426796921514324E-007
   1.7400000000000006E-002    -2.8173195687486441E-007
   1.7700000000000000E-002    -2.0824500097660348E-006
   1.8000000000000002E-002    -9.3074362439438119E-008
   1.8300000000000004E-002     8.2658289102255367E-006
   1.8600000000000005E-002     1.8415646991343237E-005
   1.8900000000000000E-002     2.5487313905614428E-005
   1.9200000000000002E-002     3.4629945730557665E-005
   1.9500000000000003E-002     5.7622484746389091E-005
   1.9799999999999998E-002     9.9557721114251763E-005
   2.0100000000000000E-002     1.5749786689411849E-004
   2.0400000000000001E-002     2.3586578026879579E-004
   2.0700000000000003E-002     3.5505054984241724E-004
   2.0999999999999998E-002     5.4020684910938144E-004
   2.1299999999999999E-002     8.1061583478003740E-004
   2.1600000000000001E-002     1.1894511990249157E-003
   2.1900000000000003E-002     1.7204044852405787E-003
   2.2200000000000004E-002     2.4653268046677113E-003
   2.2500000000000006E-002     3.4889080561697483E-003
   2.2800000000000001E-002     4.8592779785394669E-003
   2.3100000000000002E-002     6.6651506349444389E-003
   2.3400000000000004E-002     9.0180104598402977E-003
   2.3699999999999999E-002     1.2030936777591705E-002
   2.4000000000000000E-002     1.5804093331098557E-002
   2.4300000000000002E-002     2.0431471988558769E-002
   2.4599999999999997E-002     2.6000693440437317E-002
   2.4900000000000005E-002     3.2561965286731720E-002
   2.5200000000000000E-002     4.0090136229991913E-002
   2.5499999999999995E-002     4.8477232456207275E-002
   2.5800000000000003E-002     5.7528879493474960E-002
   2.6099999999999998E-002     6.6937804222106934E-002
   2.6400000000000007E-002     7.6248116791248322E-002
   2.6700000000000002E-002     8.4844224154949188E-002
   2.6999999999999996E-002     9.1985054314136505E-002
   2.7300000000000005E-002     9.6829496324062347E-002
   2.7600000000000000E-002     9.8448775708675385E-002
   2.7900000000000008E-002     9.5870725810527802E-002
   2.8200000000000003E-002     8.8169753551483154E-002
   2.8499999999999998E-002     7.4585303664207458E-002
   2.8800000000000006E-002     5.4585184901952744E-002
   2.9100000000000001E-002     2.7945505455136299E-002
   2.9400000000000003E-002    -5.1395064219832420E-003
   2.9700000000000004E-002    -4.4008646160364151E-002
   3.0000000000000006E-002    -8.7455607950687408E-002
   3.0300000000000001E-002   -0.13380084931850433     
   3.0600000000000002E-002   -0.18095123767852783     
   3.0900000000000004E-002   -0.22645334899425507     
   3.1199999999999999E-002   -0.26766973733901978     
   3.1500000000000007E-002   -0.30198028683662415     
   3.1800000000000002E-002   -0.32702589035034180     
   3.2099999999999997E-002   -0.34088578820228577     
   3.2400000000000005E-002   -0.34222203493118286     
   3.2700000000000000E-002   -0.33052286505699158     
   3.3000000000000002E-002   -0.30619388818740845     
   3.3300000000000003E-002   -0.27053740620613098     
   3.3599999999999998E-002   -0.22572186589241028     
   3.3900000000000000E-002   -0.17463786900043488     
   3.4200000000000001E-002   -0.12069784849882126     
   3.4500000000000003E-002    -6.7686796188354492E-002
   3.4799999999999998E-002    -1.9307354465126991E-002
   3.5099999999999999E-002     2.1048763766884804E-002
   3.5400000000000001E-002     5.0481460988521576E-002
   3.5699999999999996E-002     6.6886462271213531E-002
   3.6000000000000004E-002     6.9082207977771759E-002
   3.6299999999999999E-002     5.6981537491083145E-002
   3.6600000000000008E-002     3.1617324799299240E-002
   3.6900000000000002E-002    -5.0339605659246445E-003
   3.7199999999999997E-002    -5.0088122487068176E-002
   3.7500000000000006E-002    -9.9898122251033783E-002
   3.7800000000000000E-002   -0.15037555992603302     
   3.8100000000000009E-002   -0.19710212945938110     
   3.8400000000000004E-002   -0.23569022119045258     
   3.8699999999999998E-002   -0.26211634278297424     
   3.9000000000000007E-002   -0.27277323603630066     
   3.9300000000000002E-002   -0.26486650109291077     
   3.9600000000000003E-002   -0.23655600845813751     
   3.9900000000000005E-002   -0.18692463636398315     
   4.0200000000000000E-002   -0.11634605377912521     
   4.0500000000000001E-002    -2.6282183825969696E-002
   4.0800000000000003E-002     8.0863162875175476E-002
   4.1100000000000005E-002    0.20160561800003052     
   4.1399999999999999E-002    0.33175128698348999     
   4.1700000000000008E-002    0.46657067537307739     
   4.2000000000000003E-002    0.60111546516418457     
   4.2299999999999997E-002    0.73037695884704590     
   4.2600000000000006E-002    0.84947276115417480     
   4.2900000000000001E-002    0.95397233963012695     
   4.3200000000000002E-002     1.0399923324584961     
   4.3500000000000004E-002     1.1043301820755005     
   4.3799999999999999E-002     1.1443850994110107     
   4.4100000000000000E-002     1.1582312583923340     
   4.4400000000000002E-002     1.1446673870086670     
   4.4700000000000004E-002     1.1029822826385498     
   4.4999999999999998E-002     1.0331940650939941     
   4.5300000000000000E-002    0.93582433462142944     
   4.5600000000000002E-002    0.81194067001342773     
   4.5899999999999996E-002    0.66347479820251465     
   4.6200000000000005E-002    0.49307924509048462     
   4.6500000000000000E-002    0.30433529615402222     
   4.6799999999999994E-002    0.10181786119937897     
   4.7100000000000003E-002   -0.10888066887855530     
   4.7399999999999998E-002   -0.32107374072074890     
   4.7700000000000006E-002   -0.52733480930328369     
   4.8000000000000001E-002   -0.71958172321319580     
   4.8300000000000010E-002   -0.88957613706588745     
   4.8600000000000004E-002    -1.0294113159179688     
   4.8899999999999999E-002    -1.1319158077239990     
   4.9200000000000008E-002    -1.1912889480590820     
   4.9500000000000002E-002    -1.2036994695663452     
   4.9800000000000011E-002    -1.1674978733062744     
   5.0100000000000006E-002    -1.0836716890335083     
   5.0400000000000000E-002   -0.95583224296569824     
   5.0700000000000009E-002   -0.79009962081909180     
   5.1000000000000004E-002   -0.59504574537277222     
   5.1299999999999998E-002   -0.38078406453132629     
   5.1600000000000007E-002   -0.15854272246360779     
   5.1900000000000002E-002     5.9723604470491409E-002
   5.2200000000000010E-002    0.26233279705047607     
   5.2500000000000005E-002    0.43872117996215820     
   5.2800000000000000E-002    0.57983905076980591     
   5.3099999999999994E-002    0.67848986387252808     
   5.3400000000000003E-002    0.72984778881072998     
   5.3699999999999998E-002    0.73171573877334595     
   5.4000000000000006E-002    0.68468528985977173     
   5.4300000000000001E-002    0.59180706739425659     
   5.4599999999999996E-002    0.45823860168457031     
   5.4900000000000004E-002    0.29146814346313477     
   5.5199999999999999E-002    0.10054700076580048     
   5.5499999999999994E-002   -0.10429149121046066     
   5.5800000000000002E-002   -0.31221559643745422     
   5.6099999999999997E-002   -0.51264947652816772     
   5.6400000000000006E-002   -0.69527459144592285     
   5.6700000000000000E-002   -0.85116517543792725     
   5.6999999999999995E-002   -0.97351700067520142     
   5.7300000000000004E-002    -1.0576131343841553     
   5.7599999999999998E-002    -1.1015686988830566     
   5.7900000000000007E-002    -1.1062796115875244     
   5.8200000000000002E-002    -1.0753488540649414     
   5.8499999999999996E-002    -1.0150856971740723     
   5.8800000000000005E-002   -0.93333131074905396     
   5.9100000000000000E-002   -0.83893007040023804     
   5.9400000000000008E-002   -0.74096560478210449     
   5.9700000000000003E-002   -0.64764958620071411     
   6.0000000000000012E-002   -0.56559890508651733     
   6.0300000000000006E-002   -0.49869731068611145     
   6.0600000000000001E-002   -0.44773003458976746     
   6.0900000000000010E-002   -0.41066879034042358     
   6.1200000000000004E-002   -0.38249590992927551     
   6.1500000000000013E-002   -0.35549965500831604     
   6.1800000000000008E-002   -0.32036828994750977     
   6.2100000000000002E-002   -0.26743930578231812     
   6.2399999999999997E-002   -0.18747296929359436     
   6.2700000000000006E-002    -7.2813816368579865E-002
   6.3000000000000000E-002     8.1336848437786102E-002
   6.3300000000000009E-002    0.27627715468406677     
   6.3600000000000004E-002    0.50914275646209717     
   6.3899999999999998E-002    0.77309364080429077     
   6.4199999999999993E-002     1.0571473836898804     
   6.4500000000000002E-002     1.3466815948486328     
   6.4800000000000010E-002     1.6246687173843384     
   6.5100000000000005E-002     1.8724427223205566     
   6.5400000000000000E-002     2.0709376335144043     
   6.5700000000000008E-002     2.2023742198944092     
   6.5999999999999989E-002     2.2511215209960938     
   6.6299999999999998E-002     2.2052919864654541     
   6.6600000000000006E-002     2.0578126907348633     
   6.6900000000000001E-002     1.8072365522384644     
   6.7199999999999996E-002     1.4581198692321777     
   6.7500000000000004E-002     1.0209707021713257     
   6.7800000000000013E-002    0.51238739490509033     
   6.8099999999999994E-002    -4.5554090291261673E-002
   6.8400000000000002E-002   -0.62678658962249756     
   6.8700000000000011E-002    -1.2026678323745728     
   6.8999999999999992E-002    -1.7432605028152466     
   6.9300000000000000E-002    -2.2191357612609863     
   6.9600000000000009E-002    -2.6033926010131836     
   6.9900000000000004E-002    -2.8732368946075439     
   7.0199999999999999E-002    -3.0115165710449219     
   7.0500000000000007E-002    -3.0075485706329346     
   7.0800000000000016E-002    -2.8578076362609863     
   7.1099999999999997E-002    -2.5666184425354004     
   7.1400000000000005E-002    -2.1454904079437256     
   7.1700000000000000E-002    -1.6122822761535645     
   7.1999999999999995E-002   -0.99039059877395630     
   7.2300000000000003E-002   -0.30776491761207581     
   7.2600000000000012E-002    0.40481683611869812     
   7.2900000000000006E-002     1.1156352758407593     
   7.3200000000000001E-002     1.7931337356567383     
   7.3499999999999996E-002     2.4072854518890381     
   7.3800000000000004E-002     2.9309945106506348     
   7.4099999999999999E-002     3.3411738872528076     
   7.4400000000000008E-002     3.6196570396423340     
   7.4700000000000003E-002     3.7533457279205322     
   7.5000000000000011E-002     3.7351179122924805     
   7.5299999999999992E-002     3.5638880729675293     
   7.5600000000000001E-002     3.2442884445190430     
   7.5900000000000009E-002     2.7868406772613525     
   7.6200000000000004E-002     2.2076845169067383     
   7.6499999999999999E-002     1.5280277729034424     
   7.6800000000000007E-002    0.77346211671829224     
   7.7099999999999988E-002    -2.6881165802478790E-002
   7.7399999999999997E-002   -0.84073024988174438     
   7.7700000000000005E-002    -1.6342165470123291     
   7.8000000000000014E-002    -2.3731307983398438     
   7.8299999999999995E-002    -3.0242879390716553     
   7.8600000000000003E-002    -3.5568826198577881     
   7.8900000000000012E-002    -3.9440765380859375     
   7.9199999999999993E-002    -4.1649308204650879     
   7.9500000000000001E-002    -4.2050518989562988     
   7.9800000000000010E-002    -4.0581974983215332     
   8.0100000000000018E-002    -3.7269639968872070     
   8.0399999999999999E-002    -3.2230927944183350     
   8.0700000000000008E-002    -2.5671350955963135     
   8.1000000000000003E-002    -1.7876107692718506     
   8.1299999999999997E-002   -0.92001694440841675     
   8.1600000000000006E-002    -4.9141794443130493E-003
   8.1900000000000014E-002    0.91424757242202759     
   8.2199999999999995E-002     1.7934386730194092     
   8.2500000000000004E-002     2.5906400680541992     
   8.2799999999999999E-002     3.2679526805877686     
   8.3100000000000007E-002     3.7940478324890137     
   8.3400000000000002E-002     4.1455626487731934     
   8.3700000000000011E-002     4.3084564208984375     
   8.4000000000000005E-002     4.2790441513061523     
   8.4300000000000000E-002     4.0631313323974609     
   8.4599999999999995E-002     3.6757802963256836     
   8.4900000000000003E-002     3.1403610706329346     
   8.5199999999999998E-002     2.4866640567779541     
   8.5500000000000007E-002     1.7488710880279541     
   8.5800000000000001E-002    0.96296614408493042     
   8.6100000000000010E-002    0.16544629633426666     
   8.6399999999999991E-002   -0.60901892185211182     
   8.6699999999999999E-002    -1.3297375440597534     
   8.7000000000000008E-002    -1.9709001779556274     
   8.7300000000000003E-002    -2.5123701095581055     
   8.7599999999999997E-002    -2.9395515918731689     
   8.7900000000000006E-002    -3.2440164089202881     
   8.8200000000000014E-002    -3.4230265617370605     
   8.8499999999999995E-002    -3.4776875972747803     
   8.8800000000000004E-002    -3.4128720760345459     
   8.9100000000000013E-002    -3.2363574504852295     
   8.9399999999999993E-002    -2.9577200412750244     
   8.9700000000000002E-002    -2.5880980491638184     
   9.0000000000000011E-002    -2.1395056247711182     
   9.0299999999999991E-002    -1.6256691217422485     
   9.0600000000000000E-002    -1.0615617036819458     
   9.0900000000000009E-002   -0.46349605917930603     
   9.1200000000000017E-002    0.14998804032802582     
   9.1499999999999998E-002    0.75878530740737915     
   9.1800000000000007E-002     1.3413618803024292     
   9.2100000000000001E-002     1.8748419284820557     
   9.2399999999999996E-002     2.3368632793426514     
   9.2700000000000005E-002     2.7067668437957764     
   9.3000000000000013E-002     2.9664390087127686     
   9.3300000000000008E-002     3.1017136573791504     
   9.3600000000000003E-002     3.1044335365295410     
   9.3899999999999997E-002     2.9730384349822998     
   9.4200000000000006E-002     2.7121305465698242     
   9.4500000000000001E-002     2.3329770565032959     
   9.4800000000000009E-002     1.8529945611953735     
   9.5100000000000004E-002     1.2944444417953491     
   9.5399999999999999E-002    0.68226265907287598     
   9.5699999999999993E-002     4.3162759393453598E-002
   9.6000000000000002E-002   -0.59610116481781006     
   9.6300000000000011E-002    -1.2105294466018677     
   9.6600000000000005E-002    -1.7778016328811646     
   9.6900000000000000E-002    -2.2791044712066650     
   9.7200000000000009E-002    -2.6997051239013672     
   9.7499999999999989E-002    -3.0290076732635498     
   9.7799999999999998E-002    -3.2607152462005615     
   9.8100000000000007E-002    -3.3920235633850098     
   9.8400000000000015E-002    -3.4241886138916016     
   9.8699999999999996E-002    -3.3625743389129639     
   9.9000000000000005E-002    -3.2155189514160156     
   9.9300000000000013E-002    -2.9948909282684326     
   9.9599999999999994E-002    -2.7158100605010986     
   9.9900000000000003E-002    -2.3960468769073486     
  0.10020000000000001         -2.0555422306060791     
  0.10049999999999999         -1.7148592472076416     
  0.10080000000000000         -1.3937848806381226     
  0.10110000000000001         -1.1097648143768311     
  0.10140000000000000        -0.87597626447677612     
  0.10170000000000000        -0.69965928792953491     
  0.10200000000000001        -0.57973164319992065     
  0.10230000000000002        -0.50685119628906250     
  0.10260000000000000        -0.46341019868850708     
  0.10290000000000001        -0.42362970113754272     
  0.10320000000000000        -0.35541608929634094     
  0.10350000000000001        -0.22384978830814362     
  0.10380000000000000          5.5052135139703751E-003
  0.10410000000000001         0.36389309167861938     
  0.10440000000000001         0.87487268447875977     
  0.10470000000000000          1.5499793291091919     
  0.10500000000000000          2.3872497081756592     
  0.10530000000000000          3.3695271015167236     
  0.10560000000000000          4.4630637168884277     
  0.10590000000000001          5.6197404861450195     
  0.10620000000000000          6.7791337966918945     
  0.10650000000000001          7.8722743988037109     
  0.10679999999999999          8.8263769149780273     
  0.10710000000000000          9.5697088241577148     
  0.10740000000000001          10.037540435791016     
  0.10770000000000000          10.176486968994141     
  0.10800000000000000          9.9482831954956055     
  0.10830000000000001          9.3344936370849609     
  0.10859999999999999          8.3364419937133789     
  0.10890000000000000          6.9763345718383789     
  0.10920000000000001          5.2969608306884766     
  0.10950000000000001          3.3571105003356934     
  0.10979999999999999          1.2289286851882935     
  0.11009999999999999         -1.0052064657211304     
  0.11040000000000001         -3.2599582672119141     
  0.11070000000000001         -5.4511575698852539     
  0.11100000000000000         -7.5001902580261230     
  0.11130000000000000         -9.3383903503417969     
  0.11160000000000002         -10.909393310546875     
  0.11190000000000001         -12.172369956970215     
  0.11220000000000001         -13.101515769958496     
  0.11250000000000000         -13.684587478637695     
  0.11280000000000000         -13.922683715820312     
  0.11309999999999999         -13.826654434204102     
  0.11340000000000001         -13.413948059082031     
  0.11369999999999998         -12.706311225891113     
  0.11400000000000000         -11.725871086120605     
  0.11430000000000000         -10.494191169738770     
  0.11460000000000002         -9.0320072174072266     
  0.11489999999999999         -7.3585500717163086     
  0.11520000000000001         -5.4935765266418457     
  0.11550000000000001         -3.4601643085479736     
  0.11580000000000000         -1.2861725091934204     
  0.11609999999999999         0.99020415544509888     
  0.11640000000000002          3.3210344314575195     
  0.11670000000000001          5.6475467681884766     
  0.11700000000000001          7.8970546722412109     
  0.11730000000000000          9.9890794754028320     
  0.11760000000000000          11.838644027709961     
  0.11789999999999999          13.358760833740234     
  0.11820000000000001          14.470109939575195     
  0.11850000000000001          15.105520248413086     
  0.11880000000000000          15.217553138732910     
  0.11910000000000000          14.784172058105469     
  0.11940000000000002          13.808798789978027     
  0.11970000000000001          12.326237678527832     
  0.12000000000000001          10.401058197021484     
  0.12030000000000000          8.1202869415283203     
  0.12060000000000000          5.5931491851806641     
  0.12089999999999999          2.9427919387817383     
  0.12119999999999999         0.29628425836563110     
  0.12150000000000001         -2.2200217247009277     
  0.12180000000000001         -4.4902548789978027     
  0.12210000000000000         -6.4157800674438477     
  0.12239999999999999         -7.9185147285461426     
  0.12270000000000002         -8.9474430084228516     
  0.12300000000000001         -9.4786167144775391     
  0.12330000000000001         -9.5148391723632812     
  0.12360000000000000         -9.0875148773193359     
  0.12390000000000000         -8.2490568161010742     
  0.12419999999999999         -7.0706405639648438     
  0.12450000000000001         -5.6405572891235352     
  0.12480000000000001         -4.0531134605407715     
  0.12509999999999999         -2.4069337844848633     
  0.12540000000000001        -0.79959022998809814     
  0.12570000000000003         0.68018180131912231     
  0.12600000000000000          1.9534717798233032     
  0.12630000000000002          2.9576013088226318     
  0.12659999999999999          3.6476385593414307     
  0.12690000000000001          3.9966423511505127     
  0.12719999999999998          4.0006136894226074     
  0.12750000000000000          3.6736416816711426     
  0.12780000000000002          3.0474336147308350     
  0.12809999999999999          2.1729903221130371     
  0.12840000000000001          1.1118596792221069     
  0.12869999999999998         -6.5042197704315186E-002
  0.12900000000000000         -1.2795019149780273     
  0.12930000000000003         -2.4546940326690674     
  0.12959999999999999         -3.5173406600952148     
  0.12990000000000002         -4.4004039764404297     
  0.13019999999999998         -5.0503735542297363     
  0.13050000000000000         -5.4288201332092285     
  0.13080000000000003         -5.5146183967590332     
  0.13109999999999999         -5.3052744865417480     
  0.13140000000000002         -4.8164925575256348     
  0.13169999999999998         -4.0837173461914062     
  0.13200000000000001         -3.1560654640197754     
  0.13229999999999997         -2.0930645465850830     
  0.13260000000000000        -0.96629208326339722     
  0.13290000000000002         0.15322034060955048     
  0.13319999999999999          1.1985379457473755     
  0.13350000000000001          2.1053459644317627     
  0.13380000000000003          2.8244059085845947     
  0.13410000000000000          3.3219687938690186     
  0.13440000000000002          3.5799648761749268     
  0.13469999999999999          3.6004569530487061     
  0.13500000000000001          3.4016828536987305     
  0.13529999999999998          3.0192148685455322     
  0.13560000000000000          2.5012903213500977     
  0.13590000000000002          1.9019387960433960     
  0.13619999999999999          1.2822964191436768     
  0.13650000000000001         0.70089602470397949     
  0.13680000000000003         0.20781362056732178     
  0.13710000000000000        -0.15327206254005432     
  0.13740000000000002        -0.35426878929138184     
  0.13769999999999999        -0.38341453671455383     
  0.13800000000000001        -0.24176910519599915     
  0.13829999999999998          5.1420830190181732E-002
  0.13860000000000000         0.46461299061775208     
  0.13890000000000002         0.95833384990692139     
  0.13919999999999999          1.4839228391647339     
  0.13950000000000001          1.9934620857238770     
  0.13979999999999998          2.4416191577911377     
  0.14010000000000000          2.7878246307373047     
  0.14040000000000002          3.0048508644104004     
  0.14069999999999999          3.0748994350433350     
  0.14100000000000001          2.9934093952178955     
  0.14130000000000004          2.7721455097198486     
  0.14160000000000000          2.4305744171142578     
  0.14189999999999997          1.9991033077239990     
  0.14219999999999999          1.5152337551116943     
  0.14250000000000002          1.0159935951232910     
  0.14279999999999998         0.54026263952255249     
  0.14310000000000000         0.12012177705764771     
  0.14339999999999997        -0.22111283242702484     
  0.14369999999999999        -0.46554052829742432     
  0.14400000000000002        -0.60937279462814331     
  0.14429999999999998        -0.65860593318939209     
  0.14460000000000001        -0.62569701671600342     
  0.14490000000000003        -0.53329360485076904     
  0.14520000000000000        -0.40700823068618774     
  0.14550000000000002        -0.27360415458679199     
  0.14579999999999999        -0.16013798117637634     
  0.14610000000000001         -8.7376609444618225E-002
  0.14640000000000003         -7.2535969316959381E-002
  0.14670000000000000        -0.12587787210941315     
  0.14699999999999996        -0.24667401611804962     
  0.14729999999999999        -0.43069705367088318     
  0.14760000000000001        -0.66692328453063965     
  0.14789999999999998        -0.93669605255126953     
  0.14820000000000000         -1.2224713563919067     