  -1.4999999999999999E-002     0.0000000000000000     
  -1.4700000000000000E-002     0.0000000000000000     
  -1.4400000000000000E-002     0.0000000000000000     
  -1.4100000000000000E-002     0.0000000000000000     
  -1.3800000000000000E-002     0.0000000000000000     
  -1.3500000000000000E-002     0.0000000000000000     
  -1.3200000000000000E-002     0.0000000000000000     
  -1.2899999999999998E-002     0.0000000000000000     
  -1.2600000000000000E-002     0.0000000000000000     
  -1.2299999999999998E-002     0.0000000000000000     
  -1.2000000000000000E-002     0.0000000000000000     
  -1.1699999999999999E-002     0.0000000000000000     
  -1.1399999999999999E-002     0.0000000000000000     
  -1.1099999999999999E-002     0.0000000000000000     
  -1.0799999999999999E-002     0.0000000000000000     
  -1.0499999999999999E-002     0.0000000000000000     
  -1.0199999999999999E-002     0.0000000000000000     
  -9.8999999999999991E-003     0.0000000000000000     
  -9.5999999999999992E-003     0.0000000000000000     
  -9.2999999999999992E-003     0.0000000000000000     
  -8.9999999999999993E-003     0.0000000000000000     
  -8.6999999999999994E-003     0.0000000000000000     
  -8.3999999999999995E-003     0.0000000000000000     
  -8.0999999999999996E-003     0.0000000000000000     
  -7.7999999999999988E-003     0.0000000000000000     
  -7.4999999999999997E-003     0.0000000000000000     
  -7.1999999999999998E-003    -7.6423168142035650E-037
  -6.8999999999999981E-003     1.2477950737643279E-036
  -6.5999999999999982E-003    -5.9228126604801908E-035
  -6.3000000000000000E-003     4.1179637999743094E-034
  -6.0000000000000001E-003     4.1395727840557809E-033
  -5.6999999999999985E-003    -8.1736988759286055E-032
  -5.3999999999999986E-003     7.3036496792013844E-031
  -5.1000000000000004E-003    -3.9917723045449359E-030
  -4.7999999999999987E-003     1.2430448389889008E-029
  -4.5000000000000005E-003    -8.3202159712783738E-030
  -4.1999999999999989E-003    -1.0967638995138171E-028
  -3.8999999999999990E-003     5.4101543623849752E-028
  -3.5999999999999990E-003    -1.2486028200300971E-027
  -3.2999999999999991E-003     1.4194392579625586E-027
  -2.9999999999999992E-003    -7.4950515273469057E-028
  -2.6999999999999993E-003     5.7655070223483835E-027
  -2.3999999999999994E-003    -3.8891015190718899E-026
  -2.0999999999999977E-003     1.3228475079790025E-025
  -1.7999999999999995E-003    -2.7937965018612964E-025
  -1.4999999999999979E-003     3.6674387537567392E-025
  -1.1999999999999997E-003    -2.5635637488870509E-025
  -8.9999999999999976E-004     3.6951368927342133E-025
  -5.9999999999999810E-004    -3.1695648227331822E-024
  -2.9999999999999992E-004     1.5399337953601267E-023
   0.0000000000000000         -4.8507855389276100E-023
   3.0000000000000165E-004     1.0896616463174531E-022
   5.9999999999999984E-004    -1.6308975987766512E-022
   9.0000000000000149E-004     6.0302988841118432E-023
   1.2000000000000031E-003     5.8666179455609182E-022
   1.5000000000000013E-003    -2.5319174600809892E-021
   1.8000000000000030E-003     6.9459955467340288E-021
   2.1000000000000012E-003    -1.5203185455463979E-020
   2.3999999999999994E-003     2.8010610287730038E-020
   2.7000000000000010E-003    -4.2237622453979143E-020
   2.9999999999999992E-003     3.6525416874069105E-020
   3.3000000000000008E-003     9.5923088543568339E-020
   3.6000000000000025E-003    -8.2659109127021879E-019
   3.9000000000000007E-003     3.9990100480615939E-018
   4.2000000000000023E-003    -1.6023823534660807E-017
   4.5000000000000005E-003     5.6932082087501418E-017
   4.7999999999999987E-003    -1.8351020418334640E-016
   5.1000000000000004E-003     5.4236133711579610E-016
   5.4000000000000020E-003    -1.4751255594561380E-015
   5.7000000000000037E-003     3.6739219759702232E-015
   5.9999999999999984E-003    -8.2064761683744471E-015
   6.3000000000000000E-003     1.5486950507822075E-014
   6.6000000000000017E-003    -1.9968573032624372E-014
   6.9000000000000034E-003    -7.1645265403968289E-015
   7.2000000000000015E-003     1.5093975331767484E-013
   7.5000000000000032E-003    -5.1109740354868261E-013
   7.8000000000000014E-003     4.6533621140404380E-013
   8.0999999999999996E-003     5.2284791079992843E-012
   8.4000000000000012E-003    -3.9110537725095540E-011
   8.7000000000000029E-003     1.6107981615220979E-010
   9.0000000000000011E-003    -4.2649581089015953E-010
   9.2999999999999992E-003     5.1545273604958197E-010
   9.6000000000000009E-003     1.2424832274149367E-009
   9.8999999999999991E-003    -7.8429698291415662E-009
   1.0200000000000001E-002     1.5823831134298416E-008
   1.0500000000000002E-002     3.3780240826786212E-009
   1.0800000000000004E-002    -8.7608157173235668E-008
   1.1099999999999999E-002     1.3856981695425930E-007
   1.1400000000000000E-002     1.7405160690486809E-007
   1.1700000000000002E-002    -7.0801826268507284E-007
   1.2000000000000004E-002    -1.9889471047918050E-007
   1.2300000000000002E-002     2.3021307242743205E-006
   1.2600000000000000E-002     8.1327732459612889E-007
   1.2900000000000002E-002    -6.5477661337354220E-006
   1.3200000000000000E-002    -6.5268186517641880E-006
   1.3500000000000002E-002     1.9924826119677164E-005
   1.3800000000000003E-002     7.6931697549298406E-005
   1.4100000000000001E-002     1.5153095591813326E-004
   1.4400000000000000E-002     2.3641050211153924E-004
   1.4700000000000001E-002     3.4570824936963618E-004
   1.4999999999999999E-002     5.1353056915104389E-004
   1.5300000000000001E-002     7.8867434058338404E-004
   1.5600000000000003E-002     1.2254063040018082E-003
   1.5899999999999997E-002     1.8841610290110111E-003
   1.6199999999999999E-002     2.8483094647526741E-003
   1.6500000000000001E-002     4.2370352894067764E-003
   1.6800000000000002E-002     6.2140249647200108E-003
   1.7100000000000004E-002     8.9943772181868553E-003
   1.7400000000000006E-002     1.2845459394156933E-002
   1.7700000000000000E-002     1.8085360527038574E-002
   1.8000000000000002E-002     2.5078106671571732E-002
   1.8300000000000004E-002     3.4233625978231430E-002
   1.8600000000000005E-002     4.5995537191629410E-002
   1.8900000000000000E-002     6.0793828219175339E-002
   1.9200000000000002E-002     7.8988201916217804E-002
   1.9500000000000003E-002    0.10081305354833603     
   1.9799999999999998E-002    0.12628932297229767     
   2.0100000000000000E-002    0.15510775148868561     
   2.0400000000000001E-002    0.18649734556674957     
   2.0700000000000003E-002    0.21910433471202850     
   2.0999999999999998E-002    0.25088101625442505     
   2.1299999999999999E-002    0.27899014949798584     
   2.1600000000000001E-002    0.29976040124893188     
   2.1900000000000003E-002    0.30873721837997437     
   2.2200000000000004E-002    0.30082437396049500     
   2.2500000000000006E-002    0.27050128579139709     
   2.2800000000000001E-002    0.21220195293426514     
   2.3100000000000002E-002    0.12083283811807632     
   2.3400000000000004E-002    -7.6325917616486549E-003
   2.3699999999999999E-002   -0.17537830770015717     
   2.4000000000000000E-002   -0.38216835260391235     
   2.4300000000000002E-002   -0.62459957599639893     
   2.4599999999999997E-002   -0.89569109678268433     
   2.4900000000000005E-002    -1.1845965385437012     
   2.5200000000000000E-002    -1.4765663146972656     
   2.5499999999999995E-002    -1.7535846233367920     
   2.5800000000000003E-002    -1.9950128793716431     
   2.6099999999999998E-002    -2.1789817810058594     
   2.6400000000000007E-002    -2.2839133739471436     
   2.6700000000000002E-002    -2.2902984619140625     
   2.6999999999999996E-002    -2.1827232837677002     
   2.7300000000000005E-002    -1.9515339136123657     
   2.7600000000000000E-002    -1.5942867994308472     
   2.7900000000000008E-002    -1.1169130802154541     
   2.8200000000000003E-002   -0.53388607501983643     
   2.8499999999999998E-002    0.13201561570167542     
   2.8800000000000006E-002    0.85074567794799805     
   2.9100000000000001E-002     1.5870838165283203     
   2.9400000000000003E-002     2.3025910854339600     
   2.9700000000000004E-002     2.9587018489837646     
   3.0000000000000006E-002     3.5192878246307373     
   3.0300000000000001E-002     3.9532549381256104     
   3.0600000000000002E-002     4.2370104789733887     
   3.0900000000000004E-002     4.3558464050292969     
   3.1199999999999999E-002     4.3051571846008301     
   3.1500000000000007E-002     4.0902652740478516     
   3.1800000000000002E-002     3.7258234024047852     
   3.2099999999999997E-002     3.2344033718109131     
   3.2400000000000005E-002     2.6445465087890625     
   3.2700000000000000E-002     1.9884753227233887     
   3.3000000000000002E-002     1.2997817993164062     
   3.3300000000000003E-002    0.61109602451324463     
   3.3599999999999998E-002    -4.7876123338937759E-002
   3.3900000000000000E-002   -0.65188568830490112     
   3.4200000000000001E-002    -1.1812896728515625     
   3.4500000000000003E-002    -1.6226257085800171     
   3.4799999999999998E-002    -1.9687519073486328     
   3.5099999999999999E-002    -2.2182819843292236     
   3.5400000000000001E-002    -2.3754415512084961     
   3.5699999999999996E-002    -2.4486050605773926     
   3.6000000000000004E-002    -2.4497194290161133     
   3.6299999999999999E-002    -2.3932876586914062     
   3.6600000000000008E-002    -2.2951602935791016     
   3.6900000000000002E-002    -2.1719725131988525     
   3.7199999999999997E-002    -2.0397806167602539     
   3.7500000000000006E-002    -1.9135082960128784     
   3.7800000000000000E-002    -1.8061572313308716     
   3.8100000000000009E-002    -1.7277262210845947     
   3.8400000000000004E-002    -1.6845972537994385     
   3.8699999999999998E-002    -1.6790009737014771     
   3.9000000000000007E-002    -1.7080489397048950     
   3.9300000000000002E-002    -1.7637612819671631     
   3.9600000000000003E-002    -1.8329944610595703     
   3.9900000000000005E-002    -1.8976917266845703     
   4.0200000000000000E-002    -1.9364702701568604     
   4.0500000000000001E-002    -1.9251986742019653     
   4.0800000000000003E-002    -1.8395069837570190     
   4.1100000000000005E-002    -1.6571356058120728     
   4.1399999999999999E-002    -1.3600131273269653     
   4.1700000000000008E-002   -0.93750792741775513     
   4.2000000000000003E-002   -0.38782548904418945     
   4.2299999999999997E-002    0.27982974052429199     
   4.2600000000000006E-002     1.0449471473693848     
   4.2900000000000001E-002     1.8759645223617554     
   4.3200000000000002E-002     2.7313079833984375     
   4.3500000000000004E-002     3.5623238086700439     
   4.3799999999999999E-002     4.3163170814514160     
   4.4100000000000000E-002     4.9407358169555664     
   4.4400000000000002E-002     5.3874039649963379     
   4.4700000000000004E-002     5.6165671348571777     
   4.4999999999999998E-002     5.6005630493164062     
   4.5300000000000000E-002     5.3264293670654297     
   4.5600000000000002E-002     4.7972669601440430     
   4.5899999999999996E-002     4.0320720672607422     
   4.6200000000000005E-002     3.0647056102752686     
   4.6500000000000000E-002     1.9413205385208130     
   4.6799999999999994E-002    0.71701395511627197     
   4.7100000000000003E-002   -0.54827266931533813     
   4.7399999999999998E-002    -1.7941938638687134     
   4.7700000000000006E-002    -2.9629986286163330     
   4.8000000000000001E-002    -4.0041890144348145     
   4.8300000000000010E-002    -4.8757801055908203     
   4.8600000000000004E-002    -5.5466899871826172     
   4.8899999999999999E-002    -5.9972043037414551     
   4.9200000000000008E-002    -6.2178864479064941     
   4.9500000000000002E-002    -6.2099738121032715     
   4.9800000000000011E-002    -5.9819874763488770     
   5.0100000000000006E-002    -5.5500168800354004     
   5.0400000000000000E-002    -4.9351167678833008     
   5.0700000000000009E-002    -4.1622223854064941     
   5.1000000000000004E-002    -3.2600138187408447     
   5.1299999999999998E-002    -2.2589323520660400     
   5.1600000000000007E-002    -1.1926473379135132     
   5.1900000000000002E-002    -9.6291191875934601E-002
   5.2200000000000010E-002    0.99224865436553955     
   5.2500000000000005E-002     2.0335850715637207     
   5.2800000000000000E-002     2.9879257678985596     
   5.3099999999999994E-002     3.8154728412628174     
   5.3400000000000003E-002     4.4800906181335449     
   5.3699999999999998E-002     4.9496040344238281     
   5.4000000000000006E-002     5.2001771926879883     
   5.4300000000000001E-002     5.2178931236267090     
   5.4599999999999996E-002     5.0003633499145508     
   5.4900000000000004E-002     4.5597438812255859     
   5.5199999999999999E-002     3.9207286834716797     
   5.5499999999999994E-002     3.1223363876342773     
   5.5800000000000002E-002     2.2139813899993896     
   5.6099999999999997E-002     1.2528686523437500     
   5.6400000000000006E-002    0.30132162570953369     
   5.6700000000000000E-002   -0.58053648471832275     
   5.6999999999999995E-002    -1.3365640640258789     
   5.7300000000000004E-002    -1.9212744235992432     
   5.7599999999999998E-002    -2.3030424118041992     
   5.7900000000000007E-002    -2.4656126499176025     
   5.8200000000000002E-002    -2.4117326736450195     
   5.8499999999999996E-002    -2.1604185104370117     
   5.8800000000000005E-002    -1.7469527721405029     
   5.9100000000000000E-002    -1.2191516160964966     
   5.9400000000000008E-002   -0.63227784633636475     
   5.9700000000000003E-002    -4.5319117605686188E-002
   6.0000000000000012E-002    0.48536479473114014     
   6.0300000000000006E-002    0.91048967838287354     
   6.0600000000000001E-002     1.1926954984664917     
   6.0900000000000010E-002     1.3094207048416138     
   6.1200000000000004E-002     1.2555030584335327     
   6.1500000000000013E-002     1.0426489114761353     
   6.1800000000000008E-002    0.69911903142929077     
   6.2100000000000002E-002    0.26686632633209229     
   6.2399999999999997E-002   -0.20337276160717010     
   6.2700000000000006E-002   -0.65500521659851074     
   6.3000000000000000E-002    -1.0334341526031494     
   6.3300000000000009E-002    -1.2892771959304810     
   6.3600000000000004E-002    -1.3841600418090820     
   6.3899999999999998E-002    -1.2959088087081909     
   6.4199999999999993E-002    -1.0184757709503174     
   6.4500000000000002E-002   -0.56605231761932373     
   6.4800000000000010E-002     3.0129797756671906E-002
   6.5100000000000005E-002    0.72290301322937012     
   6.5400000000000000E-002     1.4533017873764038     
   6.5700000000000008E-002     2.1577262878417969     
   6.5999999999999989E-002     2.7714319229125977     
   6.6299999999999998E-002     3.2370243072509766     
   6.6600000000000006E-002     3.5089573860168457     
   6.6900000000000001E-002     3.5585432052612305     
   6.7199999999999996E-002     3.3772459030151367     
   6.7500000000000004E-002     2.9767441749572754     
   6.7800000000000013E-002     2.3886458873748779     
   6.8099999999999994E-002     1.6600185632705688     
   6.8400000000000002E-002    0.84993553161621094     
   6.8700000000000011E-002     2.1650534123182297E-002
   6.8999999999999992E-002   -0.76262634992599487     
   6.9300000000000000E-002    -1.4488627910614014     
   6.9600000000000009E-002    -1.9966504573822021     
   6.9900000000000004E-002    -2.3813402652740479     
   7.0199999999999999E-002    -2.5988957881927490     
   7.0500000000000007E-002    -2.6622433662414551     
   7.0800000000000016E-002    -2.6014494895935059     
   7.1099999999999997E-002    -2.4587457180023193     
   7.1400000000000005E-002    -2.2825767993927002     
   7.1700000000000000E-002    -2.1248767375946045     
   7.1999999999999995E-002    -2.0314276218414307     
   7.2300000000000003E-002    -2.0406720638275146     
   7.2600000000000012E-002    -2.1785802841186523     
   7.2900000000000006E-002    -2.4559197425842285     
   7.3200000000000001E-002    -2.8697302341461182     
   7.3499999999999996E-002    -3.4012756347656250     
   7.3800000000000004E-002    -4.0207266807556152     
   7.4099999999999999E-002    -4.6883902549743652     
   7.4400000000000008E-002    -5.3576035499572754     
   7.4700000000000003E-002    -5.9800653457641602     
   7.5000000000000011E-002    -6.5065784454345703     
   7.5299999999999992E-002    -6.8910880088806152     
   7.5600000000000001E-002    -7.0932617187500000     
   7.5900000000000009E-002    -7.0784931182861328     
   7.6200000000000004E-002    -6.8197836875915527     
   7.6499999999999999E-002    -6.2996473312377930     
   7.6800000000000007E-002    -5.5084495544433594     
   7.7099999999999988E-002    -4.4475431442260742     
   7.7399999999999997E-002    -3.1265935897827148     
   7.7700000000000005E-002    -1.5665793418884277     
   7.8000000000000014E-002    0.20055861771106720     
   7.8299999999999995E-002     2.1341452598571777     
   7.8600000000000003E-002     4.1811914443969727     
   7.8900000000000012E-002     6.2813224792480469     
   7.9199999999999993E-002     8.3653869628906250     
   7.9500000000000001E-002     10.358174324035645     
   7.9800000000000010E-002     12.183188438415527     
   8.0100000000000018E-002     13.762489318847656     
   8.0399999999999999E-002     15.023964881896973     
   8.0700000000000008E-002     15.902920722961426     
   8.1000000000000003E-002     16.346649169921875     
   8.1299999999999997E-002     16.318538665771484     
   8.1600000000000006E-002     15.799159049987793     
   8.1900000000000014E-002     14.789541244506836     
   8.2199999999999995E-002     13.311527252197266     
   8.2500000000000004E-002     11.407273292541504     
   8.2799999999999999E-002     9.1369075775146484     
   8.3100000000000007E-002     6.5781493186950684     
   8.3400000000000002E-002     3.8203575611114502     
   8.3700000000000011E-002    0.96231341361999512     
   8.4000000000000005E-002    -1.8923159837722778     
   8.4300000000000000E-002    -4.6413793563842773     
   8.4599999999999995E-002    -7.1845159530639648     
   8.4900000000000003E-002    -9.4321584701538086     
   8.5199999999999998E-002    -11.304841995239258     
   8.5500000000000007E-002    -12.737703323364258     
   8.5800000000000001E-002    -13.686187744140625     
   8.6100000000000010E-002    -14.120364189147949     
   8.6399999999999991E-002    -14.035148620605469     
   8.6699999999999999E-002    -13.444104194641113     
   8.7000000000000008E-002    -12.382548332214355     
   8.7300000000000003E-002    -10.908300399780273     
   8.7599999999999997E-002    -9.0936164855957031     
   8.7900000000000006E-002    -7.0317811965942383     
   8.8200000000000014E-002    -4.8244299888610840     
   8.8499999999999995E-002    -2.5839111804962158     
   8.8800000000000004E-002   -0.42485028505325317     
   8.9100000000000013E-002     1.5434314012527466     
   8.9399999999999993E-002     3.2180168628692627     
   8.9700000000000002E-002     4.5149736404418945     
   9.0000000000000011E-002     5.3696155548095703     
   9.0299999999999991E-002     5.7452087402343750     
   9.0600000000000000E-002     5.6335825920104980     
   9.0900000000000009E-002     5.0565762519836426     
   9.1200000000000017E-002     4.0676484107971191     
   9.1499999999999998E-002     2.7452208995819092     
   9.1800000000000007E-002     1.1917270421981812     
   9.2100000000000001E-002   -0.47690704464912415     
   9.2399999999999996E-002    -2.1357827186584473     
   9.2700000000000005E-002    -3.6618897914886475     
   9.3000000000000013E-002    -4.9433646202087402     
   9.3300000000000008E-002    -5.8848934173583984     
   9.3600000000000003E-002    -6.4188165664672852     
   9.3899999999999997E-002    -6.5059995651245117     
   9.4200000000000006E-002    -6.1420354843139648     
   9.4500000000000001E-002    -5.3555274009704590     
   9.4800000000000009E-002    -4.2060370445251465     
   9.5100000000000004E-002    -2.7813117504119873     
   9.5399999999999999E-002    -1.1867396831512451     
   9.5699999999999993E-002    0.45938244462013245     
   9.6000000000000002E-002     2.0381011962890625     
   9.6300000000000011E-002     3.4381518363952637     
   9.6600000000000005E-002     4.5645384788513184     
   9.6900000000000000E-002     5.3470921516418457     
   9.7200000000000009E-002     5.7452034950256348     
   9.7499999999999989E-002     5.7521324157714844     
   9.7799999999999998E-002     5.3926496505737305     
   9.8100000000000007E-002     4.7225413322448730     
   9.8400000000000015E-002     3.8216509819030762     
   9.8699999999999996E-002     2.7866725921630859     
   9.9000000000000005E-002     1.7235159873962402     
   9.9300000000000013E-002    0.73384767770767212     
   9.9599999999999994E-002    -9.0006910264492035E-002
   9.9900000000000003E-002   -0.67756193876266479     
  0.10020000000000001        -0.98328387737274170     
  0.10049999999999999        -0.99032521247863770     
  0.10080000000000000        -0.71539735794067383     
  0.10110000000000001        -0.19929109513759613     
  0.10140000000000000         0.49106210470199585     
  0.10170000000000000          1.2754764556884766     
  0.10200000000000001          2.0678284168243408     
  0.10230000000000002          2.7819652557373047     
  0.10260000000000000          3.3478577136993408     
  0.10290000000000001          3.7102477550506592     
  0.10320000000000000          3.8402302265167236     
  0.10350000000000001          3.7345504760742188     
  0.10380000000000000          3.4126021862030029     
  0.10410000000000001          2.9182024002075195     
  0.10440000000000001          2.3072907924652100     
  0.10470000000000000          1.6458568572998047     
  0.10500000000000000         0.99848842620849609     
  0.10530000000000000         0.42219015955924988     
  0.10560000000000000         -3.8896948099136353E-002
  0.10590000000000001        -0.35926142334938049     
  0.10620000000000000        -0.53195166587829590     
  0.10650000000000001        -0.56868541240692139     
  0.10679999999999999        -0.49585941433906555     
  0.10710000000000000        -0.35128784179687500     
  0.10740000000000001        -0.17677438259124756     
  0.10770000000000000         -1.4346941374242306E-002
  0.10800000000000000         0.10066461563110352     
  0.10830000000000001         0.14230573177337646     
  0.10859999999999999          9.5049932599067688E-002
  0.10890000000000000         -4.1251655668020248E-002
  0.10920000000000001        -0.25923547148704529     
  0.10950000000000001        -0.54064601659774780     
  0.10979999999999999        -0.86158621311187744     
  0.11009999999999999         -1.1985418796539307     
  0.11040000000000001         -1.5252498388290405     
  0.11070000000000001         -1.8236311674118042     
  0.11100000000000000         -2.0787754058837891     
  0.11130000000000000         -2.2830476760864258     
  0.11160000000000002         -2.4375333786010742     
  0.11190000000000001         -2.5450997352600098     
  0.11220000000000001         -2.6163139343261719     
  0.11250000000000000         -2.6621789932250977     
  0.11280000000000000         -2.6944577693939209     
  0.11309999999999999         -2.7247157096862793     
  0.11340000000000001         -2.7598338127136230     
  0.11369999999999998         -2.8045043945312500     
  0.11400000000000000         -2.8575060367584229     
  0.11430000000000000         -2.9150321483612061     
  0.11460000000000002         -2.9697015285491943     
  0.11489999999999999         -3.0121543407440186     
  0.11520000000000001         -3.0324852466583252     
  0.11550000000000001         -3.0214142799377441     
  0.11580000000000000         -2.9725756645202637     
  0.11609999999999999         -2.8822672367095947     
  0.11640000000000002         -2.7520980834960938     
  0.11670000000000001         -2.5855519771575928     
  0.11700000000000001         -2.3895235061645508     
  0.11730000000000000         -2.1718788146972656     
  0.11760000000000000         -1.9385396242141724     
  0.11789999999999999         -1.6959393024444580     
  0.11820000000000001         -1.4437679052352905     
  0.11850000000000001         -1.1803903579711914     
  0.11880000000000000        -0.89894199371337891     
  0.11910000000000000        -0.58972626924514771     
  0.11940000000000002        -0.24472041428089142     
  0.11970000000000001         0.14487291872501373     
  0.12000000000000001         0.57955390214920044     
  0.12030000000000000          1.0566204786300659     
  0.12060000000000000          1.5651769638061523     
  0.12089999999999999          2.0876073837280273     
  0.12119999999999999          2.6050925254821777     
  0.12150000000000001          3.0945913791656494     
  0.12180000000000001          3.5400629043579102     
  0.12210000000000000          3.9306302070617676     
  0.12239999999999999          4.2668633460998535     
  0.12270000000000002          4.5622859001159668     
  0.12300000000000001          4.8380985260009766     
  0.12330000000000001          5.1268267631530762     
  0.12360000000000000          5.4603576660156250     
  0.12390000000000000          5.8672566413879395     
  0.12419999999999999          6.3654179573059082     
  0.12450000000000001          6.9548840522766113     
  0.12480000000000001          7.6157093048095703     
  0.12509999999999999          8.3045616149902344     
  0.12540000000000001          8.9599246978759766     
  0.12570000000000003          9.5062217712402344     
  0.12600000000000000          9.8645420074462891     
  0.12630000000000002          9.9618883132934570     
  0.12659999999999999          9.7432022094726562     
  0.12690000000000001          9.1797771453857422     
  0.12719999999999998          8.2739467620849609     
  0.12750000000000000          7.0648684501647949     
  0.12780000000000002          5.6182646751403809     
  0.12809999999999999          4.0257205963134766     
  0.12840000000000001          2.3852000236511230     
  0.12869999999999998         0.78797739744186401     
  0.12900000000000000        -0.69406056404113770     
  0.12930000000000003         -2.0311455726623535     
  0.12959999999999999         -3.2327530384063721     
  0.12990000000000002         -4.3632168769836426     
  0.13019999999999998         -5.5288577079772949     
  0.13050000000000000         -6.8667168617248535     
  0.13080000000000003         -8.5332164764404297     
  0.13109999999999999         -10.664089202880859     
  0.13140000000000002         -13.362970352172852     
  0.13169999999999998         -16.663278579711914     
  0.13200000000000001         -20.513580322265625     
  0.13229999999999997         -24.763694763183594     
  0.13260000000000000         -29.154422760009766     
  0.13290000000000002         -33.342391967773438     
  0.13319999999999999         -36.908065795898438     
  0.13350000000000001         -39.400661468505859     
  0.13380000000000003         -40.377696990966797     
  0.13410000000000000         -39.449474334716797     
  0.13440000000000002         -36.330471038818359     
  0.13469999999999999         -30.873065948486328     
  0.13500000000000001         -23.106378555297852     
  0.13529999999999998         -13.241014480590820     
  0.13560000000000000         -1.6758569478988647     
  0.13590000000000002          11.030331611633301     
  0.13619999999999999          24.187688827514648     
  0.13650000000000001          37.026695251464844     
  0.13680000000000003          48.764205932617188     
  0.13710000000000000          58.645687103271484     
  0.13740000000000002          66.030380249023438     
  0.13769999999999999          70.417907714843750     
  0.13800000000000001          71.500595092773438     
  0.13829999999999998          69.186325073242188     
  0.13860000000000000          63.589389801025391     
  0.13890000000000002          55.042972564697266     
  0.13919999999999999          44.045436859130859     
  0.13950000000000001          31.239828109741211     
  0.13979999999999998          17.359081268310547     
  0.14010000000000000          3.1642789840698242     
  0.14040000000000002         -10.585342407226562     
  0.14069999999999999         -23.205284118652344     
  0.14100000000000001         -34.105007171630859     
  0.14130000000000004         -42.830459594726562     
  0.14160000000000000         -49.079204559326172     
  0.14189999999999997         -52.702152252197266     
  0.14219999999999999         -53.716400146484375     
  0.14250000000000002         -52.266998291015625     
  0.14279999999999998         -48.633384704589844     
  0.14310000000000000         -43.182075500488281     
  0.14339999999999997         -36.346931457519531     
  0.14369999999999999         -28.601730346679688     
  0.14400000000000002         -20.413589477539062     
  0.14429999999999998         -12.239948272705078     
  0.14460000000000001         -4.4776115417480469     
  0.14490000000000003          2.5335924625396729     
  0.14520000000000000          8.5335292816162109     
  0.14550000000000002          13.354013442993164     
  0.14579999999999999          16.901462554931641     
  0.14610000000000001          19.176675796508789     
  0.14640000000000003          20.240232467651367     
  0.14670000000000000          20.218391418457031     
  0.14699999999999996          19.280332565307617     
  0.14729999999999999          17.616065979003906     
  0.14760000000000001          15.434792518615723     
  0.14789999999999998          12.932793617248535     
  0.14820000000000000          10.299737930297852     