  -1.4999999999999999E-002     0.0000000000000000     
  -1.4700000000000000E-002     0.0000000000000000     
  -1.4400000000000000E-002     0.0000000000000000     
  -1.4100000000000000E-002     0.0000000000000000     
  -1.3800000000000000E-002     0.0000000000000000     
  -1.3500000000000000E-002     0.0000000000000000     
  -1.3200000000000000E-002     0.0000000000000000     
  -1.2899999999999998E-002     0.0000000000000000     
  -1.2600000000000000E-002     0.0000000000000000     
  -1.2299999999999998E-002     0.0000000000000000     
  -1.2000000000000000E-002     0.0000000000000000     
  -1.1699999999999999E-002     0.0000000000000000     
  -1.1399999999999999E-002     0.0000000000000000     
  -1.1099999999999999E-002     0.0000000000000000     
  -1.0799999999999999E-002     0.0000000000000000     
  -1.0499999999999999E-002     0.0000000000000000     
  -1.0199999999999999E-002     0.0000000000000000     
  -9.8999999999999991E-003     0.0000000000000000     
  -9.5999999999999992E-003     0.0000000000000000     
  -9.2999999999999992E-003     0.0000000000000000     
  -8.9999999999999993E-003     0.0000000000000000     
  -8.6999999999999994E-003     0.0000000000000000     
  -8.3999999999999995E-003     0.0000000000000000     
  -8.0999999999999996E-003     0.0000000000000000     
  -7.7999999999999988E-003     0.0000000000000000     
  -7.4999999999999997E-003     0.0000000000000000     
  -7.1999999999999998E-003     0.0000000000000000     
  -6.8999999999999981E-003     0.0000000000000000     
  -6.5999999999999982E-003     0.0000000000000000     
  -6.3000000000000000E-003     0.0000000000000000     
  -6.0000000000000001E-003     0.0000000000000000     
  -5.6999999999999985E-003     0.0000000000000000     
  -5.3999999999999986E-003     0.0000000000000000     
  -5.1000000000000004E-003     0.0000000000000000     
  -4.7999999999999987E-003     0.0000000000000000     
  -4.5000000000000005E-003     0.0000000000000000     
  -4.1999999999999989E-003     0.0000000000000000     
  -3.8999999999999990E-003     0.0000000000000000     
  -3.5999999999999990E-003     0.0000000000000000     
  -3.2999999999999991E-003     0.0000000000000000     
  -2.9999999999999992E-003     0.0000000000000000     
  -2.6999999999999993E-003     0.0000000000000000     
  -2.3999999999999994E-003     0.0000000000000000     
  -2.0999999999999977E-003     0.0000000000000000     
  -1.7999999999999995E-003     0.0000000000000000     
  -1.4999999999999979E-003     0.0000000000000000     
  -1.1999999999999997E-003    -4.4462432361467996E-037
  -8.9999999999999976E-004    -2.5766190330965783E-036
  -5.9999999999999810E-004     5.3427368541168013E-035
  -2.9999999999999992E-004    -1.8990346310855100E-034
   0.0000000000000000         -6.6843019614492741E-034
   3.0000000000000165E-004     3.5092700163551663E-033
   5.9999999999999984E-004    -4.2433048340662228E-034
   9.0000000000000149E-004    -2.4257493339270273E-032
   1.2000000000000031E-003     5.7672941386761999E-032
   1.5000000000000013E-003     3.2335417271570191E-032
   1.8000000000000030E-003    -4.7331620005254088E-031
   2.1000000000000012E-003     8.3709022917952274E-031
   2.3999999999999994E-003     5.9564033776363312E-031
   2.7000000000000010E-003    -4.0658105220423750E-030
   2.9999999999999992E-003     8.0937517827716340E-030
   3.3000000000000008E-003    -2.2342898410376557E-029
   3.6000000000000025E-003    -1.5536168028532091E-029
   3.9000000000000007E-003     1.0008954763838592E-027
   4.2000000000000023E-003    -6.7812216070879760E-027
   4.5000000000000005E-003     1.9131756066234266E-026
   4.7999999999999987E-003     3.4937539736996468E-026
   5.1000000000000004E-003    -6.2881676092120201E-025
   5.4000000000000020E-003     3.3077803818078802E-024
   5.7000000000000037E-003    -9.8583165501687181E-024
   5.9999999999999984E-003     1.0186115886874179E-023
   6.3000000000000000E-003     6.7235526512965722E-023
   6.6000000000000017E-003    -4.6762695066585562E-022
   6.9000000000000034E-003     1.6731635453857210E-021
   7.2000000000000015E-003    -3.7771683979799602E-021
   7.5000000000000032E-003     3.5138850283021130E-021
   7.8000000000000014E-003     1.2893807554011179E-020
   8.0999999999999996E-003    -7.7259180133827184E-020
   8.4000000000000012E-003     2.2379505130910068E-019
   8.7000000000000029E-003    -3.9961288544271056E-019
   9.0000000000000011E-003     3.2018491312535433E-019
   9.2999999999999992E-003     4.4479884930182266E-020
   9.6000000000000009E-003     4.5442096237639853E-018
   9.8999999999999991E-003    -5.0818671295399486E-017
   1.0200000000000001E-002     3.1716647802541511E-016
   1.0500000000000002E-002    -1.5282914678557317E-015
   1.0800000000000004E-002     6.2405036514790350E-015
   1.1099999999999999E-002    -2.1977469265813024E-014
   1.1400000000000000E-002     6.3971078637548750E-014
   1.1700000000000002E-002    -1.2809266212328874E-013
   1.2000000000000004E-002    -1.7385154777512305E-014
   1.2300000000000002E-002     1.7031832817639798E-012
   1.2600000000000000E-002    -9.5597767444206789E-012
   1.2900000000000002E-002     3.2668780367271290E-011
   1.3200000000000000E-002    -6.7468976374173293E-011
   1.3500000000000002E-002     2.0963438513688704E-011
   1.3800000000000003E-002     3.9957201847003847E-010
   1.4100000000000001E-002    -1.3758993199865286E-009
   1.4400000000000000E-002     1.3331943913011952E-009
   1.4700000000000001E-002     4.4606095265551205E-009
   1.4999999999999999E-002    -1.4849084833775022E-008
   1.5300000000000001E-002     6.8272623175098599E-010
   1.5600000000000003E-002     6.3195838817255213E-008
   1.5899999999999997E-002    -4.9979401094136144E-008
   1.6199999999999999E-002    -2.3172368307831527E-007
   1.6500000000000001E-002     1.5655803985388402E-007
   1.6800000000000002E-002     7.4173689505080984E-007
   1.7100000000000004E-002    -1.6495394352454931E-007
   1.7400000000000006E-002    -2.0740985497392352E-006
   1.7700000000000000E-002    -4.5159324374208916E-007
   1.8000000000000002E-002     7.7368964758898348E-006
   1.8300000000000004E-002     1.8284111510303951E-005
   1.8600000000000005E-002     2.5717250536713742E-005
   1.8900000000000000E-002     3.4513176960918155E-005
   1.9200000000000002E-002     5.6798554662230256E-005
   1.9500000000000003E-002     9.8504024338295828E-005
   1.9799999999999998E-002     1.5678874148068169E-004
   2.0100000000000000E-002     2.3506388218142230E-004
   2.0400000000000001E-002     3.5325091332365569E-004
   2.0700000000000003E-002     5.3751396629440201E-004
   2.0999999999999998E-002     8.0779542018432834E-004
   2.1299999999999999E-002     1.1866519323072422E-003
   2.1600000000000001E-002     1.7172504227615654E-003
   2.1900000000000003E-002     2.4621967619820953E-003
   2.2200000000000004E-002     3.4875179948069129E-003
   2.2500000000000006E-002     4.8617875968005320E-003
   2.2800000000000001E-002     6.6736446900960977E-003
   2.3100000000000002E-002     9.0360764748730893E-003
   2.3400000000000004E-002     1.2064534421185380E-002
   2.3699999999999999E-002     1.5860782479071467E-002
   2.4000000000000000E-002     2.0520634547394612E-002
   2.4300000000000002E-002     2.6133880149354138E-002
   2.4599999999999997E-002     3.2752870419721303E-002
   2.4900000000000005E-002     4.0355656185592670E-002
   2.5200000000000000E-002     4.8834111687059201E-002
   2.5499999999999995E-002     5.7994133278672866E-002
   2.5800000000000003E-002     6.7526957703252677E-002
   2.6099999999999998E-002     7.6969986811983748E-002
   2.6400000000000007E-002     8.5702055153517698E-002
   2.6700000000000002E-002     9.2970015303898812E-002
   2.6999999999999996E-002     9.7917753759252601E-002
   2.7300000000000005E-002     9.9596116385219702E-002
   2.7600000000000000E-002     9.7007930569409595E-002
   2.7900000000000008E-002     8.9206492581729968E-002
   2.8200000000000003E-002     7.5402574777974074E-002
   2.8499999999999998E-002     5.5043647759670522E-002
   2.8800000000000006E-002     2.7883982980435595E-002
   2.9100000000000001E-002    -5.9088858619433804E-003
   2.9400000000000003E-002    -4.5651225570695564E-002
   2.9700000000000004E-002    -9.0138704828040872E-002
   3.0000000000000006E-002   -0.13767248157611078     
   3.0300000000000001E-002   -0.18610621699402419     
   3.0600000000000002E-002   -0.23293495855119062     
   3.0900000000000004E-002   -0.27544700326912430     
   3.1199999999999999E-002   -0.31095221230232717     
   3.1500000000000007E-002   -0.33700507112791733     
   3.1800000000000002E-002   -0.35158319982332920     
   3.2099999999999997E-002   -0.35329749801483601     
   3.2400000000000005E-002   -0.34157443953124655     
   3.2700000000000000E-002   -0.31678277766426355     
   3.3000000000000002E-002   -0.28021001016717229     
   3.3300000000000003E-002   -0.23404328140644903     
   3.3599999999999998E-002   -0.18123379354321134     
   3.3900000000000000E-002   -0.12528101119330337     
   3.4200000000000001E-002    -7.0023765414827466E-002
   3.4500000000000003E-002    -1.9297787652478748E-002
   3.4799999999999998E-002     2.3373281237946797E-002
   3.5099999999999999E-002     5.4989231209349065E-002
   3.5400000000000001E-002     7.3334684239111603E-002
   3.5699999999999996E-002     7.7150754527558707E-002
   3.6000000000000004E-002     6.6290332328521107E-002
   3.6299999999999999E-002     4.1750346208098366E-002
   3.6600000000000008E-002     5.5351066659480724E-003
   3.6900000000000002E-002    -3.9459730433199447E-002
   3.7199999999999997E-002    -8.9565071644887695E-002
   3.7500000000000006E-002   -0.14053076883928384     
   3.7800000000000000E-002   -0.18785854452107564     
   3.8100000000000009E-002   -0.22706451243975678     
   3.8400000000000004E-002   -0.25397079381638310     
   3.8699999999999998E-002   -0.26488072267122575     
   3.9000000000000007E-002   -0.25683912313861690     
   3.9300000000000002E-002   -0.22789992364161371     
   3.9600000000000003E-002   -0.17717696776788205     
   3.9900000000000005E-002   -0.10491506885288526     
   4.0200000000000000E-002    -1.2563601363587890E-002
   4.0500000000000001E-002     9.7361570773621398E-002
   4.0800000000000003E-002    0.22130987174188377     
   4.1100000000000005E-002    0.35494569381086283     
   4.1399999999999999E-002    0.49339236847783141     
   4.1700000000000008E-002    0.63142404780490935     
   4.2000000000000003E-002    0.76378044313158355     
   4.2299999999999997E-002    0.88532153420808157     
   4.2600000000000006E-002    0.99129228750593512     
   4.2900000000000001E-002     1.0775584785182062     
   4.3200000000000002E-002     1.1406102442508939     
   4.3500000000000004E-002     1.1776702932729606     
   4.3799999999999999E-002     1.1866908443875843     
   4.4100000000000000E-002     1.1662881206696127     
   4.4400000000000002E-002     1.1158569071268545     
   4.4700000000000004E-002     1.0355219112524452     
   4.4999999999999998E-002    0.92603712297460561     
   4.5300000000000000E-002    0.78889766332101630     
   4.5600000000000002E-002    0.62645204128221721     
   4.5899999999999996E-002    0.44200460381523143     
   4.6200000000000005E-002    0.23986210928049889     
   4.6500000000000000E-002     2.5322236596014125E-002
   4.6799999999999994E-002   -0.19523667760146068     
   4.7100000000000003E-002   -0.41440081756296454     
   4.7399999999999998E-002   -0.62404997935905904     
   4.7700000000000006E-002   -0.81560831857128591     
   4.8000000000000001E-002   -0.98056389333878968     
   4.8300000000000010E-002    -1.1109200688078928     
   4.8600000000000004E-002    -1.1996286132198009     
   4.8899999999999999E-002    -1.2413933961389603     
   4.9200000000000008E-002    -1.2330961236420137     
   4.9500000000000002E-002    -1.1740872396672231     
   4.9800000000000011E-002    -1.0664393639032497     
   5.0100000000000006E-002   -0.91501523839214727     
   5.0400000000000000E-002   -0.72731934035423862     
   5.0700000000000009E-002   -0.51297143497633613     
   5.1000000000000004E-002   -0.28322169631212013     
   5.1299999999999998E-002    -5.0354874519673243E-002
   5.1600000000000007E-002    0.17310959894880895     
   5.1900000000000002E-002    0.37522713281536912     
   5.2200000000000010E-002    0.54530967177753631     
   5.2500000000000005E-002    0.67448107657678413     
   5.2800000000000000E-002    0.75610884291912228     
   5.3099999999999994E-002    0.78624574325752405     
   5.3400000000000003E-002    0.76379812218781140     
   5.3699999999999998E-002    0.69047586699681673     
   5.4000000000000006E-002    0.57056194443465458     
   5.4300000000000001E-002    0.41070076912578735     
   5.4599999999999996E-002    0.21963273185561771     
   5.4900000000000004E-002     7.6992857029611894E-003
   5.5199999999999999E-002   -0.21394303636493950     
   5.5499999999999994E-002   -0.43385911948072309     
   5.5800000000000002E-002   -0.64083599137764757     
   5.6099999999999997E-002   -0.82471111345002157     
   5.6400000000000006E-002   -0.97701526006598982     
   5.6700000000000000E-002    -1.0915092775719089     
   5.6999999999999995E-002    -1.1646468083277099     
   5.7300000000000004E-002    -1.1956947187296976     
   5.7599999999999998E-002    -1.1868790112701362     
   5.7900000000000007E-002    -1.1431317026620818     
   5.8200000000000002E-002    -1.0714322851317846     
   5.8499999999999996E-002   -0.98019705984789240     
   5.8800000000000005E-002   -0.87839204351442035     
   5.9100000000000000E-002   -0.77466432251767259     
   5.9400000000000008E-002   -0.67636073779582517     
   5.9700000000000003E-002   -0.58848545457539458     
   6.0000000000000012E-002   -0.51335517709894063     
   6.0300000000000006E-002   -0.45038697442476305     
   6.0600000000000001E-002   -0.39592084681817141     
   6.0900000000000010E-002   -0.34379935953914575     
   6.1200000000000004E-002   -0.28606415862180690     
   6.1500000000000013E-002   -0.21372833674540814     
   6.1800000000000008E-002   -0.11813307911221260     
   6.2100000000000002E-002     7.9134131296154653E-003
   6.2399999999999997E-002    0.16930897183322546     
   6.2700000000000006E-002    0.36774438190108821     
   6.3000000000000000E-002    0.60101884693742402     
   6.3300000000000009E-002    0.86264419348238697     
   6.3600000000000004E-002     1.1422257668619658     
   6.3899999999999998E-002     1.4261140651313937     
   6.4199999999999993E-002     1.6976590341310853     
   6.4500000000000002E-002     1.9384206763010781     
   6.4800000000000010E-002     2.1296721362375166     
   6.5100000000000005E-002     2.2536008111847394     
   6.5400000000000000E-002     2.2944949942740465     
   6.5700000000000008E-002     2.2401188389611661     
   6.5999999999999989E-002     2.0830188326601871     
   6.6299999999999998E-002     1.8214008390064791     
   6.6600000000000006E-002     1.4594988844655745     
   6.6900000000000001E-002     1.0076754891612403     
   6.7199999999999996E-002    0.48250619972044717     
   6.7500000000000004E-002    -9.3636956242320935E-002
   6.7800000000000013E-002   -0.69398665763718981     
   6.8099999999999994E-002    -1.2889632565511615     
   6.8400000000000002E-002    -1.8475850078226976     
   6.8700000000000011E-002    -2.3390383318505457     
   6.8999999999999992E-002    -2.7347460677282527     
   6.9300000000000000E-002    -3.0106741966544774     
   6.9600000000000009E-002    -3.1485395617549443     
   6.9900000000000004E-002    -3.1366047959669174     
   7.0199999999999999E-002    -2.9710608368020957     
   7.0500000000000007E-002    -2.6563630393850701     
   7.0800000000000016E-002    -2.2047174057864822     
   7.1099999999999997E-002    -1.6354258047204411     
   7.1400000000000005E-002   -0.97389240843018143     
   7.1700000000000000E-002   -0.25046242816790576     
   7.1999999999999995E-002    0.50156242291290454     
   7.2300000000000003E-002     1.2477006503446382     
   7.2600000000000012E-002     1.9536754037953799     
   7.2900000000000006E-002     2.5872603684960183     
   7.3200000000000001E-002     3.1196504263041618     
   7.3499999999999996E-002     3.5265573051322150     
   7.3800000000000004E-002     3.7893676030445107     
   7.4099999999999999E-002     3.8956608935796453     
   7.4400000000000008E-002     3.8395171638718608     
   7.4700000000000003E-002     3.6216867783967359     
   7.5000000000000011E-002     3.2496061090567281     
   7.5299999999999992E-002     2.7370088335619442     
   7.5600000000000001E-002     2.1034874722551962     
   7.5900000000000009E-002     1.3738174230996236     
   7.6200000000000004E-002    0.57709141053179636     
   7.6499999999999999E-002   -0.25427688119134295     
   7.6800000000000007E-002    -1.0855263863830622     
   7.7099999999999988E-002    -1.8808285026537845     
   7.7399999999999997E-002    -2.6050064521152407     
   7.7700000000000005E-002    -3.2251173004308384     
   7.8000000000000014E-002    -3.7115483018279321     
   7.8299999999999995E-002    -4.0398275801468060     
   7.8600000000000003E-002    -4.1921566660590628     
   7.8900000000000012E-002    -4.1583032075544679     
   7.9199999999999993E-002    -3.9368020610040588     
   7.9500000000000001E-002    -3.5352254682126869     
   7.9800000000000010E-002    -2.9699238235275800     
   8.0100000000000018E-002    -2.2657320525534175     
   8.0399999999999999E-002    -1.4548401941491349     
   8.0700000000000008E-002   -0.57511143855664315     
   8.1000000000000003E-002    0.33194469309707486     
   8.1299999999999997E-002     1.2232979281435803     
   8.1600000000000006E-002     2.0565853241851677     
   8.1900000000000014E-002     2.7928931781354365     
   8.2199999999999995E-002     3.3987308905407474     
   8.2500000000000004E-002     3.8474218309081891     
   8.2799999999999999E-002     4.1207538020638594     
   8.3100000000000007E-002     4.2100496512842511     
   8.3400000000000002E-002     4.1159950451978489     
   8.3700000000000011E-002     3.8481543653295915     
   8.4000000000000005E-002     3.4241145864708642     
   8.4300000000000000E-002     2.8683800647364706     
   8.4599999999999995E-002     2.2106925219996185     
   8.4900000000000003E-002     1.4835929242166657     
   8.5199999999999998E-002    0.72064417310325979     
   8.5500000000000007E-002    -4.4817165459496877E-002
   8.5800000000000001E-002   -0.78177511874307370     
   8.6100000000000010E-002    -1.4628954870351318     
   8.6399999999999991E-002    -2.0653606449691573     
   8.6699999999999999E-002    -2.5710342145887424     
   8.7000000000000008E-002    -2.9664459471053135     
   8.7300000000000003E-002    -3.2431169194824463     
   8.7599999999999997E-002    -3.3971242160481125     
   8.7900000000000006E-002    -3.4280999942362769     
   8.8200000000000014E-002    -3.3385440704967664     
   8.8499999999999995E-002    -3.1337256743061488     
   8.8800000000000004E-002    -2.8218314811243204     
   8.9100000000000013E-002    -2.4134650659023009     
   8.9399999999999993E-002    -1.9210979986696728     
   8.9700000000000002E-002    -1.3599287586296498     
   9.0000000000000011E-002   -0.74827181113442265     
   9.0299999999999991E-002   -0.10705567336390764     
   9.0600000000000000E-002    0.54072706367886880     
   9.0900000000000009E-002     1.1702305015580405     
   9.1200000000000017E-002     1.7552700745594549     
   9.1499999999999998E-002     2.2698061161007317     
   9.1800000000000007E-002     2.6901132318997583     
   9.2100000000000001E-002     2.9957554702939007     
   9.2399999999999996E-002     3.1705120942505687     
   9.2700000000000005E-002     3.2042491930946682     
   9.3000000000000013E-002     3.0939566076781801     
   9.3300000000000008E-002     2.8438024221317306     
   9.3600000000000003E-002     2.4644276473214290     
   9.3899999999999997E-002     1.9725046271016708     
   9.4200000000000006E-002     1.3900512834003180     
   9.4500000000000001E-002    0.74247810255500113     
   9.4800000000000009E-002     5.6792488590921231E-002
   9.5100000000000004E-002   -0.63941039759450291     
   9.5399999999999999E-002    -1.3196462698549070     
   9.5699999999999993E-002    -1.9595851985428858     
   9.6000000000000002E-002    -2.5377821843042341     
   9.6300000000000011E-002    -3.0363417733701965     
   9.6600000000000005E-002    -3.4411001964649870     
   9.6900000000000000E-002    -3.7418415945010821     
   9.7200000000000009E-002    -3.9324895560836666     
   9.7499999999999989E-002    -4.0110414447268994     
   9.7799999999999998E-002    -3.9797634893284624     
   9.8100000000000007E-002    -3.8454162023956684     
   9.8400000000000015E-002    -3.6192551566662559     
   9.8699999999999996E-002    -3.3164423003913726     
   9.9000000000000005E-002    -2.9551261111738540     
   9.9300000000000013E-002    -2.5561991325147204     
   9.9599999999999994E-002    -2.1421880509459754     
   9.9900000000000003E-002    -1.7341635128551260     
  0.10020000000000001         -1.3497982765779710     
  0.10049999999999999         -1.0026781943991345     
  0.10080000000000000        -0.69984749132974855     
  0.10110000000000001        -0.43957545366712125     
  0.10140000000000000        -0.21135305069215260     
  0.10170000000000000          3.0769169540478813E-003
  0.10200000000000001         0.22883685271657939     
  0.10230000000000002         0.49599083637072638     
  0.10260000000000000         0.83584671602938876     
  0.10290000000000001          1.2772164948980045     
  0.10320000000000000          1.8429146094957947     
  0.10350000000000001          2.5454332477411459     
  0.10380000000000000          3.3841774533405165     
  0.10410000000000001          4.3440608099636435     
  0.10440000000000001          5.3939932962198753     
  0.10470000000000000          6.4878055318815910     
  0.10500000000000000          7.5670084793007817     
  0.10530000000000000          8.5642814567395078     
  0.10560000000000000          9.4080220272036001     
  0.10590000000000001          10.027408777153170     
  0.10620000000000000          10.358364865233483     
  0.10650000000000001          10.348878098310706     
  0.10679999999999999          9.9627696332427149     
  0.10710000000000000          9.1832330483603073     
  0.10740000000000001          8.0151062874442118     
  0.10770000000000000          6.4845354519176510     
  0.10800000000000000          4.6381804807681704     
  0.10830000000000001          2.5401948581258722     
  0.10859999999999999         0.26781962939276482     
  0.10890000000000000         -2.0923367435173503     
  0.10920000000000001         -4.4502605631638801     
  0.10950000000000001         -6.7179360363562921     
  0.10979999999999999         -8.8133308467880696     
  0.11009999999999999         -10.664918010216027     
  0.11040000000000001         -12.214542130544004     
  0.11070000000000001         -13.418453564204185     
  0.11100000000000000         -14.248934959989242     
  0.11130000000000000         -14.692472125702750     
  0.11160000000000002         -14.748322269543621     
  0.11190000000000001         -14.426798013984978     
  0.11220000000000001         -13.745649571075433     
  0.11250000000000000         -12.728663873638482     
  0.11280000000000000         -11.403810611095253     
  0.11309999999999999         -9.8009528981257290     
  0.11340000000000001         -7.9528981945113344     
  0.11369999999999998         -5.8951033394303636     
  0.11400000000000000         -3.6669772966096303     
  0.11430000000000000         -1.3139901215519778     
  0.11460000000000002          1.1122327306891862     
  0.11489999999999999          3.5520084187492103     
  0.11520000000000001          5.9368692312720839     
  0.11550000000000001          8.1922321623527239     
  0.11580000000000000          10.238909733122803     
  0.11609999999999999          11.996542544303907     
  0.11640000000000002          13.388943928026549     
  0.11670000000000001          14.348665852309068     
  0.11700000000000001          14.823284208425662     
  0.11730000000000000          14.779937503267092     
  0.11760000000000000          14.208177757904821     
  0.11789999999999999          13.124621305055769     
  0.11820000000000001          11.572221952321740     
  0.11850000000000001          9.6182267006299185     
  0.11880000000000000          7.3530426101778801     
  0.11910000000000000          4.8839612466646116     
  0.11940000000000002          2.3284363147858222     
  0.11970000000000001        -0.19143088284398857     
  0.12000000000000001         -2.5567977550739727     
  0.12030000000000000         -4.6591840697760745     
  0.12060000000000000         -6.4066968044323858     
  0.12089999999999999         -7.7287147705513926     
  0.12119999999999999         -8.5789285128472841     
  0.12150000000000001         -8.9389251392284734     
  0.12180000000000001         -8.8181554803049096     
  0.12210000000000000         -8.2505939796857035     
  0.12239999999999999         -7.2940000256370752     
  0.12270000000000002         -6.0265357946121014     
  0.12300000000000001         -4.5391968989069653     
  0.12330000000000001         -2.9318624514347178     
  0.12360000000000000         -1.3076097514515794     
  0.12390000000000000         0.23491862102957128     
  0.12419999999999999          1.6054780279584406     
  0.12450000000000001          2.7281233715858235     
  0.12480000000000001          3.5451325439422376     
  0.12509999999999999          4.0187327739009149     
  0.12540000000000001          4.1343430855348373     
  0.12570000000000003          3.8990671294905184     
  0.12600000000000000          3.3406433271239848     
  0.12630000000000002          2.5071260877345196     
  0.12659999999999999          1.4607270629158506     
  0.12690000000000001         0.27473390402523634     
  0.12719999999999998        -0.97044553554771085     
  0.12750000000000000         -2.1936954028739706     
  0.12780000000000002         -3.3166238442536624     
  0.12809999999999999         -4.2693533086734945     
  0.12840000000000001         -4.9950467091672355     
  0.12869999999999998         -5.4513054871061328     
  0.12900000000000000         -5.6141667422747474     
  0.12930000000000003         -5.4793959554837244     
  0.12959999999999999         -5.0615361856768573     
  0.12990000000000002         -4.3933804433428634     
  0.13019999999999998         -3.5229900609977562     
  0.13050000000000000         -2.5103782411588043     
  0.13080000000000003         -1.4241742616860762     
  0.13109999999999999        -0.33522830584530006     
  0.13140000000000002         0.68843114346643119     
  0.13169999999999998          1.5848925688166844     
  0.13200000000000001          2.3042207843142251     
  0.13229999999999997          2.8117940412584694     
  0.13260000000000000          3.0895198212460340     
  0.13290000000000002          3.1380825412298279     
  0.13319999999999999          2.9752162868816328     
  0.13350000000000001          2.6346977217519481     
  0.13380000000000003          2.1631903665819365     
  0.13410000000000000          1.6141025971581655     
  0.13440000000000002          1.0456303338204727     
  0.13469999999999999         0.51479152107663229     
  0.13500000000000001          7.1261125791059143E-002
  0.13529999999999998        -0.24436254384683309     
  0.13560000000000000        -0.40507381115605057     
  0.13590000000000002        -0.39935712131240209     
  0.13619999999999999        -0.23052341522998998     
  0.13650000000000001          8.2765279024317184E-002
  0.13680000000000003         0.50935339093291354     
  0.13710000000000000          1.0091084101363013     
  0.13740000000000002          1.5360536395959841     
  0.13769999999999999          2.0433167408626147     
  0.13800000000000001          2.4872801816000001     
  0.13829999999999998          2.8310641064810191     
  0.13860000000000000          3.0483483919686023     
  0.13890000000000002          3.1239351538392199     
  0.13919999999999999          3.0555017392932342     
  0.13950000000000001          2.8545991510550834     
  0.13979999999999998          2.5420002523263179     
  0.14010000000000000          2.1464087692589047     
  0.14040000000000002          1.7033767758099785     
  0.14069999999999999          1.2492861701058615     
  0.14100000000000001         0.81802368914506829     
  0.14130000000000004         0.43851102432487998     
  0.14160000000000000         0.13269176658889781     
  0.14189999999999997         -8.5926182474908686E-002
  0.14219999999999999        -0.21526044174537162     
  0.14250000000000002        -0.26197606852003386     
  0.14279999999999998        -0.23913406626702738     
  0.14310000000000000        -0.16722598111065023     
  0.14339999999999997         -7.0280998223367530E-002
  0.14369999999999999          2.7552729146386401E-002
  0.14400000000000002         0.10337641643218198     
  0.14429999999999998         0.13861028810386067     
  0.14460000000000001         0.12003489018129621     
  0.14490000000000003          4.0772969445539875E-002
  0.14520000000000000         -9.8963413977944725E-002
  0.14550000000000002        -0.29321943662840777     
  0.14579999999999999        -0.53069153852659023     
  0.14610000000000001        -0.79626289883678036     
  0.14640000000000003         -1.0736088381005833     
  0.14670000000000000         -1.3457761993564894     
  0.14699999999999996         -1.5970324897047572     
  0.14729999999999999         -1.8157341301979564     
  0.14760000000000001         -1.9935306605925405     
  0.14789999999999998         -2.1256387780247934     
  0.14820000000000000         -2.2123098814139581     