  -1.4999999999999999E-002     0.0000000000000000     
  -1.4700000000000000E-002     0.0000000000000000     
  -1.4400000000000000E-002     0.0000000000000000     
  -1.4100000000000000E-002     4.3425193403628218E-035
  -1.3800000000000000E-002    -8.4175723232658526E-033
  -1.3500000000000000E-002    -5.2808407347723862E-030
  -1.3200000000000000E-002    -2.0970209617050552E-028
  -1.2899999999999998E-002     1.1013729389495176E-027
  -1.2600000000000000E-002     7.8646750400709079E-026
  -1.2299999999999998E-002    -2.9944082755846430E-025
  -1.2000000000000000E-002    -4.0095563271112728E-024
  -1.1699999999999999E-002     1.7387977812009225E-024
  -1.1399999999999999E-002     2.6223920316129023E-022
  -1.1099999999999999E-002    -1.2217311909292881E-021
  -1.0799999999999999E-002    -3.8201181348885574E-021
  -1.0499999999999999E-002     8.3421868278682508E-020
  -1.0199999999999999E-002    -4.6853814642891993E-019
  -9.8999999999999991E-003     5.9376960651903074E-019
  -9.5999999999999992E-003     5.8477689281844084E-018
  -9.2999999999999992E-003    -3.3822646681419763E-017
  -8.9999999999999993E-003     8.3499518202979161E-017
  -8.6999999999999994E-003    -1.0669750642574854E-016
  -8.3999999999999995E-003     2.3936747199667188E-017
  -8.0999999999999996E-003     3.2261259776816445E-016
  -7.7999999999999988E-003    -1.2526945340786107E-015
  -7.4999999999999997E-003     2.9590130260611183E-015
  -7.1999999999999998E-003    -5.7575392143421289E-015
  -6.8999999999999981E-003     8.7189503134773692E-015
  -6.5999999999999982E-003    -2.9953717232745112E-016
  -6.3000000000000000E-003    -2.9122609555055897E-014
  -6.0000000000000001E-003     1.2742012575196347E-014
  -5.6999999999999985E-003     1.8687963541369489E-013
  -5.3999999999999986E-003    -4.9501892264317768E-013
  -5.1000000000000004E-003     3.3800579121629962E-013
  -4.7999999999999987E-003     1.1186082946332437E-012
  -4.5000000000000005E-003    -3.9101864359233815E-012
  -4.1999999999999989E-003     5.5704724354432429E-012
  -3.8999999999999990E-003    -1.3685012137059093E-012
  -3.5999999999999990E-003    -1.0264710828936371E-011
  -3.2999999999999991E-003     2.1686297835843294E-011
  -2.9999999999999992E-003    -1.9781453833768111E-011
  -2.6999999999999993E-003     6.2257688698828557E-013
  -2.3999999999999994E-003     2.2315758330183230E-011
  -2.0999999999999977E-003    -3.5734235771748329E-011
  -1.7999999999999995E-003     4.0086107807758227E-011
  -1.4999999999999979E-003    -2.1641105844294049E-011
  -1.1999999999999997E-003    -3.4717035218415992E-011
  -8.9999999999999976E-004     7.5477012734937400E-011
  -5.9999999999999810E-004    -7.3105466396480773E-011
  -2.9999999999999992E-004     2.2323308881102752E-010
   0.0000000000000000         -7.4682113808060041E-010
   3.0000000000000165E-004     1.0706435175871691E-009
   5.9999999999999984E-004     1.1101409317168873E-009
   9.0000000000000149E-004    -8.5242568170175734E-009
   1.2000000000000031E-003     1.7158885774456631E-008
   1.5000000000000013E-003    -7.4588866950211034E-009
   1.8000000000000030E-003    -4.6481193567717814E-008
   2.1000000000000012E-003     1.3102154828030345E-007
   2.3999999999999994E-003    -1.1485094583927729E-007
   2.7000000000000010E-003    -2.6531273784513301E-007
   2.9999999999999992E-003     9.3268345581522114E-007
   3.3000000000000008E-003    -3.9106372704120538E-007
   3.6000000000000025E-003    -2.9988593103963557E-006
   3.9000000000000007E-003     3.5297189588625097E-006
   4.2000000000000023E-003     8.0076673245534649E-006
   4.5000000000000005E-003    -1.0831572581323872E-005
   4.7999999999999987E-003    -2.5615994519687555E-005
   5.1000000000000004E-003     2.1271263217668480E-005
   5.4000000000000020E-003     1.4728514778862925E-004
   5.7000000000000037E-003     3.2476414356122927E-004
   5.9999999999999984E-003     5.2658534746701305E-004
   6.3000000000000000E-003     7.5634311538993852E-004
   6.6000000000000017E-003     1.0686039951614962E-003
   6.9000000000000034E-003     1.5879329094916246E-003
   7.2000000000000015E-003     2.4624382228546141E-003
   7.5000000000000032E-003     3.8108405365248968E-003
   7.8000000000000014E-003     5.7798967436249876E-003
   8.0999999999999996E-003     8.5949125792054437E-003
   8.4000000000000012E-003     1.2572334449280076E-002
   8.7000000000000029E-003     1.8157651371655315E-002
   9.0000000000000011E-003     2.5883819308813949E-002
   9.2999999999999992E-003     3.6334568795402533E-002
   9.6000000000000009E-003     5.0192869193371736E-002
   9.8999999999999991E-003     6.8235061276895381E-002
   1.0200000000000001E-002     9.1231128978984666E-002
   1.0500000000000002E-002    0.11983379553776441     
   1.0800000000000004E-002    0.15452289764204430     
   1.1099999999999999E-002    0.19546197345729865     
   1.1400000000000000E-002    0.24222981632326235     
   1.1700000000000002E-002    0.29359805639934766     
   1.2000000000000004E-002    0.34730144887322645     
   1.2300000000000002E-002    0.39977229019670446     
   1.2600000000000000E-002    0.44591222385297158     
   1.2900000000000002E-002    0.47894120517099381     
   1.3200000000000000E-002    0.49044083975140751     
   1.3500000000000002E-002    0.47052507684901990     
   1.3800000000000003E-002    0.40822416399785766     
   1.4100000000000001E-002    0.29224278795809866     
   1.4400000000000000E-002    0.11197475812756119     
   1.4700000000000001E-002   -0.14134440040019136     
   1.4999999999999999E-002   -0.47311348779968920     
   1.5300000000000001E-002   -0.88391984316034566     
   1.5600000000000003E-002    -1.3678150509539933     
   1.5899999999999997E-002    -1.9109728633548642     
   1.6199999999999999E-002    -2.4910386850496025     
   1.6500000000000001E-002    -3.0768527165313344     
   1.6800000000000002E-002    -3.6292336934507290     
   1.7100000000000004E-002    -4.1025272258576848     
   1.7400000000000006E-002    -4.4471362752509691     
   1.7700000000000000E-002    -4.6131836437328388     
   1.8000000000000002E-002    -4.5545794344403134     
   1.8300000000000004E-002    -4.2338720926744600     
   1.8600000000000005E-002    -3.6268624086918919     
   1.8900000000000000E-002    -2.7264586105797264     
   1.9200000000000002E-002    -1.5460961587398430     
   1.9500000000000003E-002   -0.12075878256656303     
   1.9799999999999998E-002     1.4926540115571889     
   2.0100000000000000E-002     3.2177791047786073     
   2.0400000000000001E-002     4.9630323926758138     
   2.0700000000000003E-002     6.6268540197976620     
   2.0999999999999998E-002     8.1053981114890519     
   2.1299999999999999E-002     9.2996257259777906     
   2.1600000000000001E-002     10.124025154939375     
   2.1900000000000003E-002     10.512898921627368     
   2.2200000000000004E-002     10.426171347186312     
   2.2500000000000006E-002     9.8535563377851645     
   2.2800000000000001E-002     8.8153523616229563     
   2.3100000000000002E-002     7.3625250522949841     
   2.3400000000000004E-002     5.5727540481096867     
   2.3699999999999999E-002     3.5457346994453474     
   2.4000000000000000E-002     1.3962615454029788     
   2.4300000000000002E-002   -0.75441480064570499     
   2.4599999999999997E-002    -2.7854567865719559     
   2.4900000000000005E-002    -4.5857128346578477     
   2.5200000000000000E-002    -6.0606511055571275     
   2.5499999999999995E-002    -7.1378774775026272     
   2.5800000000000003E-002    -7.7723934658033897     
   2.6099999999999998E-002    -7.9480477509874277     
   2.6400000000000007E-002    -7.6785389385070459     
   2.6700000000000002E-002    -7.0054819956883421     
   2.6999999999999996E-002    -5.9947678713650134     
   2.7300000000000005E-002    -4.7322215136481987     
   2.7600000000000000E-002    -3.3165898218991003     
   2.7900000000000008E-002    -1.8535482133402397     
   2.8200000000000003E-002   -0.44837756490269953     
   2.8499999999999998E-002    0.80174116361354919     
   2.8800000000000006E-002     1.8127508282593610     
   2.9100000000000001E-002     2.5195876379387911     
   2.9400000000000003E-002     2.8792007757417366     
   2.9700000000000004E-002     2.8720582085480117     
   3.0000000000000006E-002     2.5032671029436386     
   3.0300000000000001E-002     1.7998002814727556     
   3.0600000000000002E-002    0.80855613172134611     
   3.0900000000000004E-002   -0.40821439861599629     
   3.1199999999999999E-002    -1.7781928648357876     
   3.1500000000000007E-002    -3.2226649872123190     
   3.1800000000000002E-002    -4.6626549235905852     
   3.2099999999999997E-002    -6.0221912731021945     
   3.2400000000000005E-002    -7.2315198775682319     
   3.2700000000000000E-002    -8.2302594186727447     
   3.3000000000000002E-002    -8.9674605786558175     
   3.3300000000000003E-002    -9.4028480610094789     
   3.3599999999999998E-002    -9.5059126567396106     
   3.3900000000000000E-002    -9.2553823937453217     
   3.4200000000000001E-002    -8.6395691564981689     
   3.4500000000000003E-002    -7.6551387986572195     
   3.4799999999999998E-002    -6.3084388474472064     
   3.5099999999999999E-002    -4.6163277010640371     
   3.5400000000000001E-002    -2.6069131136547767     
   3.5699999999999996E-002   -0.32318776653906411     
   3.6000000000000004E-002     2.1775143464727620     
   3.6299999999999999E-002     4.8211491800681898     
   3.6600000000000008E-002     7.5171254618247190     
   3.6900000000000002E-002     10.160854095606661     
   3.7199999999999997E-002     12.636245634527242     
   3.7500000000000006E-002     14.821826872157970     
   3.7800000000000000E-002     16.597072928459767     
   3.8100000000000009E-002     17.850925810482295     
   3.8400000000000004E-002     18.489649919481451     
   3.8699999999999998E-002     18.445664257031467     
   3.9000000000000007E-002     17.683972899441414     
   3.9300000000000002E-002     16.207715504496946     
   3.9600000000000003E-002     14.061382212192086     
   3.9900000000000005E-002     11.328347991858948     
   4.0200000000000000E-002     8.1300138462654274     
   4.0500000000000001E-002     4.6174711272687858     
   4.0800000000000003E-002    0.96326265732047034     
   4.1100000000000005E-002    -2.6495429691900938     
   4.1399999999999999E-002    -6.0396762473011165     
   4.1700000000000008E-002    -9.0383116889958046     
   4.2000000000000003E-002    -11.503085256258323     
   4.2299999999999997E-002    -13.324473527095449     
   4.2600000000000006E-002    -14.434581658102644     
   4.2900000000000001E-002    -14.812991489707599     
   4.3200000000000002E-002    -14.483629649798900     
   4.3500000000000004E-002    -13.517270969856497     
   4.3799999999999999E-002    -12.021905578003157     
   4.4100000000000000E-002    -10.135707004531525     
   4.4400000000000002E-002    -8.0175314454781414     
   4.4700000000000004E-002    -5.8308005898692272     
   4.4999999999999998E-002    -3.7357666107867544     
   4.5300000000000000E-002    -1.8731931061186629     
   4.5600000000000002E-002   -0.35491123543680736     
   4.5899999999999996E-002    0.74135327454887801     
   4.6200000000000005E-002     1.3815672785250115     
   4.6500000000000000E-002     1.5715603939526304     
   4.6799999999999994E-002     1.3568174291864743     
   4.7100000000000003E-002    0.81626295623795908     
   4.7399999999999998E-002     5.0178090463059988E-002
   4.7700000000000006E-002   -0.82554126012370688     
   4.8000000000000001E-002    -1.6957344850301581     
   4.8300000000000010E-002    -2.4543499701935900     
   4.8600000000000004E-002    -3.0116075788259096     
   4.8899999999999999E-002    -3.3057090457321721     
   4.9200000000000008E-002    -3.2995397378815596     
   4.9500000000000002E-002    -2.9855557945004776     
   4.9800000000000011E-002    -2.3822167907462273     
   5.0100000000000006E-002    -1.5262015573196273     
   5.0400000000000000E-002   -0.47216742030223813     
   5.0700000000000009E-002    0.72033912266666533     
   5.1000000000000004E-002     1.9887809392288602     
   5.1299999999999998E-002     3.2728620539137694     
   5.1600000000000007E-002     4.5232301025517998     
   5.1900000000000002E-002     5.6965506235180783     
   5.2200000000000010E-002     6.7640865788215834     
   5.2500000000000005E-002     7.7089739639520900     
   5.2800000000000000E-002     8.5246260664960403     
   5.3099999999999994E-002     9.2200822322280658     
   5.3400000000000003E-002     9.8108646836215030     
   5.3699999999999998E-002     10.323652059769387     
   5.4000000000000006E-002     10.790142484841937     
   5.4300000000000001E-002     11.241226829837302     
   5.4599999999999996E-002     11.705889195705083     
   5.4900000000000004E-002     12.196733315697657     
   5.5199999999999999E-002     12.707538004845162     
   5.5499999999999994E-002     13.202723480757925     
   5.5800000000000002E-002     13.610060283417056     
   5.6099999999999997E-002     13.821564541841781     
   5.6400000000000006E-002     13.690732996886595     
   5.6700000000000000E-002     13.043784633618031     
   5.6999999999999995E-002     11.693296923256071     
   5.7300000000000004E-002     9.4567973486281005     
   5.7599999999999998E-002     6.1835301103614313     
   5.7900000000000007E-002     1.7786463097485523     
   5.8200000000000002E-002    -3.7707490077954162     
   5.8499999999999996E-002    -10.373475735459408     
   5.8800000000000005E-002    -17.825102326534960     
   5.9100000000000000E-002    -25.802618527462471     
   5.9400000000000008E-002    -33.875757444984117     
   5.9700000000000003E-002    -41.532221834139676     
   6.0000000000000012E-002    -48.208663247826706     
   6.0300000000000006E-002    -53.337423299764509     
   6.0600000000000001E-002    -56.394384828859245     
   6.0900000000000010E-002    -56.946773652880779     
   6.1200000000000004E-002    -54.701881114023308     
   6.1500000000000013E-002    -49.537800857325351     
   6.1800000000000008E-002    -41.530286791202343     
   6.2100000000000002E-002    -30.957309589638612     
   6.2399999999999997E-002    -18.287938286302222     
   6.2700000000000006E-002    -4.1586878814694614     
   6.3000000000000000E-002     10.675326467836612     
   6.3300000000000009E-002     25.385247076260157     
   6.3600000000000004E-002     39.136606773326548     
   6.3899999999999998E-002     51.142757354381502     
   6.4199999999999993E-002     60.728198192491732     
   6.4500000000000002E-002     67.375747505612765     
   6.4800000000000010E-002     70.756491029638454     
   6.5100000000000005E-002     70.759605458891372     
   6.5400000000000000E-002     67.483577415104378     
   6.5700000000000008E-002     61.230212050976888     
   6.5999999999999989E-002     52.472663432698710     
   6.6299999999999998E-002     41.810443179295817     
   6.6600000000000006E-002     29.928107217793581     
   6.6900000000000001E-002     17.534827319187485     
   6.7199999999999996E-002     5.3195608023662828     
   6.7500000000000004E-002    -6.0970638005634328     
   6.7800000000000013E-002    -16.198097489479778     
   6.8099999999999994E-002    -24.594508509785555     
   6.8400000000000002E-002    -31.039694389485703     
   6.8700000000000011E-002    -35.425699876780413     
   6.8999999999999992E-002    -37.779694370408777     
   6.9300000000000000E-002    -38.239053445558696     
   6.9600000000000009E-002    -37.030122805790882     
   6.9900000000000004E-002    -34.443031716337487     
   7.0199999999999999E-002    -30.797949377477948     
   7.0500000000000007E-002    -26.428885130082790     
   7.0800000000000016E-002    -21.654047507925043     
   7.1099999999999997E-002    -16.764110743956394     
   7.1400000000000005E-002    -12.009599511486982     
   7.1700000000000000E-002    -7.5902604843041388     
   7.1999999999999995E-002    -3.6592386093851133     
   7.2300000000000003E-002   -0.31526755954212859     
   7.2600000000000012E-002     2.3878811961107544     
   7.2900000000000006E-002     4.4386835527641040     
   7.3200000000000001E-002     5.8637981274219158     
   7.3499999999999996E-002     6.7161533497601340     
   7.3800000000000004E-002     7.0732747279620298     
   7.4099999999999999E-002     7.0250655114347751     
   7.4400000000000008E-002     6.6682024242015814     
   7.4700000000000003E-002     6.0995504944365280     
   7.5000000000000011E-002     5.4080376479804215     
   7.5299999999999992E-002     4.6707270071325411     
   7.5600000000000001E-002     3.9495945629702192     
   7.5900000000000009E-002     3.2884551631618848     
   7.6200000000000004E-002     2.7141665171890708     
   7.6499999999999999E-002     2.2372967188906827     
   7.6800000000000007E-002     1.8552151290815857     
   7.7099999999999988E-002     1.5581156192030292     
   7.7399999999999997E-002     1.3291261707617466     
   7.7700000000000005E-002     1.1523001279031320     
   7.8000000000000014E-002     1.0135526586212933     
   7.8299999999999995E-002    0.90053863295848657     
   7.8600000000000003E-002    0.80848645301296429     
   7.8900000000000012E-002    0.73350735559941782     
   7.9199999999999993E-002    0.67634532219651078     
   7.9500000000000001E-002    0.63824689152509606     
   7.9800000000000010E-002    0.61776621492119332     
   8.0100000000000018E-002    0.61574109405917454     
   8.0399999999999999E-002    0.62586735954913308     
   8.0700000000000008E-002    0.64293473481897578     
   8.1000000000000003E-002    0.66067640857956356     
   8.1299999999999997E-002    0.66986077414942891     
   8.1600000000000006E-002    0.66711126517917840     
   8.1900000000000014E-002    0.64723565091559188     
   8.2199999999999995E-002    0.61074007375677652     
   8.2500000000000004E-002    0.56057247137152899     
   8.2799999999999999E-002    0.49986034005333480     
   8.3100000000000007E-002    0.43587808204479650     
   8.3400000000000002E-002    0.37264292971333646     
   8.3700000000000011E-002    0.31374369278288761     
   8.4000000000000005E-002    0.26096602895043119     
   8.4300000000000000E-002    0.21252233293038358     
   8.4599999999999995E-002    0.16539127196644543     
   8.4900000000000003E-002    0.11567274079506085     
   8.5199999999999998E-002     5.8617908579491562E-002
   8.5500000000000007E-002    -8.1856143324885444E-003
   8.5800000000000001E-002    -8.4458279907981548E-002
   8.6100000000000010E-002   -0.16876731022012637     
   8.6399999999999991E-002   -0.25341144703388929     
   8.6699999999999999E-002   -0.33249430612810471     
   8.7000000000000008E-002   -0.39727043728719913     
   8.7300000000000003E-002   -0.43923646334767685     
   8.7599999999999997E-002   -0.45558305816610112     
   8.7900000000000006E-002   -0.44087239725155847     
   8.8200000000000014E-002   -0.39949665949765389     
   8.8499999999999995E-002   -0.33615454253831345     
   8.8800000000000004E-002   -0.25793198968997721     
   8.9100000000000013E-002   -0.17764500036800657     
   8.9399999999999993E-002   -0.10171978183737718     
   8.9700000000000002E-002    -4.1275245443302189E-002
   9.0000000000000011E-002    -1.1577831035337049E-003
   9.0299999999999991E-002     1.7378929470577009E-002
   9.0600000000000000E-002     1.2363708923718020E-002
   9.0900000000000009E-002    -9.1271866888105180E-003
   9.1200000000000017E-002    -4.3317593997306059E-002
   9.1499999999999998E-002    -8.3231592188747872E-002
   9.1800000000000007E-002   -0.12157628066817550     
   9.2100000000000001E-002   -0.15585932095858812     
   9.2399999999999996E-002   -0.18133268148665405     
   9.2700000000000005E-002   -0.19916712131922099     
   9.3000000000000013E-002   -0.21053957313918925     
   9.3300000000000008E-002   -0.21732246039251546     
   9.3600000000000003E-002   -0.22371845133573220     
   9.3899999999999997E-002   -0.23056442435916047     
   9.4200000000000006E-002   -0.23948165522840981     
   9.4500000000000001E-002   -0.25006302660578328     
   9.4800000000000009E-002   -0.25911431508044469     
   9.5100000000000004E-002   -0.26311233892999120     
   9.5399999999999999E-002   -0.25801380706119570     
   9.5699999999999993E-002   -0.23988866693026267     
   9.6000000000000002E-002   -0.20685340550814413     
   9.6300000000000011E-002   -0.15795494817949329     
   9.6600000000000005E-002    -9.5526553799946790E-002
   9.6900000000000000E-002    -2.4648628543697315E-002
   9.7200000000000009E-002     4.8679615254064057E-002
   9.7499999999999989E-002    0.11571090751065460     
   9.7799999999999998E-002    0.16842248067244592     
   9.8100000000000007E-002    0.20011600446691258     
   9.8400000000000015E-002    0.20498068382826684     
   9.8699999999999996E-002    0.18155346089057423     
   9.9000000000000005E-002    0.13094648180567336     
   9.9300000000000013E-002     5.8547533982164501E-002
   9.9599999999999994E-002    -2.7043147322846489E-002
   9.9900000000000003E-002   -0.11535997642593099     
  0.10020000000000001        -0.19424337040973683     
  0.10049999999999999        -0.25256919675917722     
  0.10080000000000000        -0.28094731887381474     
  0.10110000000000001        -0.27399221010747077     
  0.10140000000000000        -0.23002099711375878     
  0.10170000000000000        -0.15388840771093726     
  0.10200000000000001         -5.3945354739115103E-002
  0.10230000000000002          5.7591061576838243E-002
  0.10260000000000000         0.16407569996601534     
  0.10290000000000001         0.25195147165162357     
  0.10320000000000000         0.30584312321894203     
  0.10350000000000001         0.31764792517845031     
  0.10380000000000000         0.28433385632095343     
  0.10410000000000001         0.20832188323556866     
  0.10440000000000001         0.10361473055357440     
  0.10470000000000000         -1.4720855216869388E-002
  0.10500000000000000        -0.12378671244940165     
  0.10530000000000000        -0.20001692384750314     
  0.10560000000000000        -0.22462502837652387     
  0.10590000000000001        -0.18010823540369492     
  0.10620000000000000         -6.3105524304376104E-002
  0.10650000000000001         0.12215834022186467     
  0.10679999999999999         0.35879171345465055     
  0.10710000000000000         0.61654637978136195     
  0.10740000000000001         0.86096179005656026     
  0.10770000000000000          1.0504311011113163     
  0.10800000000000000          1.1461171450817247     
  0.10830000000000001          1.1168506258842275     
  0.10859999999999999         0.94189891746578880     
  0.10890000000000000         0.61917537924049171     
  0.10920000000000001         0.16403798302887296     
  0.10950000000000001        -0.39012786672878974     
  0.10979999999999999        -0.99260059064301842     
  0.11009999999999999         -1.5830245054757377     
  0.11040000000000001         -2.0967804486408710     
  0.11070000000000001         -2.4708680401671401     
  0.11100000000000000         -2.6554268686070621     
  0.11130000000000000         -2.6158320780202757     
  0.11160000000000002         -2.3391057774175898     
  0.11190000000000001         -1.8379704615471866     
  0.11220000000000001         -1.1450457150245033     
  0.11250000000000000        -0.31571397788445665     
  0.11280000000000000         0.58147502181639510     
  0.11309999999999999          1.4727922989148823     
  0.11340000000000001          2.2806988067460026     
  0.11369999999999998          2.9401673230349417     
  0.11400000000000000          3.3971778166914604     
  0.11430000000000000          3.6162602056893292     
  0.11460000000000002          3.5855643085517990     
  0.11489999999999999          3.3097695055128629     
  0.11520000000000001          2.8170684857801760     
  0.11550000000000001          2.1494854116789668     
  0.11580000000000000          1.3588025842960683     
  0.11609999999999999         0.50656412400607742     
  0.11640000000000002        -0.34901403418226096     
  0.11670000000000001         -1.1506336842175742     
  0.11700000000000001         -1.8483528633962010     
  0.11730000000000000         -2.4054760840630820     
  0.11760000000000000         -2.7937780978826225     
  0.11789999999999999         -3.0002962814147551     
  0.11820000000000001         -3.0248622323307757     
  0.11850000000000001         -2.8766377709761244     
  0.11880000000000000         -2.5787144170891381     
  0.11910000000000000         -2.1588538415383738     
  0.11940000000000002         -1.6514532732339120     
  0.11970000000000001         -1.0958121576465025     
  0.12000000000000001        -0.52716144882545946     
  0.12030000000000000          1.6759987219094441E-002
  0.12060000000000000         0.50541614503200805     
  0.12089999999999999         0.91577868454000821     
  0.12119999999999999          1.2289266970984727     
  0.12150000000000001          1.4386861456545219     
  0.12180000000000001          1.5430019421418493     
  0.12210000000000000          1.5488920690869321     
  0.12239999999999999          1.4706541994615439     
  0.12270000000000002          1.3232408291922368     
  0.12300000000000001          1.1278589504238639     
  0.12330000000000001         0.90314479829148553     
  0.12360000000000000         0.66688140840888721     
  0.12390000000000000         0.43619176484595101     
  0.12419999999999999         0.22201479415254388     
  0.12450000000000001          3.4169117731982279E-002
  0.12480000000000001        -0.12169641264028552     
  0.12509999999999999        -0.24359806766959835     
  0.12540000000000001        -0.33101794292508657     
  0.12570000000000003        -0.38550392027755009     
  0.12600000000000000        -0.41031655568879799     
  0.12630000000000002        -0.40853084049579813     
  0.12659999999999999        -0.38486547329374865     
  0.12690000000000001        -0.34467956422223534     
  0.12719999999999998        -0.29175318302590725     
  0.12750000000000000        -0.23317495660564891     
  0.12780000000000002        -0.17295278846892082     
  0.12809999999999999        -0.11607167193953538     
  0.12840000000000001         -6.8089817464614733E-002
  0.12869999999999998         -2.9648519412239227E-002
  0.12900000000000000         -4.6210609167307570E-003
  0.12930000000000003          7.6111539421703789E-003
  0.12959999999999999          9.8222660007243334E-003
  0.12990000000000002          2.0032745825495635E-003
  0.13019999999999998         -9.8074605502068701E-003
  0.13050000000000000         -2.3833068109522848E-002
  0.13080000000000003         -3.7059651795572579E-002
  0.13109999999999999         -4.5106437184913695E-002
  0.13140000000000002         -4.9865375283109636E-002
  0.13169999999999998         -4.8381775481873612E-002
  0.13200000000000001         -4.2828470663158535E-002
  0.13229999999999997         -3.5583327972471990E-002
  0.13260000000000000         -2.5255164437310240E-002
  0.13290000000000002         -1.6461705597614396E-002
  0.13319999999999999         -7.8317433606163167E-003
  0.13350000000000001          5.1254663491167446E-004
  0.13380000000000003          7.0870784110804719E-003
  0.13410000000000000          1.5751267217449239E-002
  0.13440000000000002          2.5025470025448637E-002
  0.13469999999999999          3.5634915091136365E-002
  0.13500000000000001          4.8839861654983441E-002
  0.13529999999999998          6.0650607190254946E-002
  0.13560000000000000          7.2209050897988791E-002
  0.13590000000000002          7.9952222401246331E-002
  0.13619999999999999          8.1449294507469627E-002
  0.13650000000000001          7.8073412419688459E-002
  0.13680000000000003          6.5912012224043526E-002
  0.13710000000000000          4.8322339945746196E-002
  0.13740000000000002          2.7182326821443725E-002
  0.13769999999999999          3.1664732521663186E-003
  0.13800000000000001         -1.7450101394590363E-002
  0.13829999999999998         -3.4424334231145770E-002
  0.13860000000000000         -4.4393127400980004E-002
  0.13890000000000002         -4.5489096580734634E-002
  0.13919999999999999         -4.0564609771927884E-002
  0.13950000000000001         -2.8218344126841766E-002
  0.13979999999999998         -1.3177752271491205E-002
  0.14010000000000000          2.0156180291941439E-003
  0.14040000000000002          1.6807518374123587E-002
  0.14069999999999999          2.5824988064245886E-002
  0.14100000000000001          3.0912337891627784E-002
  0.14130000000000004          3.1476686956502853E-002
  0.14160000000000000          2.8014164993511614E-002
  0.14189999999999997          2.4709929092327498E-002
  0.14219999999999999          2.1014981581252812E-002
  0.14250000000000002          2.0113443706756495E-002
  0.14279999999999998          2.2596902351323722E-002
  0.14310000000000000          2.6309798313835189E-002
  0.14339999999999997          3.2798626482727911E-002
  0.14369999999999999          3.7452980277733028E-002
  0.14400000000000002          3.8555913749562132E-002
  0.14429999999999998          3.5393380684941356E-002
  0.14460000000000001          2.4548399046770752E-002
  0.14490000000000003          8.6524827137816895E-003
  0.14520000000000000         -1.2269945544287675E-002
  0.14550000000000002         -3.5482981197560770E-002
  0.14579999999999999         -5.6371690938786273E-002
  0.14610000000000001         -7.3871728925283264E-002
  0.14640000000000003         -8.2819913402669920E-002
  0.14670000000000000         -8.3130634957284455E-002
  0.14699999999999996         -7.4883833536849131E-002
  0.14729999999999999         -5.7842227863152962E-002
  0.14760000000000001         -3.6771955427884029E-002
  0.14789999999999998         -1.3216096949016709E-002
  0.14820000000000000          8.4154395642356272E-003