  -1.4999999999999999E-002     0.0000000000000000     
  -1.4700000000000000E-002     0.0000000000000000     
  -1.4400000000000000E-002     0.0000000000000000     
  -1.4100000000000000E-002     0.0000000000000000     
  -1.3800000000000000E-002     0.0000000000000000     
  -1.3500000000000000E-002     0.0000000000000000     
  -1.3200000000000000E-002     0.0000000000000000     
  -1.2899999999999998E-002     0.0000000000000000     
  -1.2600000000000000E-002     0.0000000000000000     
  -1.2299999999999998E-002     0.0000000000000000     
  -1.2000000000000000E-002     0.0000000000000000     
  -1.1699999999999999E-002     0.0000000000000000     
  -1.1399999999999999E-002     0.0000000000000000     
  -1.1099999999999999E-002     0.0000000000000000     
  -1.0799999999999999E-002     0.0000000000000000     
  -1.0499999999999999E-002     0.0000000000000000     
  -1.0199999999999999E-002     0.0000000000000000     
  -9.8999999999999991E-003     0.0000000000000000     
  -9.5999999999999992E-003     0.0000000000000000     
  -9.2999999999999992E-003     0.0000000000000000     
  -8.9999999999999993E-003     0.0000000000000000     
  -8.6999999999999994E-003     0.0000000000000000     
  -8.3999999999999995E-003     0.0000000000000000     
  -8.0999999999999996E-003     0.0000000000000000     
  -7.7999999999999988E-003     0.0000000000000000     
  -7.4999999999999997E-003     0.0000000000000000     
  -7.1999999999999998E-003     0.0000000000000000     
  -6.8999999999999981E-003     0.0000000000000000     
  -6.5999999999999982E-003     0.0000000000000000     
  -6.3000000000000000E-003     0.0000000000000000     
  -6.0000000000000001E-003     0.0000000000000000     
  -5.6999999999999985E-003     0.0000000000000000     
  -5.3999999999999986E-003     0.0000000000000000     
  -5.1000000000000004E-003     0.0000000000000000     
  -4.7999999999999987E-003     0.0000000000000000     
  -4.5000000000000005E-003     0.0000000000000000     
  -4.1999999999999989E-003     0.0000000000000000     
  -3.8999999999999990E-003     0.0000000000000000     
  -3.5999999999999990E-003     0.0000000000000000     
  -3.2999999999999991E-003     0.0000000000000000     
  -2.9999999999999992E-003     0.0000000000000000     
  -2.6999999999999993E-003     0.0000000000000000     
  -2.3999999999999994E-003     0.0000000000000000     
  -2.0999999999999977E-003     0.0000000000000000     
  -1.7999999999999995E-003     0.0000000000000000     
  -1.4999999999999979E-003     0.0000000000000000     
  -1.1999999999999997E-003     0.0000000000000000     
  -8.9999999999999976E-004     0.0000000000000000     
  -5.9999999999999810E-004     0.0000000000000000     
  -2.9999999999999992E-004     0.0000000000000000     
   0.0000000000000000          0.0000000000000000     
   3.0000000000000165E-004     0.0000000000000000     
   5.9999999999999984E-004    -2.2232573198166850E-037
   9.0000000000000149E-004     3.0672696984362198E-036
   1.2000000000000031E-003     1.3554971249118499E-036
   1.5000000000000013E-003    -1.0453387719768215E-034
   1.8000000000000030E-003     1.8179908643892005E-034
   2.1000000000000012E-003     8.2257246763254660E-034
   2.3999999999999994E-003    -1.4168134228125181E-033
   2.7000000000000010E-003    -4.4662103380546470E-033
   2.9999999999999992E-003     7.3604923248401285E-033
   3.3000000000000008E-003     2.1543390762011637E-032
   3.6000000000000025E-003    -1.4486667777132684E-031
   3.9000000000000007E-003     4.7194795737774132E-031
   4.2000000000000023E-003     2.6878068595676077E-031
   4.5000000000000005E-003    -2.0223785599795489E-029
   4.7999999999999987E-003     1.6496253215801273E-028
   5.1000000000000004E-003    -5.7056488307873366E-028
   5.4000000000000020E-003    -1.0780909012932648E-027
   5.7000000000000037E-003     2.2843569085429712E-026
   5.9999999999999984E-003    -1.2051930947888476E-025
   6.3000000000000000E-003     2.6772161720974065E-025
   6.6000000000000017E-003     5.7126284432762547E-025
   6.9000000000000034E-003    -7.2614236117923422E-024
   7.2000000000000015E-003     3.0711532020724579E-023
   7.5000000000000032E-003    -6.9379180654484470E-023
   7.8000000000000014E-003     1.3894907632141517E-023
   8.0999999999999996E-003     5.7833707795192656E-022
   8.4000000000000012E-003    -2.6219393888202288E-021
   8.7000000000000029E-003     6.4132221658999050E-021
   9.0000000000000011E-003    -6.7977638116122459E-021
   9.2999999999999992E-003    -1.6060018554272472E-020
   9.6000000000000009E-003     9.2149096385840757E-020
   9.8999999999999991E-003    -1.5454760806544618E-019
   1.0200000000000001E-002    -4.5390957087418607E-019
   1.0500000000000002E-002     4.6136230275716633E-018
   1.0800000000000004E-002    -2.2111517155387693E-017
   1.1099999999999999E-002     8.2767930320072364E-017
   1.1400000000000000E-002    -2.7691873444039470E-016
   1.1700000000000002E-002     9.0225886014057028E-016
   1.2000000000000004E-002    -3.0630648960582344E-015
   1.2300000000000002E-002     1.1150648343582516E-014
   1.2600000000000000E-002    -4.2320913619256842E-014
   1.2900000000000002E-002     1.5697557457453742E-013
   1.3200000000000000E-002    -5.2791912551544695E-013
   1.3500000000000002E-002     1.4662368541529247E-012
   1.3800000000000003E-002    -2.7333313563915329E-012
   1.4100000000000001E-002    -2.2228031047732966E-013
   1.4400000000000000E-002     2.6198683847344917E-011
   1.4700000000000001E-002    -1.1202219707406869E-010
   1.4999999999999999E-002     2.3408733285101846E-010
   1.5300000000000001E-002    -1.9737475542846994E-011
   1.5600000000000003E-002    -1.4315837404410559E-009
   1.5899999999999997E-002     3.8119067902186998E-009
   1.6199999999999999E-002    -6.2946325929402747E-010
   1.6500000000000001E-002    -1.7319358391887363E-008
   1.6800000000000002E-002     2.5885961818516989E-008
   1.7100000000000004E-002     4.5659806602316166E-008
   1.7400000000000006E-002    -1.2808200722247420E-007
   1.7700000000000000E-002    -1.5185632662451098E-007
   1.8000000000000002E-002     3.8095544141469873E-007
   1.8300000000000004E-002     5.7577699408284388E-007
   1.8600000000000005E-002    -8.1568657606112538E-007
   1.8900000000000000E-002    -1.9482301922835177E-006
   1.9200000000000002E-002     1.6297997262881836E-006
   1.9500000000000003E-002     1.0407843547000084E-005
   1.9799999999999998E-002     1.9010520190931857E-005
   2.0100000000000000E-002     2.5078577891690657E-005
   2.0400000000000001E-002     3.6104018363403156E-005
   2.0700000000000003E-002     6.2236482335720211E-005
   2.0999999999999998E-002     1.0530951112741604E-004
   2.1299999999999999E-002     1.6295585373882204E-004
   2.1600000000000001E-002     2.4355736968573183E-004
   2.1900000000000003E-002     3.6860845284536481E-004
   2.2200000000000004E-002     5.5995257571339607E-004
   2.2500000000000006E-002     8.3494582213461399E-004
   2.2800000000000001E-002     1.2195053277537227E-003
   2.3100000000000002E-002     1.7598754493519664E-003
   2.3400000000000004E-002     2.5149332359433174E-003
   2.3699999999999999E-002     3.5447350237518549E-003
   2.4000000000000000E-002     4.9172886647284031E-003
   2.4300000000000002E-002     6.7220083437860012E-003
   2.4599999999999997E-002     9.0647954493761063E-003
   2.4900000000000005E-002     1.2049515731632710E-002
   2.5200000000000000E-002     1.5769826248288155E-002
   2.5499999999999995E-002     2.0314851775765419E-002
   2.5800000000000003E-002     2.5762222707271576E-002
   2.6099999999999998E-002     3.2148361206054688E-002
   2.6400000000000007E-002     3.9438359439373016E-002
   2.6700000000000002E-002     4.7518853098154068E-002
   2.6999999999999996E-002     5.6191604584455490E-002
   2.7300000000000005E-002     6.5149113535881042E-002
   2.7600000000000000E-002     7.3944799602031708E-002
   2.7900000000000008E-002     8.1991426646709442E-002
   2.8200000000000003E-002     8.8586576282978058E-002
   2.8499999999999998E-002     9.2929899692535400E-002
   2.8800000000000006E-002     9.4164505600929260E-002
   2.9100000000000001E-002     9.1406784951686859E-002
   2.9400000000000003E-002     8.3829522132873535E-002
   2.9700000000000004E-002     7.0765897631645203E-002
   3.0000000000000006E-002     5.1779080182313919E-002
   3.0300000000000001E-002     2.6734000071883202E-002
   3.0600000000000002E-002    -4.1170441545546055E-003
   3.0900000000000004E-002    -4.0066454559564590E-002
   3.1199999999999999E-002    -7.9948142170906067E-002
   3.1500000000000007E-002   -0.12215097248554230     
   3.1800000000000002E-002   -0.16470605134963989     
   3.2099999999999997E-002   -0.20537111163139343     
   3.2400000000000005E-002   -0.24174319207668304     
   3.2700000000000000E-002   -0.27150201797485352     
   3.3000000000000002E-002   -0.29259118437767029     
   3.3300000000000003E-002   -0.30338618159294128     
   3.3599999999999998E-002   -0.30286702513694763     
   3.3900000000000000E-002   -0.29073274135589600     
   3.4200000000000001E-002   -0.26752981543540955     
   3.4500000000000003E-002   -0.23464125394821167     
   3.4799999999999998E-002   -0.19418327510356903     
   3.5099999999999999E-002   -0.14887927472591400     
   3.5400000000000001E-002   -0.10191180557012558     
   3.5699999999999996E-002    -5.6667428463697433E-002
   3.6000000000000004E-002    -1.6484132036566734E-002
   3.6299999999999999E-002     1.5636961907148361E-002
   3.6600000000000008E-002     3.7272732704877853E-002
   3.6900000000000002E-002     4.6739876270294189E-002
   3.7199999999999997E-002     4.3162811547517776E-002
   3.7500000000000006E-002     2.6681499555706978E-002
   3.7800000000000000E-002    -1.5871822834014893E-003
   3.8100000000000009E-002    -3.9569787681102753E-002
   3.8400000000000004E-002    -8.4476970136165619E-002
   3.8699999999999998E-002   -0.13294273614883423     
   3.9000000000000007E-002   -0.18112821877002716     
   3.9300000000000002E-002   -0.22503097355365753     
   3.9600000000000003E-002   -0.26069697737693787     
   3.9900000000000005E-002   -0.28454956412315369     
   4.0200000000000000E-002   -0.29353317618370056     
   4.0500000000000001E-002   -0.28524711728096008     
   4.0800000000000003E-002   -0.25820446014404297     
   4.1100000000000005E-002   -0.21192392706871033     
   4.1399999999999999E-002   -0.14689339697360992     
   4.1700000000000008E-002    -6.4665332436561584E-002
   4.2000000000000003E-002     3.2448489218950272E-002
   4.2299999999999997E-002    0.14123949408531189     
   4.2600000000000006E-002    0.25788685679435730     
   4.2900000000000001E-002    0.37832608819007874     
   4.3200000000000002E-002    0.49833327531814575     
   4.3500000000000004E-002    0.61374980211257935     
   4.3799999999999999E-002    0.72067689895629883     
   4.4100000000000000E-002    0.81571233272552490     
   4.4400000000000002E-002    0.89604109525680542     
   4.4700000000000004E-002    0.95936387777328491     
   4.4999999999999998E-002     1.0039836168289185     
   4.5300000000000000E-002     1.0286827087402344     
   4.5600000000000002E-002     1.0327252149581909     
   4.5899999999999996E-002     1.0156726837158203     
   4.6200000000000005E-002    0.97733116149902344     
   4.6500000000000000E-002    0.91775983572006226     
   4.6799999999999994E-002    0.83718502521514893     
   4.7100000000000003E-002    0.73617708683013916     
   4.7399999999999998E-002    0.61567264795303345     
   4.7700000000000006E-002    0.47713205218315125     
   4.8000000000000001E-002    0.32275459170341492     
   4.8300000000000010E-002    0.15557250380516052     
   4.8600000000000004E-002    -2.0420053973793983E-002
   4.8899999999999999E-002   -0.20025295019149780     
   4.9200000000000008E-002   -0.37817814946174622     
   4.9500000000000002E-002   -0.54770582914352417     
   4.9800000000000011E-002   -0.70193374156951904     
   5.0100000000000006E-002   -0.83400756120681763     
   5.0400000000000000E-002   -0.93764072656631470     
   5.0700000000000009E-002    -1.0074601173400879     
   5.1000000000000004E-002    -1.0394892692565918     
   5.1299999999999998E-002    -1.0316276550292969     
   5.1600000000000007E-002   -0.98380070924758911     
   5.1900000000000002E-002   -0.89805871248245239     
   5.2200000000000010E-002   -0.77873003482818604     
   5.2500000000000005E-002   -0.63201040029525757     
   5.2800000000000000E-002   -0.46560540795326233     
   5.3099999999999994E-002   -0.28829252719879150     
   5.3400000000000003E-002   -0.10941968113183975     
   5.3699999999999998E-002     6.1717126518487930E-002
   5.4000000000000006E-002    0.21647322177886963     
   5.4300000000000001E-002    0.34723505377769470     
   5.4599999999999996E-002    0.44780153036117554     
   5.4900000000000004E-002    0.51379454135894775     
   5.5199999999999999E-002    0.54260271787643433     
   5.5499999999999994E-002    0.53364586830139160     
   5.5800000000000002E-002    0.48827937245368958     
   5.6099999999999997E-002    0.40943667292594910     
   5.6400000000000006E-002    0.30181521177291870     
   5.6700000000000000E-002    0.17151302099227905     
   5.6999999999999995E-002     2.5672471150755882E-002
   5.7300000000000004E-002   -0.12782633304595947     
   5.7599999999999998E-002   -0.28086450695991516     
   5.7900000000000007E-002   -0.42528229951858521     
   5.8200000000000002E-002   -0.55331933498382568     
   5.8499999999999996E-002   -0.65848767757415771     
   5.8800000000000005E-002   -0.73577708005905151     
   5.9100000000000000E-002   -0.78209459781646729     
   5.9400000000000008E-002   -0.79661232233047485     
   5.9700000000000003E-002   -0.78087329864501953     
   6.0000000000000012E-002   -0.73877578973770142     
   6.0300000000000006E-002   -0.67646002769470215     
   6.0600000000000001E-002   -0.60159182548522949     
   6.0900000000000010E-002   -0.52272474765777588     
   6.1200000000000004E-002   -0.44861921668052673     
   6.1500000000000013E-002   -0.38730686902999878     
   6.1800000000000008E-002   -0.34516757726669312     
   6.2100000000000002E-002   -0.32604360580444336     
   6.2399999999999997E-002   -0.33089354634284973     
   6.2700000000000006E-002   -0.35765543580055237     
   6.3000000000000000E-002   -0.40099352598190308     
   6.3300000000000009E-002   -0.45256194472312927     
   6.3600000000000004E-002   -0.50216937065124512     
   6.3899999999999998E-002   -0.53823310136795044     
   6.4199999999999993E-002   -0.54912799596786499     
   6.4500000000000002E-002   -0.52422159910202026     
   6.4800000000000010E-002   -0.45481294393539429     
   6.5100000000000005E-002   -0.33550825715065002     
   6.5400000000000000E-002   -0.16456304490566254     
   6.5700000000000008E-002     5.5618483573198318E-002
   6.5999999999999989E-002    0.31803932785987854     
   6.6299999999999998E-002    0.61195158958435059     
   6.6600000000000006E-002    0.92293179035186768     
   6.6900000000000001E-002     1.2337728738784790     
   6.7199999999999996E-002     1.5257645845413208     
   6.7500000000000004E-002     1.7796120643615723     
   6.7800000000000013E-002     1.9770268201828003     
   6.8099999999999994E-002     2.1018197536468506     
   6.8400000000000002E-002     2.1409528255462646     
   6.8700000000000011E-002     2.0858287811279297     
   6.8999999999999992E-002     1.9329406023025513     
   6.9300000000000000E-002     1.6843204498291016     
   6.9600000000000009E-002     1.3476943969726562     
   6.9900000000000004E-002    0.93614494800567627     
   7.0199999999999999E-002    0.46767359972000122     
   7.0500000000000007E-002    -3.5710345953702927E-002
   7.0800000000000016E-002   -0.54956984519958496     
   7.1099999999999997E-002    -1.0482254028320312     
   7.1400000000000005E-002    -1.5060924291610718     
   7.1700000000000000E-002    -1.8995374441146851     
   7.1999999999999995E-002    -2.2081942558288574     
   7.2300000000000003E-002    -2.4159309864044189     
   7.2600000000000012E-002    -2.5119926929473877     
   7.2900000000000006E-002    -2.4911792278289795     
   7.3200000000000001E-002    -2.3541457653045654     
   7.3499999999999996E-002    -2.1070861816406250     
   7.3800000000000004E-002    -1.7610648870468140     
   7.4099999999999999E-002    -1.3315435647964478     
   7.4400000000000008E-002   -0.83703595399856567     
   7.4700000000000003E-002   -0.29828000068664551     
   7.5000000000000011E-002    0.26261350512504578     
   7.5299999999999992E-002    0.82352459430694580     
   7.5600000000000001E-002     1.3627462387084961     
   7.5900000000000009E-002     1.8599032163619995     
   7.6200000000000004E-002     2.2963774204254150     
   7.6499999999999999E-002     2.6557059288024902     
   7.6800000000000007E-002     2.9242630004882812     
   7.7099999999999988E-002     3.0911734104156494     
   7.7399999999999997E-002     3.1486654281616211     
   7.7700000000000005E-002     3.0921971797943115     
   7.8000000000000014E-002     2.9206364154815674     
   7.8299999999999995E-002     2.6365361213684082     
   7.8600000000000003E-002     2.2459282875061035     
   7.8900000000000012E-002     1.7586445808410645     
   7.9199999999999993E-002     1.1883934736251831     
   7.9500000000000001E-002    0.55228018760681152     
   7.9800000000000010E-002   -0.12911991775035858     
   8.0100000000000018E-002   -0.83202421665191650     
   8.0399999999999999E-002    -1.5300204753875732     
   8.0700000000000008E-002    -2.1951656341552734     
   8.1000000000000003E-002    -2.7988998889923096     
   8.1299999999999997E-002    -3.3127255439758301     
   8.1600000000000006E-002    -3.7101235389709473     
   8.1900000000000014E-002    -3.9677827358245850     
   8.2199999999999995E-002    -4.0673723220825195     
   8.2500000000000004E-002    -3.9966537952423096     
   8.2799999999999999E-002    -3.7504713535308838     
   8.3100000000000007E-002    -3.3322398662567139     
   8.3400000000000002E-002    -2.7542743682861328     
   8.3700000000000011E-002    -2.0372633934020996     
   8.4000000000000005E-002    -1.2098016738891602     
   8.4300000000000000E-002   -0.30766558647155762     
   8.4599999999999995E-002    0.62788861989974976     
   8.4900000000000003E-002     1.5526829957962036     
   8.5199999999999998E-002     2.4219162464141846     
   8.5500000000000007E-002     3.1924855709075928     
   8.5800000000000001E-002     3.8254971504211426     
   8.6100000000000010E-002     4.2886743545532227     
   8.6399999999999991E-002     4.5585932731628418     
   8.6699999999999999E-002     4.6217875480651855     
   8.7000000000000008E-002     4.4760470390319824     
   8.7300000000000003E-002     4.1300587654113770     
   8.7599999999999997E-002     3.6028642654418945     
   8.7900000000000006E-002     2.9232521057128906     
   8.8200000000000014E-002     2.1273610591888428     
   8.8499999999999995E-002     1.2564513683319092     
   8.8800000000000004E-002    0.35429105162620544     
   8.9100000000000013E-002   -0.53557598590850830     
   8.9399999999999993E-002    -1.3719009160995483     
   8.9700000000000002E-002    -2.1190891265869141     
   9.0000000000000011E-002    -2.7483935356140137     
   9.0299999999999991E-002    -3.2388041019439697     
   9.0600000000000000E-002    -3.5783541202545166     
   9.0900000000000009E-002    -3.7635440826416016     
   9.1200000000000017E-002    -3.7988271713256836     
   9.1499999999999998E-002    -3.6954717636108398     
   9.1800000000000007E-002    -3.4695646762847900     
   9.2100000000000001E-002    -3.1405620574951172     
   9.2399999999999996E-002    -2.7297146320343018     
   9.2700000000000005E-002    -2.2583372592926025     
   9.3000000000000013E-002    -1.7463501691818237     
   9.3300000000000008E-002    -1.2117346525192261     
   9.3600000000000003E-002   -0.67043608427047729     
   9.3899999999999997E-002   -0.13630609214305878     
   9.4200000000000006E-002    0.37920382618904114     
   9.4500000000000001E-002    0.86616992950439453     
   9.4800000000000009E-002     1.3145167827606201     
   9.5100000000000004E-002     1.7147661447525024     
   9.5399999999999999E-002     2.0576868057250977     
   9.5699999999999993E-002     2.3333189487457275     
   9.6000000000000002E-002     2.5324809551239014     
   9.6300000000000011E-002     2.6467318534851074     
   9.6600000000000005E-002     2.6691684722900391     
   9.6900000000000000E-002     2.5960001945495605     
   9.7200000000000009E-002     2.4269261360168457     
   9.7499999999999989E-002     2.1663830280303955     
   9.7799999999999998E-002     1.8232150077819824     
   9.8100000000000007E-002     1.4108798503875732     
   9.8400000000000015E-002    0.94778078794479370     
   9.8699999999999996E-002    0.45486474037170410     
   9.9000000000000005E-002    -4.5379549264907837E-002
   9.9300000000000013E-002   -0.52944040298461914     
   9.9599999999999994E-002   -0.97543632984161377     
   9.9900000000000003E-002    -1.3643521070480347     
  0.10020000000000001         -1.6810086965560913     
  0.10049999999999999         -1.9150899648666382     
  0.10080000000000000         -2.0610818862915039     
  0.10110000000000001         -2.1183938980102539     
  0.10140000000000000         -2.0913345813751221     
  0.10170000000000000         -1.9876772165298462     
  0.10200000000000001         -1.8178811073303223     
  0.10230000000000002         -1.5950164794921875     
  0.10260000000000000         -1.3333308696746826     
  0.10290000000000001         -1.0481191873550415     
  0.10320000000000000        -0.75515085458755493     
  0.10350000000000001        -0.47019380331039429     
  0.10380000000000000        -0.20952974259853363     
  0.10410000000000001          1.1123592965304852E-002
  0.10440000000000001         0.17690058052539825     
  0.10470000000000000         0.27420869469642639     
  0.10500000000000000         0.29294431209564209     
  0.10530000000000000         0.22631236910820007     
  0.10560000000000000          7.2470650076866150E-002
  0.10590000000000001        -0.16319543123245239     
  0.10620000000000000        -0.46858423948287964     
  0.10650000000000001        -0.82409209012985229     
  0.10679999999999999         -1.2025351524353027     
  0.10710000000000000         -1.5710064172744751     
  0.10740000000000001         -1.8923021554946899     
  0.10770000000000000         -2.1278233528137207     
  0.10800000000000000         -2.2406198978424072     
  0.10830000000000001         -2.1983866691589355     
  0.10859999999999999         -1.9768574237823486     
  0.10890000000000000         -1.5625909566879272     
  0.10920000000000001        -0.95468097925186157     
  0.10950000000000001        -0.16605016589164734     
  0.10979999999999999         0.77690893411636353     
  0.11009999999999999          1.8359925746917725     
  0.11040000000000001          2.9622886180877686     
  0.11070000000000001          4.1001381874084473     
  0.11100000000000000          5.1910181045532227     
  0.11130000000000000          6.1760253906250000     
  0.11160000000000002          7.0012540817260742     
  0.11190000000000001          7.6204371452331543     
  0.11220000000000001          7.9967565536499023     
  0.11250000000000000          8.1066570281982422     
  0.11280000000000000          7.9396166801452637     
  0.11309999999999999          7.4983787536621094     
  0.11340000000000001          6.7982735633850098     
  0.11369999999999998          5.8658862113952637     
  0.11400000000000000          4.7376780509948730     
  0.11430000000000000          3.4564201831817627     
  0.11460000000000002          2.0693252086639404     
  0.11489999999999999         0.62565344572067261     
  0.11520000000000001        -0.82632577419281006     
  0.11550000000000001         -2.2412903308868408     
  0.11580000000000000         -3.5794124603271484     
  0.11609999999999999         -4.8073086738586426     
  0.11640000000000002         -5.8999748229980469     
  0.11670000000000001         -6.8414072990417480     
  0.11700000000000001         -7.6233482360839844     
  0.11730000000000000         -8.2462863922119141     
  0.11760000000000000         -8.7176828384399414     
  0.11789999999999999         -9.0490770339965820     
  0.11820000000000001         -9.2548580169677734     
  0.11850000000000001         -9.3493452072143555     
  0.11880000000000000         -9.3430824279785156     
  0.11910000000000000         -9.2412843704223633     
  0.11940000000000002         -9.0415983200073242     
  0.11970000000000001         -8.7327508926391602     
  0.12000000000000001         -8.2952337265014648     
  0.12030000000000000         -7.7029089927673340     
  0.12060000000000000         -6.9255471229553223     
  0.12089999999999999         -5.9330167770385742     
  0.12119999999999999         -4.7001051902770996     
  0.12150000000000001         -3.2128221988677979     
  0.12180000000000001         -1.4722415208816528     
  0.12210000000000000         0.50167453289031982     
  0.12239999999999999          2.6661922931671143     
  0.12270000000000002          4.9557576179504395     
  0.12300000000000001          7.2853937149047852     
  0.12330000000000001          9.5526905059814453     
  0.12360000000000000          11.645588874816895     
  0.12390000000000000          13.449965476989746     
  0.12419999999999999          14.857977867126465     
  0.12450000000000001          15.778560638427734     
  0.12480000000000001          16.143835067749023     
  0.12509999999999999          15.916179656982422     
  0.12540000000000001          15.092531204223633     
  0.12570000000000003          13.703200340270996     
  0.12600000000000000          11.812905311584473     
  0.12630000000000002          9.5150127410888672     
  0.12659999999999999          6.9219894409179688     
  0.12690000000000001          4.1606750488281250     
  0.12719999999999998          1.3616807460784912     
  0.12750000000000000         -1.3498647212982178     
  0.12780000000000002         -3.8614780902862549     
  0.12809999999999999         -6.0802230834960938     
  0.12840000000000001         -7.9340982437133789     
  0.12869999999999998         -9.3757152557373047     
  0.12900000000000000         -10.382348060607910     
  0.12930000000000003         -10.951290130615234     
  0.12959999999999999         -11.098310470581055     
  0.12990000000000002         -10.854781150817871     
  0.13019999999999998         -10.261526107788086     
  0.13050000000000000         -9.3674716949462891     
  0.13080000000000003         -8.2259836196899414     
  0.13109999999999999         -6.8928112983703613     
  0.13140000000000002         -5.4270749092102051     
  0.13169999999999998         -3.8874478340148926     
  0.13200000000000001         -2.3328597545623779     
  0.13229999999999997        -0.82459390163421631     
  0.13260000000000000         0.57941585779190063     
  0.13290000000000002          1.8232420682907104     
  0.13319999999999999          2.8549683094024658     
  0.13350000000000001          3.6318497657775879     
  0.13380000000000003          4.1198840141296387     
  0.13410000000000000          4.2990221977233887     
  0.13440000000000002          4.1654191017150879     
  0.13469999999999999          3.7313685417175293     
  0.13500000000000001          3.0275661945343018     
  0.13529999999999998          2.1007237434387207     
  0.13560000000000000          1.0126833915710449     
  0.13590000000000002        -0.16296690702438354     
  0.13619999999999999         -1.3479368686676025     
  0.13650000000000001         -2.4611339569091797     
  0.13680000000000003         -3.4247772693634033     
  0.13710000000000000         -4.1725564002990723     
  0.13740000000000002         -4.6516447067260742     
  0.13769999999999999         -4.8264093399047852     
  0.13800000000000001         -4.6834020614624023     
  0.13829999999999998         -4.2304534912109375     
  0.13860000000000000         -3.4951972961425781     
  0.13890000000000002         -2.5251533985137939     
  0.13919999999999999         -1.3835721015930176     
  0.13950000000000001        -0.14427223801612854     
  0.13979999999999998          1.1141202449798584     
  0.14010000000000000          2.3134367465972900     
  0.14040000000000002          3.3792405128479004     
  0.14069999999999999          4.2499847412109375     
  0.14100000000000001          4.8796701431274414     
  0.14130000000000004          5.2374153137207031     
  0.14160000000000000          5.3145332336425781     
  0.14189999999999997          5.1218423843383789     
  0.14219999999999999          4.6865887641906738     
  0.14250000000000002          4.0541400909423828     
  0.14279999999999998          3.2806243896484375     
  0.14310000000000000          2.4295256137847900     
  0.14339999999999997          1.5678769350051880     
  0.14369999999999999         0.75864875316619873     
  0.14400000000000002          5.9648964554071426E-002
  0.14429999999999998        -0.48293584585189819     
  0.14460000000000001        -0.83938151597976685     
  0.14490000000000003        -0.99385416507720947     
  0.14520000000000000        -0.94749826192855835     
  0.14550000000000002        -0.71945524215698242     
  0.14579999999999999        -0.34211531281471252     
  0.14610000000000001         0.14107060432434082     
  0.14640000000000003         0.67919737100601196     
  0.14670000000000000          1.2184689044952393     
  0.14699999999999996          1.7052875757217407     
  0.14729999999999999          2.0938775539398193     
  0.14760000000000001          2.3480322360992432     
  0.14789999999999998          2.4420256614685059     
  0.14820000000000000          2.3674509525299072     