  -1.4999999999999999E-002     0.0000000000000000     
  -1.4700000000000000E-002     0.0000000000000000     
  -1.4400000000000000E-002     0.0000000000000000     
  -1.4100000000000000E-002     0.0000000000000000     
  -1.3800000000000000E-002     0.0000000000000000     
  -1.3500000000000000E-002     0.0000000000000000     
  -1.3200000000000000E-002     0.0000000000000000     
  -1.2899999999999998E-002     0.0000000000000000     
  -1.2600000000000000E-002     0.0000000000000000     
  -1.2299999999999998E-002     0.0000000000000000     
  -1.2000000000000000E-002     0.0000000000000000     
  -1.1699999999999999E-002     0.0000000000000000     
  -1.1399999999999999E-002     0.0000000000000000     
  -1.1099999999999999E-002     0.0000000000000000     
  -1.0799999999999999E-002     0.0000000000000000     
  -1.0499999999999999E-002     0.0000000000000000     
  -1.0199999999999999E-002     0.0000000000000000     
  -9.8999999999999991E-003     0.0000000000000000     
  -9.5999999999999992E-003     0.0000000000000000     
  -9.2999999999999992E-003     0.0000000000000000     
  -8.9999999999999993E-003     0.0000000000000000     
  -8.6999999999999994E-003     0.0000000000000000     
  -8.3999999999999995E-003     0.0000000000000000     
  -8.0999999999999996E-003     0.0000000000000000     
  -7.7999999999999988E-003     0.0000000000000000     
  -7.4999999999999997E-003     0.0000000000000000     
  -7.1999999999999998E-003     0.0000000000000000     
  -6.8999999999999981E-003     0.0000000000000000     
  -6.5999999999999982E-003     0.0000000000000000     
  -6.3000000000000000E-003     0.0000000000000000     
  -6.0000000000000001E-003     0.0000000000000000     
  -5.6999999999999985E-003     0.0000000000000000     
  -5.3999999999999986E-003     0.0000000000000000     
  -5.1000000000000004E-003     0.0000000000000000     
  -4.7999999999999987E-003     0.0000000000000000     
  -4.5000000000000005E-003     0.0000000000000000     
  -4.1999999999999989E-003     0.0000000000000000     
  -3.8999999999999990E-003     0.0000000000000000     
  -3.5999999999999990E-003     0.0000000000000000     
  -3.2999999999999991E-003     0.0000000000000000     
  -2.9999999999999992E-003     0.0000000000000000     
  -2.6999999999999993E-003     0.0000000000000000     
  -2.3999999999999994E-003     0.0000000000000000     
  -2.0999999999999977E-003     0.0000000000000000     
  -1.7999999999999995E-003     0.0000000000000000     
  -1.4999999999999979E-003     0.0000000000000000     
  -1.1999999999999997E-003     0.0000000000000000     
  -8.9999999999999976E-004     0.0000000000000000     
  -5.9999999999999810E-004     0.0000000000000000     
  -2.9999999999999992E-004     0.0000000000000000     
   0.0000000000000000          0.0000000000000000     
   3.0000000000000165E-004     0.0000000000000000     
   5.9999999999999984E-004     0.0000000000000000     
   9.0000000000000149E-004     0.0000000000000000     
   1.2000000000000031E-003     0.0000000000000000     
   1.5000000000000013E-003     0.0000000000000000     
   1.8000000000000030E-003     0.0000000000000000     
   2.1000000000000012E-003     0.0000000000000000     
   2.3999999999999994E-003     0.0000000000000000     
   2.7000000000000010E-003     0.0000000000000000     
   2.9999999999999992E-003     0.0000000000000000     
   3.3000000000000008E-003     0.0000000000000000     
   3.6000000000000025E-003     0.0000000000000000     
   3.9000000000000007E-003     0.0000000000000000     
   4.2000000000000023E-003     0.0000000000000000     
   4.5000000000000005E-003     0.0000000000000000     
   4.7999999999999987E-003     0.0000000000000000     
   5.1000000000000004E-003     5.6899981632502017E-038
   5.4000000000000020E-003     1.1557804537791303E-036
   5.7000000000000037E-003    -3.0936064958623557E-035
   5.9999999999999984E-003     2.5136020991289380E-034
   6.3000000000000000E-003     7.9756683892011460E-034
   6.6000000000000017E-003    -2.3388659734809835E-032
   6.9000000000000034E-003     1.6612992735532512E-031
   7.2000000000000015E-003    -1.9812289627497410E-031
   7.5000000000000032E-003    -5.8921553085665069E-030
   7.8000000000000014E-003     4.8590553504804756E-029
   8.0999999999999996E-003    -1.1291627438124456E-028
   8.4000000000000012E-003    -7.4033213433104410E-028
   8.7000000000000029E-003     7.0238434803978092E-027
   9.0000000000000011E-003    -2.1316408693746695E-026
   9.2999999999999992E-003    -2.5578505733166306E-026
   9.6000000000000009E-003     4.7797363642887006E-025
   9.8999999999999991E-003    -1.8247408447937234E-024
   1.0200000000000001E-002     1.8792918568809259E-024
   1.0500000000000002E-002     1.2432964419913940E-023
   1.0800000000000004E-002    -6.4192227616987183E-023
   1.1099999999999999E-002     1.0577433544203795E-022
   1.1400000000000000E-002     2.4111442635152817E-022
   1.1700000000000002E-002    -1.8566248301919835E-021
   1.2000000000000004E-002     4.4436320842903904E-021
   1.2300000000000002E-002     1.7402362413345326E-021
   1.2600000000000000E-002    -5.9033461271384182E-020
   1.2900000000000002E-002     2.9725471185536999E-019
   1.3200000000000000E-002    -1.1031718803409630E-018
   1.3500000000000002E-002     3.8817264260980098E-018
   1.3800000000000003E-002    -1.4723523296042796E-017
   1.4100000000000001E-002     6.0929750973894573E-017
   1.4400000000000000E-002    -2.6093565875110761E-016
   1.4700000000000001E-002     1.1088402694866220E-015
   1.4999999999999999E-002    -4.5923861186324895E-015
   1.5300000000000001E-002     1.8334271711636399E-014
   1.5600000000000003E-002    -6.9275632609506563E-014
   1.5899999999999997E-002     2.3951306808994179E-013
   1.6199999999999999E-002    -7.1270829278005694E-013
   1.6500000000000001E-002     1.5833661525582585E-012
   1.6800000000000002E-002    -1.1515605546787677E-012
   1.7100000000000004E-002    -1.1016692199843638E-011
   1.7400000000000006E-002     6.9430773119117821E-011
   1.7700000000000000E-002    -2.2983448568868539E-010
   1.8000000000000002E-002     4.1168013033150000E-010
   1.8300000000000004E-002     1.3254165702574513E-010
   1.8600000000000005E-002    -3.1540875226734402E-009
   1.8900000000000000E-002     8.2323936200342717E-009
   1.9200000000000002E-002    -3.0227071948539036E-009
   1.9500000000000003E-002    -3.4118477287087654E-008
   1.9799999999999998E-002     6.9155710070946389E-008
   2.0100000000000000E-002     5.0814973145614496E-008
   2.0400000000000001E-002    -3.0390482449287819E-007
   2.0700000000000003E-002    -3.4189551632004028E-008
   2.0999999999999998E-002     9.5875249961616373E-007
   2.1299999999999999E-002     2.7922663317477440E-007
   2.1600000000000001E-002    -2.7651365890842794E-006
   2.1900000000000003E-002    -2.7545959754852111E-006
   2.2200000000000004E-002     8.5624939946212781E-006
   2.2500000000000006E-002     3.3946671918083106E-005
   2.2800000000000001E-002     6.9208897902346732E-005
   2.3100000000000002E-002     1.1190237767494220E-004
   2.3400000000000004E-002     1.6858656153538598E-004
   2.3699999999999999E-002     2.5566948806567992E-004
   2.4000000000000000E-002     3.9690036063652623E-004
   2.4300000000000002E-002     6.1956179926967239E-004
   2.4599999999999997E-002     9.5643706478924437E-004
   2.4900000000000005E-002     1.4532290671339168E-003
   2.5200000000000000E-002     2.1744337991687623E-003
   2.5499999999999995E-002     3.2090411248846679E-003
   2.5800000000000003E-002     4.6755701631500668E-003
   2.6099999999999998E-002     6.7242059757733896E-003
   2.6400000000000007E-002     9.5379054857796242E-003
   2.6700000000000002E-002     1.3334492480074678E-002
   2.6999999999999996E-002     1.8369197528661285E-002
   2.7300000000000005E-002     2.4928876407205536E-002
   2.7600000000000000E-002     3.3314142497819055E-002
   2.7900000000000008E-002     4.3817880687556654E-002
   2.8200000000000003E-002     5.6698354026908815E-002
   2.8499999999999998E-002     7.2136093461671713E-002
   2.8800000000000006E-002     9.0174458360175791E-002
   2.9100000000000001E-002    0.11065237406313555     
   2.9400000000000003E-002    0.13313529252775158     
   2.9700000000000004E-002    0.15684209446495956     
   3.0000000000000006E-002    0.18057522900994449     
   3.0300000000000001E-002    0.20266927558316095     
   3.0600000000000002E-002    0.22098010471893215     
   3.0900000000000004E-002    0.23290298357506956     
   3.1199999999999999E-002    0.23544467959778181     
   3.1500000000000007E-002    0.22536738710097914     
   3.1800000000000002E-002    0.19937988923858718     
   3.2099999999999997E-002    0.15445426257840289     
   3.2400000000000005E-002     8.8136184629724390E-002
   3.2700000000000000E-002    -1.0885348824422603E-003
   3.3000000000000002E-002   -0.11341945031585832     
   3.3300000000000003E-002   -0.24742226085291463     
   3.3599999999999998E-002   -0.39975003254373043     
   3.3900000000000000E-002   -0.56501664686951258     
   3.4200000000000001E-002   -0.73584570140528527     
   3.4500000000000003E-002   -0.90304773087586909     
   3.4799999999999998E-002    -1.0561069659955322     
   3.5099999999999999E-002    -1.1837482007084361     
   3.5400000000000001E-002    -1.2747391967192101     
   3.5699999999999996E-002    -1.3187832410673650     
   3.6000000000000004E-002    -1.3073908571643784     
   3.6299999999999999E-002    -1.2347721062730912     
   3.6600000000000008E-002    -1.0985635006981980     
   3.6900000000000002E-002   -0.90024311400638624     
   3.7199999999999997E-002   -0.64542777179683952     
   3.7500000000000006E-002   -0.34359356106913275     
   3.7800000000000000E-002    -7.7384704838132645E-003
   3.8100000000000009E-002    0.34653370299228126     
   3.8400000000000004E-002    0.70191229890020423     
   3.8699999999999998E-002     1.0407284449024239     
   3.9000000000000007E-002     1.3460616426885395     
   3.9300000000000002E-002     1.6029439181758107     
   3.9600000000000003E-002     1.7994326826433351     
   3.9900000000000005E-002     1.9272516895286742     
   4.0200000000000000E-002     1.9823423798494773     
   4.0500000000000001E-002     1.9648406901286322     
   4.0800000000000003E-002     1.8789277172643040     
   4.1100000000000005E-002     1.7322169511313206     
   4.1399999999999999E-002     1.5350623815034439     
   4.1700000000000008E-002     1.2996435337538443     
   4.2000000000000003E-002     1.0389885920868878     
   4.2299999999999997E-002    0.76616919892100555     
   4.2600000000000006E-002    0.49328233044372993     
   4.2900000000000001E-002    0.23101455844713570     
   4.3200000000000002E-002    -1.1924221603907048E-002
   4.3500000000000004E-002   -0.22906787359325698     
   4.3799999999999999E-002   -0.41600468552927339     
   4.4100000000000000E-002   -0.57060354349379061     
   4.4400000000000002E-002   -0.69240690090841994     
   4.4700000000000004E-002   -0.78248872119651480     
   4.4999999999999998E-002   -0.84306997835153652     
   4.5300000000000000E-002   -0.87694126734464106     
   4.5600000000000002E-002   -0.88741039655795717     
   4.5899999999999996E-002   -0.87770227945838286     
   4.6200000000000005E-002   -0.85099576007781508     
   4.6500000000000000E-002   -0.81014914034500052     
   4.6799999999999994E-002   -0.75766308533002302     
   4.7100000000000003E-002   -0.69583831495545923     
   4.7399999999999998E-002   -0.62663485253617779     
   4.7700000000000006E-002   -0.55200906719673881     
   4.8000000000000001E-002   -0.47390937155367219     
   4.8300000000000010E-002   -0.39447349870764725     
   4.8600000000000004E-002   -0.31620802566828665     
   4.8899999999999999E-002   -0.24197269947839661     
   4.9200000000000008E-002   -0.17514857771880266     
   4.9500000000000002E-002   -0.11951240379976458     
   4.9800000000000011E-002    -7.9183483395730558E-002
   5.0100000000000006E-002    -5.8329805396021728E-002
   5.0400000000000000E-002    -6.0933163052326877E-002
   5.0700000000000009E-002    -9.0271829543590920E-002
   5.1000000000000004E-002   -0.14850464893868454     
   5.1299999999999998E-002   -0.23616315332037718     
   5.1600000000000007E-002   -0.35148646496838332     
   5.1900000000000002E-002   -0.49034594761844907     
   5.2200000000000010E-002   -0.64563896958384248     
   5.2500000000000005E-002   -0.80752804737692685     
   5.2800000000000000E-002   -0.96363287003782006     
   5.3099999999999994E-002    -1.0994301843006404     
   5.3400000000000003E-002    -1.1995393161671544     
   5.3699999999999998E-002    -1.2483360398997689     
   5.4000000000000006E-002    -1.2317731872469722     
   5.4300000000000001E-002    -1.1386326942763247     
   5.4599999999999996E-002   -0.96168437675543927     
   5.4900000000000004E-002   -0.69935182409762575     
   5.5199999999999999E-002   -0.35579695140694234     
   5.5499999999999994E-002     5.8109345314909966E-002
   5.5800000000000002E-002    0.52541595318695711     
   5.6099999999999997E-002     1.0239452773635804     
   5.6400000000000006E-002     1.5272607090440644     
   5.6700000000000000E-002     2.0070209344228189     
   5.6999999999999995E-002     2.4346112162964175     
   5.7300000000000004E-002     2.7835490024814078     
   5.7599999999999998E-002     3.0315044709763725     
   5.7900000000000007E-002     3.1618282734268917     
   5.8200000000000002E-002     3.1650318225065348     
   5.8499999999999996E-002     3.0393404109766209     
   5.8800000000000005E-002     2.7906844691997890     
   5.9100000000000000E-002     2.4322395391662184     
   5.9400000000000008E-002     1.9831469628648790     
   5.9700000000000003E-002     1.4668010152905424     
   6.0000000000000012E-002    0.90941511918999751     
   6.0300000000000006E-002    0.33777207054887803     
   6.0600000000000001E-002   -0.22244009674304621     
   6.0900000000000010E-002   -0.74814124227407675     
   6.1200000000000004E-002    -1.2201404248645176     
   6.1500000000000013E-002    -1.6238226298433318     
   6.1800000000000008E-002    -1.9495444231116537     
   6.2100000000000002E-002    -2.1925893491021569     
   6.2399999999999997E-002    -2.3525722684176458     
   6.2700000000000006E-002    -2.4330837836013188     
   6.3000000000000000E-002    -2.4406848678367226     
   6.3300000000000009E-002    -2.3840699013497044     
   6.3600000000000004E-002    -2.2734339914260886     
   6.3899999999999998E-002    -2.1194910303554764     
   6.4199999999999993E-002    -1.9332632525009004     
   6.4500000000000002E-002    -1.7254445130887177     
   6.4800000000000010E-002    -1.5062322959535450     
   6.5100000000000005E-002    -1.2851520379603869     
   6.5400000000000000E-002    -1.0707640739690234     
   6.5700000000000008E-002   -0.87057864209193170     
   6.5999999999999989E-002   -0.69080178366564837     
   6.6299999999999998E-002   -0.53599230278713250     
   6.6600000000000006E-002   -0.40876336345935194     
   6.6900000000000001E-002   -0.30941447031752212     
   6.7199999999999996E-002   -0.23541187215492165     
   6.7500000000000004E-002   -0.18160978212762391     
   6.7800000000000013E-002   -0.13978612099092036     
   6.8099999999999994E-002    -9.9328674153468466E-002
   6.8400000000000002E-002    -4.7958955083288402E-002
   6.8700000000000011E-002     2.7815173965086259E-002
   6.8999999999999992E-002    0.14055905133316590     
   6.9300000000000000E-002    0.30116016538069923     
   6.9600000000000009E-002    0.51689486689439601     
   6.9900000000000004E-002    0.78974661876739027     
   7.0199999999999999E-002     1.1162009944561930     
   7.0500000000000007E-002     1.4854092776699304     
   7.0800000000000016E-002     1.8801892630301325     
   7.1099999999999997E-002     2.2775609098545999     
   7.1400000000000005E-002     2.6494679282329798     
   7.1700000000000000E-002     2.9661010559617296     
   7.1999999999999995E-002     3.1971994745022130     
   7.2300000000000003E-002     3.3155522318380548     
   7.2600000000000012E-002     3.2997051698987434     
   7.2900000000000006E-002     3.1355762823163218     
   7.3200000000000001E-002     2.8193376972430286     
   7.3499999999999996E-002     2.3573482400063028     
   7.3800000000000004E-002     1.7666654108695354     
   7.4099999999999999E-002     1.0742011186794116     
   7.4400000000000008E-002    0.31434149414873680     
   7.4700000000000003E-002   -0.47288842738105252     
   7.5000000000000011E-002    -1.2454064833362413     
   7.5299999999999992E-002    -1.9621959833982743     
   7.5600000000000001E-002    -2.5859937214989515     
   7.5900000000000009E-002    -3.0866840730968335     
   7.6200000000000004E-002    -3.4429283430552431     
   7.6499999999999999E-002    -3.6432432055152759     
   7.6800000000000007E-002    -3.6868714488681746     
   7.7099999999999988E-002    -3.5825570299220146     
   7.7399999999999997E-002    -3.3476068053836912     
   7.7700000000000005E-002    -3.0058062665333694     
   7.8000000000000014E-002    -2.5847298202874356     
   7.8299999999999995E-002    -2.1135918602853394     
   7.8600000000000003E-002    -1.6201554973329095     
   7.8900000000000012E-002    -1.1288606488465192     
   7.9199999999999993E-002   -0.65918265350476091     
   7.9500000000000001E-002   -0.22417073240072849     
   7.9800000000000010E-002    0.16938337653599600     
   8.0100000000000018E-002    0.52101390069294329     
   8.0399999999999999E-002    0.83544350203401585     
   8.0700000000000008E-002     1.1208819562867447     
   8.1000000000000003E-002     1.3874296148886387     
   8.1299999999999997E-002     1.6444882334737017     
   8.1600000000000006E-002     1.8995297510923947     
   8.1900000000000014E-002     2.1558124935244720     
   8.2199999999999995E-002     2.4114482364317951     
   8.2500000000000004E-002     2.6588378410400679     
   8.2799999999999999E-002     2.8847157940538324     
   8.3100000000000007E-002     3.0712217475186918     
   8.3400000000000002E-002     3.1972015891514474     
   8.3700000000000011E-002     3.2408981785750797     
   8.4000000000000005E-002     3.1815880590239232     
   8.4300000000000000E-002     3.0027362894095546     
   8.4599999999999995E-002     2.6943139545444268     
   8.4900000000000003E-002     2.2540683314919647     
   8.5199999999999998E-002     1.6896345949009230     
   8.5500000000000007E-002     1.0178001710144606     
   8.5800000000000001E-002    0.26480391872104603     
   8.6100000000000010E-002   -0.53564653942818907     
   8.6399999999999991E-002    -1.3449431660156934     
   8.6699999999999999E-002    -2.1213721746656375     
   8.7000000000000008E-002    -2.8247713955740110     
   8.7300000000000003E-002    -3.4183578333452260     
   8.7599999999999997E-002    -3.8720902581338805     
   8.7900000000000006E-002    -4.1650875749346028     
   8.8200000000000014E-002    -4.2857894632348348     
   8.8499999999999995E-002    -4.2336935378879730     
   8.8800000000000004E-002    -4.0180495911103833     
   8.9100000000000013E-002    -3.6564805005250065     
   8.9399999999999993E-002    -3.1736335272524343     
   8.9700000000000002E-002    -2.5979247897289923     
   9.0000000000000011E-002    -1.9600995214167796     
   9.0299999999999991E-002    -1.2907598752621965     
   9.0600000000000000E-002   -0.61806200299413128     
   9.0900000000000009E-002     3.2413811995377628E-002
   9.1200000000000017E-002    0.63927189596649114     
   9.1499999999999998E-002     1.1850590779367938     
   9.1800000000000007E-002     1.6555539600005531     
   9.2100000000000001E-002     2.0399596296135627     
   9.2399999999999996E-002     2.3298029190547709     
   9.2700000000000005E-002     2.5184523548169295     
   9.3000000000000013E-002     2.6013602501028004     
   9.3300000000000008E-002     2.5756599161159954     
   9.3600000000000003E-002     2.4413765318444121     
   9.3899999999999997E-002     2.2017204016853213     
   9.4200000000000006E-002     1.8638939141092692     
   9.4500000000000001E-002     1.4406116589493081     
   9.4800000000000009E-002    0.94958938596313658     
   9.5100000000000004E-002    0.41419694233686499     
   9.5399999999999999E-002   -0.13736469193377232     
   9.5699999999999993E-002   -0.67347924781795498     
   9.6000000000000002E-002    -1.1605691571338692     
   9.6300000000000011E-002    -1.5662180855888685     
   9.6600000000000005E-002    -1.8612156868783316     
   9.6900000000000000E-002    -2.0224714524929936     
   9.7200000000000009E-002    -2.0355131821191677     
   9.7499999999999989E-002    -1.8959166214723240     
   9.7799999999999998E-002    -1.6105794940256501     
   9.8100000000000007E-002    -1.1976810692792341     
   9.8400000000000015E-002   -0.68551688851475490     
   9.8699999999999996E-002   -0.11085628307303663     
   9.9000000000000005E-002    0.48383815278724285     
   9.9300000000000013E-002     1.0537291458971225     
   9.9599999999999994E-002     1.5549194041674177     
   9.9900000000000003E-002     1.9479662462627516     
  0.10020000000000001          2.2008918778556108     
  0.10049999999999999          2.2915016537367734     
  0.10080000000000000          2.2094524865851355     
  0.10110000000000001          1.9567054167591067     
  0.10140000000000000          1.5475235642715290     
  0.10170000000000000          1.0079079788427343     
  0.10200000000000001         0.37341116978110822     
  0.10230000000000002        -0.31261324671412893     
  0.10260000000000000         -1.0019051002721060     
  0.10290000000000001         -1.6446770552071914     
  0.10320000000000000         -2.1921698106669432     
  0.10350000000000001         -2.6005531078932833     
  0.10380000000000000         -2.8334743747297750     
  0.10410000000000001         -2.8649023999146976     
  0.10440000000000001         -2.6818360348079437     
  0.10470000000000000         -2.2850088143393066     
  0.10500000000000000         -1.6902490765078539     
  0.10530000000000000        -0.92792976052386678     
  0.10560000000000000         -4.1484534897819003E-002
  0.10590000000000001         0.91455698207830949     
  0.10620000000000000          1.8782948112736468     
  0.10650000000000001          2.7843494115352101     
  0.10679999999999999          3.5684133318893458     
  0.10710000000000000          4.1725092379795967     
  0.10740000000000001          4.5490817739771501     
  0.10770000000000000          4.6649708879700995     
  0.10800000000000000          4.5046499566830960     
  0.10830000000000001          4.0714207971838761     
  0.10859999999999999          3.3882667569215101     
  0.10890000000000000          2.4962014276623421     
  0.10920000000000001          1.4511834142673052     
  0.10950000000000001         0.32127687370319391     
  0.10979999999999999        -0.81978332266182008     
  0.11009999999999999         -1.8971022991423574     
  0.11040000000000001         -2.8401997606579208     
  0.11070000000000001         -3.5891370791269495     
  0.11100000000000000         -4.0973256202019286     
  0.11130000000000000         -4.3367056224437732     
  0.11160000000000002         -4.2983070185903216     
  0.11190000000000001         -3.9930082266386648     
  0.11220000000000001         -3.4511223394619321     
  0.11250000000000000         -2.7179684425865673     
  0.11280000000000000         -1.8521410908902283     
  0.11309999999999999        -0.91922864521663428     
  0.11340000000000001          1.3136864426771311E-002
  0.11369999999999998         0.87952314810165433     
  0.11400000000000000          1.6233581088200060     
  0.11430000000000000          2.1995449414496200     
  0.11460000000000002          2.5781079783029668     
  0.11489999999999999          2.7460628829278448     
  0.11520000000000001          2.7066445909747330     
  0.11550000000000001          2.4792526237613401     
  0.11580000000000000          2.0959664957682449     
  0.11609999999999999          1.5980744734302661     
  0.11640000000000002          1.0325223051063404     
  0.11670000000000001         0.44634997698364032     
  0.11700000000000001        -0.11668596192815528     
  0.11730000000000000        -0.61981368699299111     
  0.11760000000000000         -1.0367155322924315     
  0.11789999999999999         -1.3518998936524724     
  0.11820000000000001         -1.5618342769386402     
  0.11850000000000001         -1.6732842513234942     
  0.11880000000000000         -1.7011388461141905     
  0.11910000000000000         -1.6664790229312061     
  0.11940000000000002         -1.5915069135647357     
  0.11970000000000001         -1.4975518587679701     
  0.12000000000000001         -1.4018234676092121     
  0.12030000000000000         -1.3144986107262326     
  0.12060000000000000         -1.2389857576614958     
  0.12089999999999999         -1.1705353139287169     
  0.12119999999999999         -1.0985749651113395     
  0.12150000000000001         -1.0084361441355796     
  0.12180000000000001        -0.88375564184567779     
  0.12210000000000000        -0.71083044477215651     
  0.12239999999999999        -0.48037027151328360     
  0.12270000000000002        -0.19092960340055143     
  0.12300000000000001         0.14997702374924238     
  0.12330000000000001         0.52578627339838935     
  0.12360000000000000         0.91137155357516786     
  0.12390000000000000          1.2759408016646443     
  0.12419999999999999          1.5855489621326910     
  0.12450000000000001          1.8077197886680025     
  0.12480000000000001          1.9146736592808224     
  0.12509999999999999          1.8873325428110377     
  0.12540000000000001          1.7182312323261399     
  0.12570000000000003          1.4123252383717642     
  0.12600000000000000         0.98804521388818145     
  0.12630000000000002         0.47472775355650754     
  0.12659999999999999         -8.9374171898709776E-002
  0.12690000000000001        -0.66120169600540635     
  0.12719999999999998         -1.1977933470580142     
  0.12750000000000000         -1.6593315037181640     
  0.12780000000000002         -2.0144103142386385     
  0.12809999999999999         -2.2418735002285857     
  0.12840000000000001         -2.3327346932570876     
  0.12869999999999998         -2.2909449367881507     
  0.12900000000000000         -2.1309868525339226     
  0.12930000000000003         -1.8766165691568801     
  0.12959999999999999         -1.5568653903180234     
  0.12990000000000002         -1.2026294781063669     
  0.13019999999999998        -0.84389763614099778     
  0.13050000000000000        -0.50573918390250405     
  0.13080000000000003        -0.20720768553808178     
  0.13109999999999999          4.0404827702107848E-002
  0.13140000000000002         0.23384375408369307     
  0.13169999999999998         0.37658904271510618     
  0.13200000000000001         0.47820390777939714     
  0.13229999999999997         0.55207867465325222     
  0.13260000000000000         0.61368858731028553     
  0.13290000000000002         0.67889658720083546     
  0.13319999999999999         0.76241647710057237     
  0.13350000000000001         0.87683124530291323     
  0.13380000000000003          1.0324124047824306     
  0.13410000000000000          1.2362713714735953     
  0.13440000000000002          1.4927593827065095     
  0.13469999999999999          1.8035963998884768     
  0.13500000000000001          2.1673929219182604     
  0.13529999999999998          2.5805263447184075     
  0.13560000000000000          3.0359613953275968     
  0.13590000000000002          3.5233289241306238     
  0.13619999999999999          4.0290029748507692     
  0.13650000000000001          4.5350058579046646     
  0.13680000000000003          5.0197862971001825     
  0.13710000000000000          5.4581677020560591     
  0.13740000000000002          5.8219936646434007     
  0.13769999999999999          6.0820942640397675     
  0.13800000000000001          6.2087977071454361     
  0.13829999999999998          6.1749501802391649     
  0.13860000000000000          5.9578513553912558     
  0.13890000000000002          5.5403312907039606     
  0.13919999999999999          4.9136063878320613     
  0.13950000000000001          4.0777550584662521     
  0.13979999999999998          3.0424611229380218     
  0.14010000000000000          1.8275509690651006     
  0.14040000000000002         0.46089553800622340     
  0.14069999999999999         -1.0215850273615743     
  0.14100000000000001         -2.5774752302359900     
  0.14130000000000004         -4.1621080807896504     
  0.14160000000000000         -5.7274750028538044     
  0.14189999999999997         -7.2266205562296264     
  0.14219999999999999         -8.6150688911570512     
  0.14250000000000002         -9.8506507679651349     
  0.14279999999999998         -10.897490103807883     
  0.14310000000000000         -11.724133418175029     
  0.14339999999999997         -12.305532020683245     
  0.14369999999999999         -12.623586067049473     
  0.14400000000000002         -12.664919068885638     
  0.14429999999999998         -12.424579920104122     
  0.14460000000000001         -11.902264824583085     
  0.14490000000000003         -11.104136179537704     
  0.14520000000000000         -10.043238330460554     
  0.14550000000000002         -8.7365846344177953     
  0.14579999999999999         -7.2088101860829568     
  0.14610000000000001         -5.4889895183088981     
  0.14640000000000003         -3.6116479163831485     
  0.14670000000000000         -1.6172064637907155     
  0.14699999999999996         0.44982248458913432     
  0.14729999999999999          2.5395756516295904     
  0.14760000000000001          4.5984091534009224     
  0.14789999999999998          6.5700184398899211     
  0.14820000000000000          8.3954810688169950     