  -1.4999999999999999E-002     0.0000000000000000     
  -1.4700000000000000E-002     0.0000000000000000     
  -1.4400000000000000E-002     0.0000000000000000     
  -1.4100000000000000E-002     0.0000000000000000     
  -1.3800000000000000E-002     0.0000000000000000     
  -1.3500000000000000E-002     0.0000000000000000     
  -1.3200000000000000E-002     0.0000000000000000     
  -1.2899999999999998E-002     0.0000000000000000     
  -1.2600000000000000E-002     0.0000000000000000     
  -1.2299999999999998E-002     0.0000000000000000     
  -1.2000000000000000E-002     0.0000000000000000     
  -1.1699999999999999E-002     0.0000000000000000     
  -1.1399999999999999E-002     0.0000000000000000     
  -1.1099999999999999E-002     0.0000000000000000     
  -1.0799999999999999E-002     0.0000000000000000     
  -1.0499999999999999E-002     0.0000000000000000     
  -1.0199999999999999E-002     0.0000000000000000     
  -9.8999999999999991E-003     0.0000000000000000     
  -9.5999999999999992E-003     0.0000000000000000     
  -9.2999999999999992E-003     0.0000000000000000     
  -8.9999999999999993E-003     0.0000000000000000     
  -8.6999999999999994E-003     0.0000000000000000     
  -8.3999999999999995E-003     0.0000000000000000     
  -8.0999999999999996E-003     0.0000000000000000     
  -7.7999999999999988E-003     0.0000000000000000     
  -7.4999999999999997E-003     0.0000000000000000     
  -7.1999999999999998E-003     0.0000000000000000     
  -6.8999999999999981E-003     0.0000000000000000     
  -6.5999999999999982E-003     0.0000000000000000     
  -6.3000000000000000E-003     0.0000000000000000     
  -6.0000000000000001E-003     0.0000000000000000     
  -5.6999999999999985E-003     0.0000000000000000     
  -5.3999999999999986E-003     0.0000000000000000     
  -5.1000000000000004E-003     0.0000000000000000     
  -4.7999999999999987E-003     0.0000000000000000     
  -4.5000000000000005E-003     0.0000000000000000     
  -4.1999999999999989E-003     0.0000000000000000     
  -3.8999999999999990E-003     0.0000000000000000     
  -3.5999999999999990E-003     0.0000000000000000     
  -3.2999999999999991E-003     0.0000000000000000     
  -2.9999999999999992E-003     0.0000000000000000     
  -2.6999999999999993E-003     0.0000000000000000     
  -2.3999999999999994E-003     0.0000000000000000     
  -2.0999999999999977E-003     0.0000000000000000     
  -1.7999999999999995E-003     0.0000000000000000     
  -1.4999999999999979E-003     0.0000000000000000     
  -1.1999999999999997E-003     0.0000000000000000     
  -8.9999999999999976E-004     0.0000000000000000     
  -5.9999999999999810E-004     0.0000000000000000     
  -2.9999999999999992E-004     0.0000000000000000     
   0.0000000000000000          0.0000000000000000     
   3.0000000000000165E-004     0.0000000000000000     
   5.9999999999999984E-004     0.0000000000000000     
   9.0000000000000149E-004     0.0000000000000000     
   1.2000000000000031E-003     0.0000000000000000     
   1.5000000000000013E-003     0.0000000000000000     
   1.8000000000000030E-003     0.0000000000000000     
   2.1000000000000012E-003     0.0000000000000000     
   2.3999999999999994E-003     0.0000000000000000     
   2.7000000000000010E-003     0.0000000000000000     
   2.9999999999999992E-003     0.0000000000000000     
   3.3000000000000008E-003     0.0000000000000000     
   3.6000000000000025E-003     0.0000000000000000     
   3.9000000000000007E-003     0.0000000000000000     
   4.2000000000000023E-003     0.0000000000000000     
   4.5000000000000005E-003     0.0000000000000000     
   4.7999999999999987E-003     0.0000000000000000     
   5.1000000000000004E-003     0.0000000000000000     
   5.4000000000000020E-003     0.0000000000000000     
   5.7000000000000037E-003     0.0000000000000000     
   5.9999999999999984E-003     0.0000000000000000     
   6.3000000000000000E-003     0.0000000000000000     
   6.6000000000000017E-003     0.0000000000000000     
   6.9000000000000034E-003     0.0000000000000000     
   7.2000000000000015E-003     0.0000000000000000     
   7.5000000000000032E-003     0.0000000000000000     
   7.8000000000000014E-003     5.1077500683701462E-038
   8.0999999999999996E-003     1.8134956628098868E-036
   8.4000000000000012E-003    -2.6414140450946162E-035
   8.7000000000000029E-003     1.1812408354540926E-034
   9.0000000000000011E-003     5.5243708826595379E-034
   9.2999999999999992E-003    -1.4454530689139875E-032
   9.6000000000000009E-003     9.1470078135388076E-032
   9.8999999999999991E-003    -5.2912874709221553E-032
   1.0200000000000001E-002    -3.2982870337824821E-030
   1.0500000000000002E-002     2.4458238836381592E-029
   1.0800000000000004E-002    -5.1938525868578655E-029
   1.1099999999999999E-002    -3.8283780977501564E-028
   1.1400000000000000E-002     3.5219978769787911E-027
   1.1700000000000002E-002    -1.0775590178556577E-026
   1.2000000000000004E-002    -1.2014858748389211E-026
   1.2300000000000002E-002     2.3733661432900319E-025
   1.2600000000000000E-002    -9.1165328318160168E-025
   1.2900000000000002E-002     9.6534760698890362E-025
   1.3200000000000000E-002     5.7311555105460106E-024
   1.3500000000000002E-002    -2.7859858683108747E-023
   1.3800000000000003E-002     3.1283502150714996E-023
   1.4100000000000001E-002     1.8750673856941072E-022
   1.4400000000000000E-002    -1.0127376649062753E-021
   1.4700000000000001E-002     1.8350165678537235E-021
   1.4999999999999999E-002     4.2338469893542577E-021
   1.5300000000000001E-002    -4.6224266325644181E-020
   1.5600000000000003E-002     2.2160576096176763E-019
   1.5899999999999997E-002    -8.6628529756594566E-019
   1.6199999999999999E-002     3.2961672529373825E-018
   1.6500000000000001E-002    -1.3059611082754122E-017
   1.6800000000000002E-002     5.3512927343560029E-017
   1.7100000000000004E-002    -2.2029217919936680E-016
   1.7400000000000006E-002     8.9474435998249757E-016
   1.7700000000000000E-002    -3.5571069440082146E-015
   1.8000000000000002E-002     1.3707691150898481E-014
   1.8300000000000004E-002    -5.0169416311413640E-014
   1.8600000000000005E-002     1.6814618517631058E-013
   1.8900000000000000E-002    -4.8419686712456819E-013
   1.9200000000000002E-002     1.0358741463881240E-012
   1.9500000000000003E-002    -7.0206969583575377E-013
   1.9799999999999998E-002    -6.7610460140979307E-012
   2.0100000000000000E-002     3.9951124027265583E-011
   2.0400000000000001E-002    -1.2190364673233092E-010
   2.0700000000000003E-002     1.8536590318344769E-010
   2.0999999999999998E-002     1.7211034300168914E-010
   2.1299999999999999E-002    -1.6401157705492606E-009
   2.1600000000000001E-002     3.2695075041467051E-009
   2.1900000000000003E-002     1.3202621551710878E-009
   2.2200000000000004E-002    -1.7618526931815501E-008
   2.2500000000000006E-002     1.7935170556692992E-008
   2.2800000000000001E-002     5.3935260248884144E-008
   2.3100000000000002E-002    -1.0509200434184965E-007
   2.3400000000000004E-002    -1.7400544385204981E-007
   2.3699999999999999E-002     3.2810919944182625E-007
   2.4000000000000000E-002     5.9032081084167036E-007
   2.4300000000000002E-002    -6.8957492792137484E-007
   2.4599999999999997E-002    -1.8828306640662264E-006
   2.4900000000000005E-002     1.0585613059758565E-006
   2.5200000000000000E-002     8.3605912879925891E-006
   2.5499999999999995E-002     1.4590689041861038E-005
   2.5800000000000003E-002     1.7394493816678307E-005
   2.6099999999999998E-002     2.4256572095491809E-005
   2.6400000000000007E-002     4.4361406461251949E-005
   2.6700000000000002E-002     7.7360628088201950E-005
   2.6999999999999996E-002     1.1869216086583161E-004
   2.7300000000000005E-002     1.7491026168472631E-004
   2.7600000000000000E-002     2.6504693070943108E-004
   2.7900000000000008E-002     4.0595368494298310E-004
   2.8200000000000003E-002     6.0693585671373756E-004
   2.8499999999999998E-002     8.8495839149534475E-004
   2.8800000000000006E-002     1.2766082946292570E-003
   2.9100000000000001E-002     1.8278786208186515E-003
   2.9400000000000003E-002     2.5812294912993111E-003
   2.9700000000000004E-002     3.5839503165279452E-003
   3.0000000000000006E-002     4.9040221321405009E-003
   3.0300000000000001E-002     6.6247538887835300E-003
   3.0600000000000002E-002     8.8246591950854603E-003
   3.0900000000000004E-002     1.1573504028330350E-002
   3.1199999999999999E-002     1.4943811878142976E-002
   3.1500000000000007E-002     1.9005977583994360E-002
   3.1800000000000002E-002     2.3799142833064502E-002
   3.2099999999999997E-002     2.9311082836460889E-002
   3.2400000000000005E-002     3.5480057143147059E-002
   3.2700000000000000E-002     4.2190617831890931E-002
   3.3000000000000002E-002     4.9249526432915580E-002
   3.3300000000000003E-002     5.6360589151433382E-002
   3.3599999999999998E-002     6.3130888654260309E-002
   3.3900000000000000E-002     6.9091252130603298E-002
   3.4200000000000001E-002     7.3701373276247484E-002
   3.4500000000000003E-002     7.6360440436328059E-002
   3.4799999999999998E-002     7.6440604117089084E-002
   3.5099999999999999E-002     7.3357413891124601E-002
   3.5400000000000001E-002     6.6622167410683275E-002
   3.5699999999999996E-002     5.5878907280730861E-002
   3.6000000000000004E-002     4.0964939655084076E-002
   3.6299999999999999E-002     2.1976931914982095E-002
   3.6600000000000008E-002    -6.8649462062115446E-004
   3.6900000000000002E-002    -2.6316639529930352E-002
   3.7199999999999997E-002    -5.3921651212652799E-002
   3.7500000000000006E-002    -8.2252668190618383E-002
   3.7800000000000000E-002   -0.10985420053828143     
   3.8100000000000009E-002   -0.13516756399354701     
   3.8400000000000004E-002   -0.15665776800344844     
   3.8699999999999998E-002   -0.17294543988986710     
   3.9000000000000007E-002   -0.18291764152585266     
   3.9300000000000002E-002   -0.18582470734180223     
   3.9600000000000003E-002   -0.18139412713010028     
   3.9900000000000005E-002   -0.16990075970341856     
   4.0200000000000000E-002   -0.15215302483177862     
   4.0500000000000001E-002   -0.12943579919239134     
   4.0800000000000003E-002   -0.10346679692920180     
   4.1100000000000005E-002    -7.6282879650940716E-002
   4.1399999999999999E-002    -5.0070537304334639E-002
   4.1700000000000008E-002    -2.6995720018856029E-002
   4.2000000000000003E-002    -9.0396929112489359E-003
   4.2299999999999997E-002     2.1350793604583418E-003
   4.2600000000000006E-002     5.3187852808527086E-003
   4.2900000000000001E-002    -1.1431356614337307E-004
   4.3200000000000002E-002    -1.4154360468563998E-002
   4.3500000000000004E-002    -3.6159177599506931E-002
   4.3799999999999999E-002    -6.4896193478261255E-002
   4.4100000000000000E-002    -9.8597496482818681E-002
   4.4400000000000002E-002   -0.13505009642422117     
   4.4700000000000004E-002   -0.17173721484532933     
   4.4999999999999998E-002   -0.20599829054079599     
   4.5300000000000000E-002   -0.23520322400574045     
   4.5600000000000002E-002   -0.25692397500486486     
   4.5899999999999996E-002   -0.26905165970340761     
   4.6200000000000005E-002   -0.26992929604441329     
   4.6500000000000000E-002   -0.25851200361592941     
   4.6799999999999994E-002   -0.23443694915762858     
   4.7100000000000003E-002   -0.19801254486154463     
   4.7399999999999998E-002   -0.15020234613593608     
   4.7700000000000006E-002    -9.2599680778850724E-002
   4.8000000000000001E-002    -2.7352142021440651E-002
   4.8300000000000010E-002     4.2998526036938989E-002
   4.8600000000000004E-002    0.11574480519196850     
   4.8899999999999999E-002    0.18811066788544384     
   4.9200000000000008E-002    0.25741654931292146     
   4.9500000000000002E-002    0.32125308761864702     
   4.9800000000000011E-002    0.37763232897727050     
   5.0100000000000006E-002    0.42509072573265350     
   5.0400000000000000E-002    0.46269951457940195     
   5.0700000000000009E-002    0.49002701143081140     
   5.1000000000000004E-002    0.50716122818992559     
   5.1299999999999998E-002    0.51463553750185298     
   5.1600000000000007E-002    0.51330241090201767     
   5.1900000000000002E-002    0.50418902217572992     
   5.2200000000000010E-002    0.48840767408336383     
   5.2500000000000005E-002    0.46704079901930839     
   5.2800000000000000E-002    0.44106441856619050     
   5.3099999999999994E-002    0.41126266325691496     
   5.3400000000000003E-002    0.37818818077988325     
   5.3699999999999998E-002    0.34221379036080712     
   5.4000000000000006E-002    0.30354937595651066     
   5.4300000000000001E-002    0.26229268993121302     
   5.4599999999999996E-002    0.21849872638734347     
   5.4900000000000004E-002    0.17227841060370075     
   5.5199999999999999E-002    0.12395985068975923     
   5.5499999999999994E-002     7.4107658585201852E-002
   5.5800000000000002E-002     2.3541684672592322E-002
   5.6099999999999997E-002    -2.6604622317849436E-002
   5.6400000000000006E-002    -7.4908269260067772E-002
   5.6700000000000000E-002   -0.11970545567703761     
   5.6999999999999995E-002   -0.15926479470213284     
   5.7300000000000004E-002   -0.19195535477942549     
   5.7599999999999998E-002   -0.21631529233748825     
   5.7900000000000007E-002   -0.23127231896541378     
   5.8200000000000002E-002   -0.23629553296843397     
   5.8499999999999996E-002   -0.23152137208916646     
   5.8800000000000005E-002   -0.21781997207688786     
   5.9100000000000000E-002   -0.19672074923318128     
   5.9400000000000008E-002   -0.17036260396749991     
   5.9700000000000003E-002   -0.14132744743778058     
   6.0000000000000012E-002   -0.11246482764409071     
   6.0300000000000006E-002    -8.6693396634344388E-002
   6.0600000000000001E-002    -6.6599522012900092E-002
   6.0900000000000010E-002    -5.4260422911076800E-002
   6.1200000000000004E-002    -5.1122136937635787E-002
   6.1500000000000013E-002    -5.7811952102330144E-002
   6.1800000000000008E-002    -7.3982284744460447E-002
   6.2100000000000002E-002    -9.8369769153251241E-002
   6.2399999999999997E-002   -0.12899620021457014     
   6.2700000000000006E-002   -0.16319634988991094     
   6.3000000000000000E-002   -0.19781950583845109     
   6.3300000000000009E-002   -0.22953828706348567     
   6.3600000000000004E-002   -0.25513856594801609     
   6.3899999999999998E-002   -0.27174888396649344     
   6.4199999999999993E-002   -0.27694315683255866     
   6.4500000000000002E-002   -0.26912659125746607     
   6.4800000000000010E-002   -0.24760894402449107     
   6.5100000000000005E-002   -0.21255714193754383     
   6.5400000000000000E-002   -0.16515458045990350     
   6.5700000000000008E-002   -0.10743191193134050     
   6.5999999999999989E-002    -4.2143148977407230E-002
   6.6299999999999998E-002     2.7317588315237007E-002
   6.6600000000000006E-002     9.7283948147655064E-002
   6.6900000000000001E-002    0.16398288176448350     
   6.7199999999999996E-002    0.22380394766033351     
   6.7500000000000004E-002    0.27349662408010467     
   6.7800000000000013E-002    0.31029903979709950     
   6.8099999999999994E-002    0.33218591359377392     
   6.8400000000000002E-002    0.33789021009010689     
   6.8700000000000011E-002    0.32678807584136571     
   6.8999999999999992E-002    0.29892392425392966     
   6.9300000000000000E-002    0.25490224512288862     
   6.9600000000000009E-002    0.19564070563095903     
   6.9900000000000004E-002    0.12241887872219270     
   7.0199999999999999E-002     3.6694595317334322E-002
   7.0500000000000007E-002    -6.0065756844650764E-002
   7.0800000000000016E-002   -0.16619147166614834     
   7.1099999999999997E-002   -0.27979634413686583     
   7.1400000000000005E-002   -0.39871021129227557     
   7.1700000000000000E-002   -0.52034979683167037     
   7.1999999999999995E-002   -0.64165633145277923     
   7.2300000000000003E-002   -0.75885025650117299     
   7.2600000000000012E-002   -0.86754047984683424     
   7.2900000000000006E-002   -0.96293312149383326     
   7.3200000000000001E-002    -1.0398220141047219     
   7.3499999999999996E-002    -1.0930179564358511     
   7.3800000000000004E-002    -1.1176690077209415     
   7.4099999999999999E-002    -1.1095406638837346     
   7.4400000000000008E-002    -1.0655822721781725     
   7.4700000000000003E-002   -0.98420253694906634     
   7.5000000000000011E-002   -0.86540799410330393     
   7.5299999999999992E-002   -0.71111715766677364     
   7.5600000000000001E-002   -0.52508123045563870     
   7.5900000000000009E-002   -0.31271838618964498     
   7.6200000000000004E-002    -8.0951477091657509E-002
   7.6499999999999999E-002    0.16217149095749006     
   7.6800000000000007E-002    0.40780474014406032     
   7.7099999999999988E-002    0.64672173048142767     
   7.7399999999999997E-002    0.86983870227700777     
   7.7700000000000005E-002     1.0684769841511041     
   7.8000000000000014E-002     1.2347102143613924     
   7.8299999999999995E-002     1.3619217770180612     
   7.8600000000000003E-002     1.4448092694064343     
   7.8900000000000012E-002     1.4797456133950320     
   7.9199999999999993E-002     1.4650823116874889     
   7.9500000000000001E-002     1.4011362786030688     
   7.9800000000000010E-002     1.2906125818136829     
   8.0100000000000018E-002     1.1383474147469990     
   8.0399999999999999E-002    0.95110558817211910     
   8.0700000000000008E-002    0.73774926483700298     
   8.1000000000000003E-002    0.50853854779821273     
   8.1299999999999997E-002    0.27474509283780524     
   8.1600000000000006E-002     4.8052535048053180E-002
   8.1900000000000014E-002   -0.16056007706794517     
   8.2199999999999995E-002   -0.34115999919686679     
   8.2500000000000004E-002   -0.48566166969629165     
   8.2799999999999999E-002   -0.58864654871744548     
   8.3100000000000007E-002   -0.64760093896562054     
   8.3400000000000002E-002   -0.66315684406470154     
   8.3700000000000011E-002   -0.63893435652872910     
   8.4000000000000005E-002   -0.58109646468359344     
   8.4300000000000000E-002   -0.49789024975443219     
   8.4599999999999995E-002   -0.39868981328162789     
   8.4900000000000003E-002   -0.29302505759129094     
   8.5199999999999998E-002   -0.18986397855388493     
   8.5500000000000007E-002    -9.6554443034730583E-002
   8.5800000000000001E-002    -1.8230863028817934E-002
   8.6100000000000010E-002     4.2329079816704862E-002
   8.6399999999999991E-002     8.5139085439335016E-002
   8.6699999999999999E-002    0.11272916200275773     
   8.7000000000000008E-002    0.12955777722214945     
   8.7300000000000003E-002    0.14150199773412009     
   8.7599999999999997E-002    0.15491060743003437     
   8.7900000000000006E-002    0.17584644484828615     
   8.8200000000000014E-002    0.20931592385954190     
   8.8499999999999995E-002    0.25839918558897157     
   8.8800000000000004E-002    0.32400200038059523     
   8.9100000000000013E-002    0.40439694210559018     
   8.9399999999999993E-002    0.49520246466582662     
   8.9700000000000002E-002    0.58990870210724466     
   9.0000000000000011E-002    0.67999549590200559     
   9.0299999999999991E-002    0.75563428892494144     
   9.0600000000000000E-002    0.80681134015207334     
   9.0900000000000009E-002    0.82387291565053289     
   9.1200000000000017E-002    0.79837028219493078     
   9.1499999999999998E-002    0.72397491166847416     
   9.1800000000000007E-002    0.59704807048721342     
   9.2100000000000001E-002    0.41730964175927587     
   9.2399999999999996E-002    0.18797143873956479     
   9.2700000000000005E-002    -8.4284068331681561E-002
   9.3000000000000013E-002   -0.38931392319815750     
   9.3300000000000008E-002   -0.71404014588264886     
   9.3600000000000003E-002    -1.0431262259051799     
   9.3899999999999997E-002    -1.3597147941810306     
   9.4200000000000006E-002    -1.6465985694319727     
   9.4500000000000001E-002    -1.8870379029707109     
   9.4800000000000009E-002    -2.0656971851494603     
   9.5100000000000004E-002    -2.1698923566843291     
   9.5399999999999999E-002    -2.1902072372714940     
   9.5699999999999993E-002    -2.1209127546077653     
   9.6000000000000002E-002    -1.9606376256522751     
   9.6300000000000011E-002    -1.7122486998002628     
   9.6600000000000005E-002    -1.3829135994867379     
   9.6900000000000000E-002   -0.98377691717311855     
   9.7200000000000009E-002   -0.52906953684770208     
   9.7499999999999989E-002    -3.5821896330070047E-002
   9.7799999999999998E-002    0.47699878776234783     
   9.8100000000000007E-002    0.98956652471364848     
   9.8400000000000015E-002     1.4817054916550774     
   9.8699999999999996E-002     1.9341314050124012     
   9.9000000000000005E-002     2.3290076946520202     
   9.9300000000000013E-002     2.6504667145282355     
   9.9599999999999994E-002     2.8855988743572709     
   9.9900000000000003E-002     3.0247359037703916     
  0.10020000000000001          3.0616896594591338     
  0.10049999999999999          2.9940506537199809     
  0.10080000000000000          2.8231143458994410     
  0.10110000000000001          2.5538949505210837     
  0.10140000000000000          2.1948191427820660     
  0.10170000000000000          1.7571711079525976     
  0.10200000000000001          1.2548562683546258     
  0.10230000000000002         0.70391147466067316     
  0.10260000000000000         0.12163653238777972     
  0.10290000000000001        -0.47379329855077223     
  0.10320000000000000         -1.0637817664758202     
  0.10350000000000001         -1.6299720216564140     
  0.10380000000000000         -2.1544553796766621     
  0.10410000000000001         -2.6206345648107714     
  0.10440000000000001         -3.0134915311739690     
  0.10470000000000000         -3.3195044049671054     
  0.10500000000000000         -3.5274616720070213     
  0.10530000000000000         -3.6286718515897576     
  0.10560000000000000         -3.6171147665784389     
  0.10590000000000001         -3.4900354624519991     
  0.10620000000000000         -3.2479324563170593     
  0.10650000000000001         -2.8949129932606468     
  0.10679999999999999         -2.4390427306429316     
  0.10710000000000000         -1.8922136511986949     
  0.10740000000000001         -1.2703010708910476     
  0.10770000000000000        -0.59284316149802407     
  0.10800000000000000         0.11722505180927301     
  0.10830000000000001         0.83397634373852370     
  0.10859999999999999          1.5297395446055972     
  0.10890000000000000          2.1762072628948630     
  0.10920000000000001          2.7451225978669100     
  0.10950000000000001          3.2101511891145691     
  0.10979999999999999          3.5485102168383378     
  0.11009999999999999          3.7421952477501179     
  0.11040000000000001          3.7795014749170974     
  0.11070000000000001          3.6558266471587473     
  0.11100000000000000          3.3744217109397283     
  0.11130000000000000          2.9469820283133856     
  0.11160000000000002          2.3928789075503687     
  0.11190000000000001          1.7383812770716744     
  0.11220000000000001          1.0154228286531950     
  0.11250000000000000         0.25975840622090907     
  0.11280000000000000        -0.49080011829126136     
  0.11309999999999999         -1.1990266107267331     
  0.11340000000000001         -1.8302246201512560     
  0.11369999999999998         -2.3539701549683372     
  0.11400000000000000         -2.7463418854099046     
  0.11430000000000000         -2.9908454332137495     
  0.11460000000000002         -3.0789372389676117     
  0.11489999999999999         -3.0109023817370115     
  0.11520000000000001         -2.7954927591089245     
  0.11550000000000001         -2.4488561378826930     
  0.11580000000000000         -1.9935769138015615     
  0.11609999999999999         -1.4574021693249488     
  0.11640000000000002        -0.87155389892669000     
  0.11670000000000001        -0.26859362672078468     
  0.11700000000000001         0.31950774598220910     
  0.11730000000000000         0.86285728995076028     
  0.11760000000000000          1.3354382103615521     
  0.11789999999999999          1.7169244711897278     
  0.11820000000000001          1.9931977066445086     
  0.11850000000000001          2.1571703335484500     
  0.11880000000000000          2.2090838951374749     
  0.11910000000000000          2.1556768028278981     
  0.11940000000000002          2.0097154225766900     
  0.11970000000000001          1.7884802416477754     
  0.12000000000000001          1.5118495295404486     
  0.12030000000000000          1.2010175234739613     
  0.12060000000000000         0.87661502011666315     
  0.12089999999999999         0.55698394943955032     
  0.12119999999999999         0.25670743159994203     
  0.12150000000000001         -1.4012704315242486E-002
  0.12180000000000001        -0.24913597894789596     
  0.12210000000000000        -0.44722430668733182     
  0.12239999999999999        -0.61100137027070289     
  0.12270000000000002        -0.74565361569857913     
  0.12300000000000001        -0.85774173721067370     
  0.12330000000000001        -0.95423242390544871     
  0.12360000000000000         -1.0413957775029843     
  0.12390000000000000         -1.1237446813147614     
  0.12419999999999999         -1.2028269078576415     
  0.12450000000000001         -1.2773178845081361     
  0.12480000000000001         -1.3438655887155520     
  0.12509999999999999         -1.3966124130009092     
  0.12540000000000001         -1.4275756587672888     
  0.12570000000000003         -1.4280480867090475     
  0.12600000000000000         -1.3894529195451213     
  0.12630000000000002         -1.3042693756934227     
  0.12659999999999999         -1.1665166124085609     
  0.12690000000000001        -0.97261346724581088     
  0.12719999999999998        -0.72255233041510802     
  0.12750000000000000        -0.41970028963589101     
  0.12780000000000002         -7.1005673804799940E-002
  0.12809999999999999         0.31279155826792682     
  0.12840000000000001         0.71741711986138412     
  0.12869999999999998          1.1252811773460039     
  0.12900000000000000          1.5166158915442978     
  0.12930000000000003          1.8706850011659739     
  0.12959999999999999          2.1664355095144998     
  0.12990000000000002          2.3837677336570522     
  0.13019999999999998          2.5052130723972965     
  0.13050000000000000          2.5174478042558235     
  0.13080000000000003          2.4123708548707015     
  0.13109999999999999          2.1877625060409045     
  0.13140000000000002          1.8482177426931479     
  0.13169999999999998          1.4055723401946150     
  0.13200000000000001         0.87834005718554664     
  0.13229999999999997         0.29096455528327780     
  0.13260000000000000        -0.32743988079657171     
  0.13290000000000002        -0.94487033260000786     
  0.13319999999999999         -1.5281569238202977     
  0.13350000000000001         -2.0452419480823139     
  0.13380000000000003         -2.4673173125694490     
  0.13410000000000000         -2.7707532605304550     
  0.13440000000000002         -2.9387602946714821     
  0.13469999999999999         -2.9622858376588965     
  0.13500000000000001         -2.8406392959832090     
  0.13529999999999998         -2.5815907150842037     
  0.13560000000000000         -2.2004959958516750     
  0.13590000000000002         -1.7191026432681262     
  0.13619999999999999         -1.1638695916734987     
  0.13650000000000001        -0.56426829210502660     
  0.13680000000000003          4.8917815864734759E-002
  0.13710000000000000         0.64604524178447420     
  0.13740000000000002          1.2001056142169801     
  0.13769999999999999          1.6874189487811293     
  0.13800000000000001          2.0889297198393919     
  0.13829999999999998          2.3908137787926051     
  0.13860000000000000          2.5844770649059541     
  0.13890000000000002          2.6663695400934557     
  0.13919999999999999          2.6375448380981936     
  0.13950000000000001          2.5034629029262518     
  0.13979999999999998          2.2737359147204899     
  0.14010000000000000          1.9613566213635920     
  0.14040000000000002          1.5822058057829835     
  0.14069999999999999          1.1549298128651468     
  0.14100000000000001         0.70038903075286640     
  0.14130000000000004         0.24107486813284318     
  0.14160000000000000        -0.20022723047510826     
  0.14189999999999997        -0.60152506676169715     
  0.14219999999999999        -0.94209552943771868     
  0.14250000000000002         -1.2045236417275476     
  0.14279999999999998         -1.3764327149290025     
  0.14310000000000000         -1.4509706639374542     
  0.14339999999999997         -1.4278375610011267     
  0.14369999999999999         -1.3137612116555175     
  0.14400000000000002         -1.1225008780459618     
  0.14429999999999998        -0.87402189328801683     
  0.14460000000000001        -0.59249368397712399     
  0.14490000000000003        -0.30487714311285485     
  0.14520000000000000         -3.8981495151781065E-002
  0.14550000000000002         0.17882867397595614     
  0.14579999999999999         0.32602648160988545     
  0.14610000000000001         0.38581120191119922     
  0.14640000000000003         0.34786890861829356     
  0.14670000000000000         0.20915988155239162     
  0.14699999999999996         -2.5175232911121448E-002
  0.14729999999999999        -0.34252925095342412     
  0.14760000000000001        -0.72433029731453402     
  0.14789999999999998         -1.1467161808646651     
  0.14820000000000000         -1.5816050619122919     